Title
55513
    1DOPE     N    1   3.872   3.894   6.885
    1DOPE   HN1    2   3.949   3.838   6.928
    1DOPE   HN2    3   3.913   3.974   6.832
    1DOPE   HN3    4   3.812   3.930   6.962
    1DOPE   C12    5   3.791   3.800   6.800
    1DOPE  H12A    6   3.806   3.827   6.694
    1DOPE  H12B    7   3.684   3.813   6.828
    1DOPE   C11    8   3.833   3.653   6.825
    1DOPE  H11A    9   3.935   3.637   6.784
    1DOPE  H11B   10   3.765   3.588   6.767
    1DOPE     P   11   3.948   3.612   7.059
    1DOPE   O13   12   4.007   3.477   7.054
    1DOPE   O14   13   3.907   3.665   7.190
    1DOPE   O11   14   4.041   3.719   6.989
    1DOPE   O12   15   3.823   3.619   6.963
    1DOPE    C1   16   4.182   3.725   7.012
    1DOPE    HA   17   4.220   3.643   7.077
    1DOPE    HB   18   4.205   3.820   7.065
    1DOPE    C2   19   4.266   3.724   6.881
    1DOPE    HS   20   4.369   3.755   6.910
    1DOPE   O21   21   4.209   3.819   6.788
    1DOPE   C21   22   4.289   3.847   6.685
    1DOPE   O22   23   4.399   3.800   6.664
    1DOPE   C22   24   4.220   3.952   6.595
    1DOPE   H2R   25   4.145   4.006   6.657
    1DOPE   H2S   26   4.168   3.898   6.514
    1DOPE    C3   27   4.279   3.579   6.821
    1DOPE    HX   28   4.314   3.515   6.904
    1DOPE    HY   29   4.358   3.579   6.743
    1DOPE   O31   30   4.154   3.531   6.766
    1DOPE   C31   31   4.159   3.403   6.731
    1DOPE   O32   32   4.257   3.331   6.742
    1DOPE   C32   33   4.025   3.359   6.673
    1DOPE   H2X   34   4.021   3.248   6.687
    1DOPE   H2Y   35   3.943   3.404   6.732
    1DOPE   C23   36   4.321   4.055   6.538
    1DOPE   H3R   37   4.392   4.085   6.618
    1DOPE   H3S   38   4.266   4.147   6.507
    1DOPE   C24   39   4.400   4.005   6.416
    1DOPE   H4R   40   4.441   3.904   6.439
    1DOPE   H4S   41   4.488   4.071   6.400
    1DOPE   C25   42   4.318   4.002   6.287
    1DOPE   H5R   43   4.292   4.106   6.258
    1DOPE   H5S   44   4.223   3.948   6.305
    1DOPE   C26   45   4.389   3.935   6.168
    1DOPE   H6R   46   4.482   3.992   6.144
    1DOPE   H6S   47   4.323   3.940   6.079
    1DOPE   C27   48   4.427   3.787   6.190
    1DOPE   H7R   49   4.503   3.780   6.270
    1DOPE   H7S   50   4.475   3.749   6.097
    1DOPE   C28   51   4.307   3.697   6.224
    1DOPE   H8R   52   4.233   3.706   6.142
    1DOPE   H8S   53   4.257   3.738   6.315
    1DOPE   C29   54   4.346   3.555   6.252
    1DOPE   H9R   55   4.404   3.542   6.345
    1DOPE  C210   56   4.322   3.447   6.176
    1DOPE  H10R   57   4.358   3.349   6.211
    1DOPE  C211   58   4.249   3.442   6.044
    1DOPE  H11R   59   4.221   3.544   6.009
    1DOPE  H11S   60   4.155   3.385   6.053
    1DOPE  C212   61   4.337   3.378   5.934
    1DOPE  H12R   62   4.430   3.437   5.924
    1DOPE  H12S   63   4.282   3.386   5.838
    1DOPE  C213   64   4.372   3.230   5.958
    1DOPE  H13R   65   4.278   3.180   5.989
    1DOPE  H13S   66   4.444   3.219   6.042
    1DOPE  C214   67   4.426   3.159   5.833
    1DOPE  H14R   68   4.389   3.212   5.742
    1DOPE  H14S   69   4.384   3.056   5.828
    1DOPE  C215   70   4.579   3.147   5.828
    1DOPE  H15R   71   4.609   3.043   5.854
    1DOPE  H15S   72   4.624   3.214   5.905
    1DOPE  C216   73   4.640   3.184   5.692
    1DOPE  H16R   74   4.620   3.292   5.673
    1DOPE  H16S   75   4.588   3.127   5.612
    1DOPE  C217   76   4.791   3.158   5.684
    1DOPE  H17R   77   4.807   3.050   5.661
    1DOPE  H17S   78   4.835   3.177   5.784
    1DOPE  C218   79   4.866   3.245   5.583
    1DOPE  H18R   80   4.876   3.349   5.620
    1DOPE  H18S   81   4.813   3.249   5.485
    1DOPE  H18T   82   4.968   3.204   5.566
    1DOPE   C33   83   4.011   3.391   6.522
    1DOPE   H3X   84   3.923   3.335   6.483
    1DOPE   H3Y   85   4.100   3.355   6.466
    1DOPE   C34   86   3.988   3.540   6.493
    1DOPE   H4X   87   3.900   3.575   6.551
    1DOPE   H4Y   88   4.077   3.598   6.526
    1DOPE   C35   89   3.962   3.567   6.344
    1DOPE   H5X   90   3.875   3.508   6.311
    1DOPE   H5Y   91   4.050   3.533   6.285
    1DOPE   C36   92   3.936   3.716   6.313
    1DOPE   H6X   93   4.025   3.775   6.345
    1DOPE   H6Y   94   3.848   3.750   6.372
    1DOPE   C37   95   3.910   3.741   6.164
    1DOPE   H7X   96   3.999   3.711   6.104
    1DOPE   H7Y   97   3.826   3.674   6.133
    1DOPE   C38   98   3.869   3.886   6.130
    1DOPE   H8X   99   3.785   3.913   6.197
    1DOPE   H8Y  100   3.829   3.885   6.027
    1DOPE   C39  101   3.982   3.985   6.147
    1DOPE   H9X  102   4.023   3.989   6.248
    1DOPE  C310  103   4.033   4.069   6.054
    1DOPE  H10X  104   4.117   4.134   6.082
    1DOPE  C311  105   3.990   4.083   5.910
    1DOPE  H11X  106   3.898   4.025   5.889
    1DOPE  H11Y  107   3.966   4.189   5.888
    1DOPE  C312  108   4.097   4.037   5.808
    1DOPE  H12X  109   4.046   4.015   5.712
    1DOPE  H12Y  110   4.144   3.941   5.842
    1DOPE  C313  111   4.206   4.142   5.779
    1DOPE  H13X  112   4.156   4.234   5.742
    1DOPE  H13Y  113   4.260   4.167   5.873
    1DOPE  C314  114   4.306   4.093   5.673
    1DOPE  H14X  115   4.249   4.046   5.590
    1DOPE  H14Y  116   4.370   4.014   5.718
    1DOPE  C315  117   4.395   4.203   5.612
    1DOPE  H15X  118   4.330   4.277   5.560
    1DOPE  H15Y  119   4.460   4.157   5.535
    1DOPE  C316  120   4.483   4.277   5.714
    1DOPE  H16X  121   4.540   4.204   5.775
    1DOPE  H16Y  122   4.416   4.332   5.783
    1DOPE  C317  123   4.580   4.377   5.649
    1DOPE  H17X  124   4.546   4.400   5.546
    1DOPE  H17Y  125   4.576   4.472   5.707
    1DOPE  C318  126   4.726   4.331   5.646
    1DOPE  H18X  127   4.790   4.408   5.598
    1DOPE  H18Y  128   4.764   4.313   5.748
    1DOPE  H18Z  129   4.736   4.237   5.587
    2DOPE     N  130   4.607   4.472   6.972
    2DOPE   HN1  131   4.556   4.556   7.007
    2DOPE   HN2  132   4.702   4.476   7.013
    2DOPE   HN3  133   4.620   4.476   6.869
    2DOPE   C12  134   4.534   4.348   7.016
    2DOPE  H12A  135   4.430   4.355   6.979
    2DOPE  H12B  136   4.534   4.348   7.127
    2DOPE   C11  137   4.604   4.223   6.963
    2DOPE  H11A  138   4.599   4.221   6.852
    2DOPE  H11B  139   4.551   4.133   7.002
    2DOPE     P  140   4.841   4.120   6.948
    2DOPE   O13  141   4.784   3.984   6.956
    2DOPE   O14  142   4.973   4.143   7.012
    2DOPE   O11  143   4.846   4.170   6.797
    2DOPE   O12  144   4.739   4.223   7.010
    2DOPE    C1  145   4.906   4.298   6.773
    2DOPE    HA  146   5.012   4.299   6.806
    2DOPE    HB  147   4.854   4.378   6.830
    2DOPE    C2  148   4.906   4.340   6.622
    2DOPE    HS  149   4.939   4.446   6.616
    2DOPE   O21  150   4.777   4.326   6.560
    2DOPE   C21  151   4.674   4.390   6.606
    2DOPE   O22  152   4.670   4.465   6.703
    2DOPE   C22  153   4.552   4.355   6.520
    2DOPE   H2R  154   4.498   4.275   6.576
    2DOPE   H2S  155   4.586   4.313   6.423
    2DOPE    C3  156   5.010   4.255   6.539
    2DOPE    HX  157   5.100   4.241   6.603
    2DOPE    HY  158   5.043   4.315   6.452
    2DOPE   O31  159   4.960   4.124   6.501
    2DOPE   C31  160   4.896   4.122   6.384
    2DOPE   O32  161   4.889   4.215   6.306
    2DOPE   C32  162   4.824   3.988   6.367
    2DOPE   H2X  163   4.862   3.917   6.444
    2DOPE   H2Y  164   4.716   4.006   6.387
    2DOPE   C23  165   4.456   4.475   6.497
    2DOPE   H3R  166   4.448   4.537   6.589
    2DOPE   H3S  167   4.354   4.436   6.476
    2DOPE   C24  168   4.496   4.564   6.378
    2DOPE   H4R  169   4.605   4.586   6.382
    2DOPE   H4S  170   4.442   4.661   6.387
    2DOPE   C25  171   4.460   4.503   6.242
    2DOPE   H5R  172   4.351   4.482   6.239
    2DOPE   H5S  173   4.513   4.406   6.230
    2DOPE   C26  174   4.497   4.593   6.123
    2DOPE   H6R  175   4.607   4.609   6.125
    2DOPE   H6S  176   4.448   4.692   6.132
    2DOPE   C27  177   4.459   4.530   5.987
    2DOPE   H7R  178   4.485   4.422   5.992
    2DOPE   H7S  179   4.522   4.575   5.907
    2DOPE   C28  180   4.310   4.545   5.950
    2DOPE   H8R  181   4.249   4.544   6.043
    2DOPE   H8S  182   4.279   4.454   5.894
    2DOPE   C29  183   4.280   4.669   5.869
    2DOPE   H9R  184   4.268   4.761   5.929
    2DOPE  C210  185   4.269   4.677   5.735
    2DOPE  H10R  186   4.249   4.775   5.689
    2DOPE  C211  187   4.282   4.563   5.637
    2DOPE  H11R  188   4.255   4.467   5.686
    2DOPE  H11S  189   4.388   4.554   5.605
    2DOPE  C212  190   4.194   4.574   5.511
    2DOPE  H12R  191   4.098   4.623   5.536
    2DOPE  H12S  192   4.170   4.472   5.476
    2DOPE  C213  193   4.261   4.648   5.394
    2DOPE  H13R  194   4.302   4.745   5.429
    2DOPE  H13S  195   4.183   4.671   5.318
    2DOPE  C214  196   4.371   4.567   5.324
    2DOPE  H14R  197   4.330   4.467   5.298
    2DOPE  H14S  198   4.456   4.551   5.395
    2DOPE  C215  199   4.425   4.634   5.197
    2DOPE  H15R  200   4.462   4.735   5.225
    2DOPE  H15S  201   4.342   4.647   5.124
    2DOPE  C216  202   4.540   4.558   5.129
    2DOPE  H16R  203   4.622   4.542   5.203
    2DOPE  H16S  204   4.581   4.622   5.048
    2DOPE  C217  205   4.500   4.423   5.069
    2DOPE  H17R  206   4.415   4.438   4.999
    2DOPE  H17S  207   4.466   4.355   5.150
    2DOPE  C218  208   4.615   4.355   4.993
    2DOPE  H18R  209   4.584   4.256   4.953
    2DOPE  H18S  210   4.702   4.340   5.060
    2DOPE  H18T  211   4.648   4.418   4.907
    2DOPE   C33  212   4.839   3.923   6.226
    2DOPE   H3X  213   4.778   3.830   6.227
    2DOPE   H3Y  214   4.944   3.892   6.208
    2DOPE   C34  215   4.790   4.011   6.110
    2DOPE   H4X  216   4.692   4.055   6.139
    2DOPE   H4Y  217   4.860   4.094   6.093
    2DOPE   C35  218   4.772   3.933   5.979
    2DOPE   H5X  219   4.708   3.844   6.001
    2DOPE   H5Y  220   4.870   3.896   5.943
    2DOPE   C36  221   4.703   4.016   5.870
    2DOPE   H6X  222   4.763   4.108   5.850
    2DOPE   H6Y  223   4.605   4.049   5.911
    2DOPE   C37  224   4.677   3.941   5.738
    2DOPE   H7X  225   4.639   3.840   5.762
    2DOPE   H7Y  226   4.596   3.994   5.683
    2DOPE   C38  227   4.800   3.935   5.645
    2DOPE   H8X  228   4.886   3.897   5.704
    2DOPE   H8Y  229   4.826   4.039   5.615
    2DOPE   C39  230   4.782   3.849   5.522
    2DOPE   H9X  231   4.830   3.750   5.528
    2DOPE  C310  232   4.715   3.880   5.409
    2DOPE  H10X  233   4.711   3.804   5.329
    2DOPE  C311  234   4.643   4.008   5.378
    2DOPE  H11X  235   4.534   3.990   5.370
    2DOPE  H11Y  236   4.656   4.082   5.460
    2DOPE  C312  237   4.691   4.075   5.248
    2DOPE  H12X  238   4.800   4.095   5.256
    2DOPE  H12Y  239   4.641   4.174   5.238
    2DOPE  C313  240   4.665   3.995   5.119
    2DOPE  H13X  241   4.719   4.044   5.035
    2DOPE  H13Y  242   4.707   3.892   5.129
    2DOPE  C314  243   4.516   3.986   5.079
    2DOPE  H14X  244   4.480   4.088   5.058
    2DOPE  H14Y  245   4.456   3.946   5.164
    2DOPE  C315  246   4.495   3.896   4.956
    2DOPE  H15X  247   4.471   3.793   4.992
    2DOPE  H15Y  248   4.590   3.888   4.900
    2DOPE  C316  249   4.384   3.943   4.860
    2DOPE  H16X  250   4.289   3.954   4.917
    2DOPE  H16Y  251   4.369   3.864   4.784
    2DOPE  C317  252   4.414   4.075   4.785
    2DOPE  H17X  253   4.332   4.092   4.713
    2DOPE  H17Y  254   4.412   4.159   4.858
    2DOPE  C318  255   4.547   4.077   4.710
    2DOPE  H18X  256   4.558   4.171   4.652
    2DOPE  H18Y  257   4.633   4.071   4.781
    2DOPE  H18Z  258   4.554   3.992   4.639
    3DOPE     N  259   3.606   5.210   6.637
    3DOPE   HN1  260   3.701   5.226   6.677
    3DOPE   HN2  261   3.608   5.114   6.597
    3DOPE   HN3  262   3.595   5.280   6.561
    3DOPE   C12  263   3.501   5.223   6.744
    3DOPE  H12A  264   3.402   5.204   6.697
    3DOPE  H12B  265   3.504   5.326   6.783
    3DOPE   C11  266   3.526   5.123   6.858
    3DOPE  H11A  267   3.624   5.147   6.905
    3DOPE  H11B  268   3.536   5.019   6.818
    3DOPE     P  269   3.296   5.042   6.952
    3DOPE   O13  270   3.223   5.050   7.080
    3DOPE   O14  271   3.339   4.907   6.909
    3DOPE   O11  272   3.210   5.109   6.837
    3DOPE   O12  273   3.424   5.135   6.957
    3DOPE    C1  274   3.100   5.039   6.779
    3DOPE    HA  275   3.032   5.113   6.732
    3DOPE    HB  276   3.040   4.983   6.854
    3DOPE    C2  277   3.143   4.941   6.666
    3DOPE    HS  278   3.202   4.860   6.715
    3DOPE   O21  279   3.225   5.014   6.572
    3DOPE   C21  280   3.305   4.937   6.500
    3DOPE   O22  281   3.315   4.816   6.510
    3DOPE   C22  282   3.389   5.026   6.409
    3DOPE   H2R  283   3.394   5.128   6.455
    3DOPE   H2S  284   3.335   5.034   6.312
    3DOPE    C3  285   3.021   4.875   6.595
    3DOPE    HX  286   2.963   4.822   6.674
    3DOPE    HY  287   3.056   4.796   6.526
    3DOPE   O31  288   2.935   4.973   6.533
    3DOPE   C31  289   2.960   4.995   6.403
    3DOPE   O32  290   3.039   4.932   6.336
    3DOPE   C32  291   2.877   5.114   6.354
    3DOPE   H2X  292   2.774   5.076   6.336
    3DOPE   H2Y  293   2.874   5.191   6.434
    3DOPE   C23  294   3.531   4.971   6.387
    3DOPE   H3R  295   3.571   4.924   6.480
    3DOPE   H3S  296   3.600   5.053   6.357
    3DOPE   C24  297   3.534   4.867   6.274
    3DOPE   H4R  298   3.449   4.796   6.287
    3DOPE   H4S  299   3.627   4.807   6.281
    3DOPE   C25  300   3.528   4.930   6.134
    3DOPE   H5R  301   3.631   4.932   6.092
    3DOPE   H5S  302   3.494   5.035   6.141
    3DOPE   C26  303   3.435   4.856   6.037
    3DOPE   H6R  304   3.455   4.746   6.041
    3DOPE   H6S  305   3.460   4.891   5.935
    3DOPE   C27  306   3.286   4.882   6.062
    3DOPE   H7R  307   3.272   4.992   6.069
    3DOPE   H7S  308   3.256   4.838   6.160
    3DOPE   C28  309   3.199   4.826   5.949
    3DOPE   H8R  310   3.207   4.715   5.949
    3DOPE   H8S  311   3.242   4.860   5.852
    3DOPE   C29  312   3.054   4.867   5.964
    3DOPE   H9R  313   3.005   4.830   6.055
    3DOPE  C210  314   2.985   4.947   5.880
    3DOPE  H10R  315   2.880   4.969   5.902
    3DOPE  C211  316   3.039   5.009   5.753
    3DOPE  H11R  317   3.108   4.940   5.700
    3DOPE  H11S  318   3.098   5.100   5.779
    3DOPE  C212  319   2.928   5.052   5.655
    3DOPE  H12R  320   2.976   5.106   5.570
    3DOPE  H12S  321   2.861   5.124   5.705
    3DOPE  C213  322   2.844   4.937   5.597
    3DOPE  H13R  323   2.762   4.981   5.537
    3DOPE  H13S  324   2.797   4.879   5.680
    3DOPE  C214  325   2.923   4.840   5.507
    3DOPE  H14R  326   3.001   4.788   5.567
    3DOPE  H14S  327   2.975   4.899   5.428
    3DOPE  C215  328   2.833   4.736   5.441
    3DOPE  H15R  329   2.754   4.789   5.383
    3DOPE  H15S  330   2.782   4.676   5.520
    3DOPE  C216  331   2.909   4.640   5.348
    3DOPE  H16R  332   2.988   4.589   5.407
    3DOPE  H16S  333   2.959   4.699   5.268
    3DOPE  C217  334   2.819   4.533   5.283
    3DOPE  H17R  335   2.770   4.474   5.363
    3DOPE  H17S  336   2.884   4.464   5.226
    3DOPE  C218  337   2.712   4.589   5.189
    3DOPE  H18R  338   2.759   4.648   5.107
    3DOPE  H18S  339   2.641   4.655   5.243
    3DOPE  H18T  340   2.654   4.506   5.142
    3DOPE   C33  341   2.935   5.175   6.224
    3DOPE   H3X  342   2.863   5.248   6.181
    3DOPE   H3Y  343   2.948   5.094   6.149
    3DOPE   C34  344   3.069   5.246   6.246
    3DOPE   H4X  345   3.053   5.344   6.297
    3DOPE   H4Y  346   3.131   5.184   6.314
    3DOPE   C35  347   3.150   5.265   6.117
    3DOPE   H5X  348   3.101   5.341   6.052
    3DOPE   H5Y  349   3.150   5.169   6.062
    3DOPE   C36  350   3.295   5.305   6.146
    3DOPE   H6X  351   3.334   5.243   6.230
    3DOPE   H6Y  352   3.299   5.411   6.177
    3DOPE   C37  353   3.390   5.283   6.026
    3DOPE   H7X  354   3.388   5.176   5.998
    3DOPE   H7Y  355   3.352   5.341   5.940
    3DOPE   C38  356   3.534   5.325   6.060
    3DOPE   H8X  357   3.561   5.270   6.153
    3DOPE   H8Y  358   3.532   5.433   6.089
    3DOPE   C39  359   3.647   5.304   5.961
    3DOPE   H9X  360   3.745   5.320   6.008
    3DOPE  C310  361   3.647   5.274   5.830
    3DOPE  H10X  362   3.745   5.264   5.781
    3DOPE  C311  363   3.533   5.251   5.733
    3DOPE  H11X  364   3.444   5.313   5.759
    3DOPE  H11Y  365   3.564   5.286   5.632
    3DOPE  C312  366   3.489   5.104   5.719
    3DOPE  H12X  367   3.415   5.099   5.636
    3DOPE  H12Y  368   3.436   5.072   5.812
    3DOPE  C313  369   3.604   5.006   5.692
    3DOPE  H13X  370   3.668   5.046   5.609
    3DOPE  H13Y  371   3.668   5.001   5.783
    3DOPE  C314  372   3.558   4.864   5.657
    3DOPE  H14X  373   3.488   4.828   5.736
    3DOPE  H14Y  374   3.646   4.797   5.659
    3DOPE  C315  375   3.489   4.849   5.520
    3DOPE  H15X  376   3.398   4.913   5.515
    3DOPE  H15Y  377   3.455   4.743   5.513
    3DOPE  C316  378   3.581   4.877   5.401
    3DOPE  H16X  379   3.563   4.801   5.322
    3DOPE  H16Y  380   3.687   4.867   5.434
    3DOPE  C317  381   3.562   5.016   5.338
    3DOPE  H17X  382   3.458   5.023   5.298
    3DOPE  H17Y  383   3.572   5.094   5.416
    3DOPE  C318  384   3.662   5.044   5.225
    3DOPE  H18X  385   3.766   5.036   5.263
    3DOPE  H18Y  386   3.648   4.971   5.143
    3DOPE  H18Z  387   3.647   5.146   5.185
    4DOPE     N  388   4.330   2.564   6.866
    4DOPE   HN1  389   4.325   2.664   6.840
    4DOPE   HN2  390   4.387   2.512   6.796
    4DOPE   HN3  391   4.231   2.531   6.859
    4DOPE   C12  392   4.387   2.545   7.003
    4DOPE  H12A  393   4.383   2.436   7.025
    4DOPE  H12B  394   4.322   2.599   7.076
    4DOPE   C11  395   4.532   2.597   7.013
    4DOPE  H11A  396   4.532   2.706   6.993
    4DOPE  H11B  397   4.597   2.550   6.937
    4DOPE     P  398   4.622   2.433   7.198
    4DOPE   O13  399   4.500   2.380   7.264
    4DOPE   O14  400   4.742   2.441   7.283
    4DOPE   O11  401   4.653   2.353   7.066
    4DOPE   O12  402   4.584   2.576   7.144
    4DOPE    C1  403   4.598   2.224   7.040
    4DOPE    HA  404   4.488   2.223   7.056
    4DOPE    HB  405   4.644   2.148   7.106
    4DOPE    C2  406   4.625   2.186   6.892
    4DOPE    HS  407   4.735   2.173   6.884
    4DOPE   O21  408   4.576   2.294   6.810
    4DOPE   C21  409   4.652   2.324   6.705
    4DOPE   O22  410   4.748   2.260   6.666
    4DOPE   C22  411   4.597   2.452   6.642
    4DOPE   H2R  412   4.577   2.523   6.724
    4DOPE   H2S  413   4.502   2.427   6.590
    4DOPE    C3  414   4.557   2.050   6.857
    4DOPE    HX  415   4.447   2.064   6.852
    4DOPE    HY  416   4.575   1.983   6.944
    4DOPE   O31  417   4.612   1.985   6.740
    4DOPE   C31  418   4.562   2.028   6.624
    4DOPE   O32  419   4.474   2.111   6.613
    4DOPE   C32  420   4.628   1.958   6.506
    4DOPE   H2X  421   4.734   1.991   6.503
    4DOPE   H2Y  422   4.623   1.848   6.521
    4DOPE   C23  423   4.695   2.519   6.543
    4DOPE   H3R  424   4.800   2.507   6.578
    4DOPE   H3S  425   4.674   2.628   6.542
    4DOPE   C24  426   4.681   2.469   6.399
    4DOPE   H4R  427   4.576   2.485   6.366
    4DOPE   H4S  428   4.703   2.360   6.393
    4DOPE   C25  429   4.774   2.546   6.305
    4DOPE   H5R  430   4.879   2.510   6.317
    4DOPE   H5S  431   4.773   2.653   6.333
    4DOPE   C26  432   4.733   2.537   6.158
    4DOPE   H6R  433   4.630   2.579   6.149
    4DOPE   H6S  434   4.729   2.432   6.124
    4DOPE   C27  435   4.827   2.618   6.067
    4DOPE   H7R  436   4.922   2.560   6.056
    4DOPE   H7S  437   4.854   2.713   6.118
    4DOPE   C28  438   4.769   2.649   5.928
    4DOPE   H8R  439   4.735   2.553   5.883
    4DOPE   H8S  440   4.852   2.687   5.865
    4DOPE   C29  441   4.660   2.753   5.933
    4DOPE   H9R  442   4.688   2.845   5.986
    4DOPE  C210  443   4.536   2.743   5.882
    4DOPE  H10R  444   4.468   2.830   5.891
    4DOPE  C211  445   4.477   2.625   5.808
    4DOPE  H11R  446   4.369   2.617   5.832
    4DOPE  H11S  447   4.523   2.530   5.842
    4DOPE  C212  448   4.493   2.635   5.655
    4DOPE  H12R  449   4.451   2.731   5.618
    4DOPE  H12S  450   4.433   2.553   5.609
    4DOPE  C213  451   4.639   2.621   5.609
    4DOPE  H13R  452   4.679   2.525   5.648
    4DOPE  H13S  453   4.699   2.703   5.654
    4DOPE  C214  454   4.660   2.626   5.457
    4DOPE  H14R  455   4.769   2.617   5.438
    4DOPE  H14S  456   4.626   2.725   5.419
    4DOPE  C215  457   4.587   2.515   5.381
    4DOPE  H15R  458   4.482   2.546   5.363
    4DOPE  H15S  459   4.585   2.423   5.444
    4DOPE  C216  460   4.655   2.479   5.247
    4DOPE  H16R  461   4.590   2.408   5.192
    4DOPE  H16S  462   4.751   2.427   5.268
    4DOPE  C217  463   4.684   2.600   5.158
    4DOPE  H17R  464   4.769   2.656   5.201
    4DOPE  H17S  465   4.595   2.667   5.158
    4DOPE  C218  466   4.717   2.561   5.014
    4DOPE  H18R  467   4.627   2.521   4.964
    4DOPE  H18S  468   4.796   2.483   5.012
    4DOPE  H18T  469   4.753   2.650   4.957
    4DOPE   C33  470   4.555   2.000   6.376
    4DOPE   H3X  471   4.551   2.111   6.373
    4DOPE   H3Y  472   4.451   1.963   6.377
    4DOPE   C34  473   4.624   1.953   6.247
    4DOPE   H4X  474   4.726   1.997   6.243
    4DOPE   H4Y  475   4.635   1.842   6.250
    4DOPE   C35  476   4.547   1.992   6.120
    4DOPE   H5X  477   4.455   1.929   6.113
    4DOPE   H5Y  478   4.610   1.969   6.032
    4DOPE   C36  479   4.505   2.140   6.116
    4DOPE   H6X  480   4.593   2.205   6.136
    4DOPE   H6Y  481   4.430   2.158   6.196
    4DOPE   C37  482   4.441   2.182   5.983
    4DOPE   H7X  483   4.369   2.104   5.950
    4DOPE   H7Y  484   4.383   2.275   6.000
    4DOPE   C38  485   4.545   2.210   5.873
    4DOPE   H8X  486   4.609   2.119   5.864
    4DOPE   H8Y  487   4.610   2.293   5.906
    4DOPE   C39  488   4.478   2.246   5.742
    4DOPE   H9X  489   4.396   2.318   5.751
    4DOPE  C310  490   4.511   2.199   5.620
    4DOPE  H10X  491   4.453   2.235   5.533
    4DOPE  C311  492   4.621   2.102   5.588
    4DOPE  H11X  493   4.686   2.083   5.676
    4DOPE  H11Y  494   4.578   2.004   5.559
    4DOPE  C312  495   4.714   2.152   5.475
    4DOPE  H12X  496   4.806   2.089   5.477
    4DOPE  H12Y  497   4.746   2.256   5.496
    4DOPE  C313  498   4.655   2.142   5.334
    4DOPE  H13X  499   4.557   2.193   5.331
    4DOPE  H13Y  500   4.723   2.195   5.264
    4DOPE  C314  501   4.642   1.997   5.284
    4DOPE  H14X  502   4.576   1.940   5.353
    4DOPE  H14Y  503   4.743   1.950   5.287
    4DOPE  C315  504   4.585   1.985   5.142
    4DOPE  H15X  505   4.576   1.877   5.118
    4DOPE  H15Y  506   4.656   2.030   5.070
    4DOPE  C316  507   4.448   2.052   5.128
    4DOPE  H16X  508   4.462   2.159   5.104
    4DOPE  H16Y  509   4.396   2.046   5.226
    4DOPE  C317  510   4.358   1.986   5.024
    4DOPE  H17X  511   4.401   2.000   4.922
    4DOPE  H17Y  512   4.355   1.876   5.044
    4DOPE  C318  513   4.215   2.040   5.028
    4DOPE  H18X  514   4.147   1.978   4.966
    4DOPE  H18Y  515   4.176   2.039   5.132
    4DOPE  H18Z  516   4.212   2.145   4.991
    5DOPE     N  517   1.715   4.363   7.103
    5DOPE   HN1  518   1.641   4.310   7.052
    5DOPE   HN2  519   1.671   4.405   7.187
    5DOPE   HN3  520   1.749   4.439   7.040
    5DOPE   C12  521   1.824   4.268   7.145
    5DOPE  H12A  522   1.795   4.225   7.243
    5DOPE  H12B  523   1.918   4.327   7.157
    5DOPE   C11  524   1.843   4.155   7.043
    5DOPE  H11A  525   1.888   4.195   6.949
    5DOPE  H11B  526   1.744   4.112   7.014
    5DOPE     P  527   2.075   4.068   7.130
    5DOPE   O13  528   2.142   3.936   7.132
    5DOPE   O14  529   2.079   4.147   7.256
    5DOPE   O11  530   2.128   4.157   7.011
    5DOPE   O12  531   1.921   4.048   7.095
    5DOPE    C1  532   2.171   4.096   6.889
    5DOPE    HA  533   2.117   4.001   6.866
    5DOPE    HB  534   2.279   4.072   6.895
    5DOPE    C2  535   2.147   4.191   6.769
    5DOPE    HS  536   2.195   4.288   6.795
    5DOPE   O21  537   2.005   4.209   6.755
    5DOPE   C21  538   1.963   4.284   6.656
    5DOPE   O22  539   2.031   4.356   6.585
    5DOPE   C22  540   1.810   4.274   6.651
    5DOPE   H2R  541   1.773   4.374   6.683
    5DOPE   H2S  542   1.775   4.199   6.725
    5DOPE    C3  543   2.216   4.139   6.638
    5DOPE    HX  544   2.311   4.088   6.664
    5DOPE    HY  545   2.243   4.230   6.580
    5DOPE   O31  546   2.128   4.048   6.567
    5DOPE   C31  547   2.125   4.065   6.435
    5DOPE   O32  548   2.192   4.145   6.373
    5DOPE   C32  549   2.022   3.969   6.376
    5DOPE   H2X  550   2.056   3.866   6.403
    5DOPE   H2Y  551   1.924   3.986   6.426
    5DOPE   C23  552   1.753   4.239   6.512
    5DOPE   H3R  553   1.758   4.129   6.497
    5DOPE   H3S  554   1.813   4.285   6.431
    5DOPE   C24  555   1.607   4.286   6.495
    5DOPE   H4R  556   1.604   4.396   6.482
    5DOPE   H4S  557   1.552   4.261   6.589
    5DOPE   C25  558   1.533   4.218   6.379
    5DOPE   H5R  559   1.424   4.238   6.385
    5DOPE   H5S  560   1.548   4.109   6.392
    5DOPE   C26  561   1.582   4.257   6.238
    5DOPE   H6R  562   1.555   4.175   6.169
    5DOPE   H6S  563   1.693   4.267   6.238
    5DOPE   C27  564   1.520   4.386   6.183
    5DOPE   H7R  565   1.543   4.470   6.253
    5DOPE   H7S  566   1.409   4.376   6.181
    5DOPE   C28  567   1.571   4.425   6.042
    5DOPE   H8R  568   1.681   4.414   6.040
    5DOPE   H8S  569   1.550   4.532   6.026
    5DOPE   C29  570   1.504   4.347   5.931
    5DOPE   H9R  571   1.412   4.393   5.892
    5DOPE  C210  572   1.546   4.232   5.876
    5DOPE  H10R  573   1.485   4.187   5.796
    5DOPE  C211  574   1.668   4.152   5.914
    5DOPE  H11R  575   1.637   4.056   5.962
    5DOPE  H11S  576   1.729   4.206   5.990
    5DOPE  C212  577   1.761   4.117   5.797
    5DOPE  H12R  578   1.845   4.057   5.837
    5DOPE  H12S  579   1.804   4.209   5.753
    5DOPE  C213  580   1.693   4.035   5.686
    5DOPE  H13R  581   1.620   4.101   5.635
    5DOPE  H13S  582   1.638   3.950   5.730
    5DOPE  C214  583   1.795   3.981   5.585
    5DOPE  H14R  584   1.857   3.903   5.634
    5DOPE  H14S  585   1.865   4.063   5.556
    5DOPE  C215  586   1.730   3.921   5.458
    5DOPE  H15R  587   1.668   3.834   5.488
    5DOPE  H15S  588   1.812   3.883   5.393
    5DOPE  C216  589   1.644   4.019   5.376
    5DOPE  H16R  590   1.558   4.051   5.438
    5DOPE  H16S  591   1.602   3.965   5.288
    5DOPE  C217  592   1.719   4.144   5.326
    5DOPE  H17R  593   1.781   4.187   5.408
    5DOPE  H17S  594   1.644   4.221   5.301
    5DOPE  C218  595   1.806   4.119   5.203
    5DOPE  H18R  596   1.855   4.213   5.170
    5DOPE  H18S  597   1.744   4.080   5.119
    5DOPE  H18T  598   1.885   4.044   5.225
    5DOPE   C33  599   2.008   3.977   6.223
    5DOPE   H3X  600   1.966   3.880   6.190
    5DOPE   H3Y  601   2.108   3.985   6.174
    5DOPE   C34  602   1.912   4.086   6.173
    5DOPE   H4X  603   1.877   4.055   6.072
    5DOPE   H4Y  604   1.822   4.087   6.239
    5DOPE   C35  605   1.969   4.228   6.161
    5DOPE   H5X  606   1.992   4.268   6.263
    5DOPE   H5Y  607   1.891   4.294   6.117
    5DOPE   C36  608   2.097   4.242   6.076
    5DOPE   H6X  609   2.181   4.197   6.132
    5DOPE   H6Y  610   2.121   4.349   6.061
    5DOPE   C37  611   2.090   4.172   5.939
    5DOPE   H7X  612   2.063   4.065   5.956
    5DOPE   H7Y  613   2.009   4.216   5.877
    5DOPE   C38  614   2.225   4.172   5.865
    5DOPE   H8X  615   2.239   4.068   5.828
    5DOPE   H8Y  616   2.305   4.190   5.939
    5DOPE   C39  617   2.235   4.270   5.752
    5DOPE   H9X  618   2.206   4.373   5.776
    5DOPE  C310  619   2.277   4.241   5.627
    5DOPE  H10X  620   2.278   4.320   5.551
    5DOPE  C311  621   2.322   4.105   5.578
    5DOPE  H11X  622   2.402   4.117   5.502
    5DOPE  H11Y  623   2.368   4.046   5.660
    5DOPE  C312  624   2.207   4.020   5.519
    5DOPE  H12X  625   2.129   4.005   5.597
    5DOPE  H12Y  626   2.247   3.920   5.493
    5DOPE  C313  627   2.141   4.079   5.393
    5DOPE  H13X  628   2.057   4.013   5.363
    5DOPE  H13Y  629   2.097   4.178   5.418
    5DOPE  C314  630   2.236   4.094   5.274
    5DOPE  H14X  631   2.277   3.995   5.245
    5DOPE  H14Y  632   2.322   4.158   5.304
    5DOPE  C315  633   2.170   4.159   5.151
    5DOPE  H15X  634   2.116   4.250   5.186
    5DOPE  H15Y  635   2.094   4.090   5.108
    5DOPE  C316  636   2.272   4.200   5.044
    5DOPE  H16X  637   2.308   4.110   4.991
    5DOPE  H16Y  638   2.359   4.247   5.094
    5DOPE  C317  639   2.216   4.301   4.943
    5DOPE  H17X  640   2.183   4.392   4.999
    5DOPE  H17Y  641   2.298   4.334   4.876
    5DOPE  C318  642   2.100   4.248   4.858
    5DOPE  H18X  643   2.013   4.223   4.922
    5DOPE  H18Y  644   2.069   4.325   4.784
    5DOPE  H18Z  645   2.132   4.158   4.803
    6DOPE     N  646   1.821   5.296   7.030
    6DOPE   HN1  647   1.768   5.207   7.042
    6DOPE   HN2  648   1.807   5.360   7.110
    6DOPE   HN3  649   1.788   5.347   6.945
    6DOPE   C12  650   1.968   5.262   7.023
    6DOPE  H12A  651   2.001   5.240   7.126
    6DOPE  H12B  652   2.022   5.352   6.985
    6DOPE   C11  653   1.994   5.139   6.935
    6DOPE  H11A  654   2.103   5.120   6.938
    6DOPE  H11B  655   1.967   5.161   6.829
    6DOPE     P  656   1.974   4.881   6.956
    6DOPE   O13  657   2.105   4.872   7.026
    6DOPE   O14  658   1.972   4.855   6.812
    6DOPE   O11  659   1.877   4.780   7.031
    6DOPE   O12  660   1.917   5.028   6.983
    6DOPE    C1  661   1.752   4.821   7.088
    6DOPE    HA  662   1.752   4.929   7.117
    6DOPE    HB  663   1.736   4.766   7.183
    6DOPE    C2  664   1.627   4.793   6.999
    6DOPE    HS  665   1.573   4.706   7.042
    6DOPE   O21  666   1.662   4.768   6.862
    6DOPE   C21  667   1.688   4.645   6.826
    6DOPE   O22  668   1.691   4.547   6.900
    6DOPE   C22  669   1.687   4.639   6.673
    6DOPE   H2R  670   1.613   4.713   6.634
    6DOPE   H2S  671   1.651   4.538   6.645
    6DOPE    C3  672   1.530   4.914   7.001
    6DOPE    HX  673   1.509   4.937   7.108
    6DOPE    HY  674   1.433   4.884   6.956
    6DOPE   O31  675   1.589   5.030   6.937
    6DOPE   C31  676   1.570   5.033   6.805
    6DOPE   O32  677   1.494   4.961   6.742
    6DOPE   C32  678   1.657   5.143   6.748
    6DOPE   H2X  679   1.625   5.238   6.796
    6DOPE   H2Y  680   1.763   5.121   6.776
    6DOPE   C23  681   1.825   4.666   6.608
    6DOPE   H3R  682   1.906   4.629   6.673
    6DOPE   H3S  683   1.839   4.776   6.599
    6DOPE   C24  684   1.844   4.601   6.470
    6DOPE   H4R  685   1.850   4.491   6.485
    6DOPE   H4S  686   1.942   4.632   6.428
    6DOPE   C25  687   1.734   4.626   6.365
    6DOPE   H5R  688   1.633   4.617   6.411
    6DOPE   H5S  689   1.744   4.548   6.287
    6DOPE   C26  690   1.748   4.762   6.296
    6DOPE   H6R  691   1.844   4.764   6.241
    6DOPE   H6S  692   1.751   4.840   6.375
    6DOPE   C27  693   1.635   4.793   6.198
    6DOPE   H7R  694   1.541   4.805   6.257
    6DOPE   H7S  695   1.624   4.707   6.129
    6DOPE   C28  696   1.660   4.922   6.117
    6DOPE   H8R  697   1.761   4.916   6.071
    6DOPE   H8S  698   1.661   5.009   6.186
    6DOPE   C29  699   1.551   4.938   6.013
    6DOPE   H9R  700   1.449   4.930   6.054
    6DOPE  C210  701   1.565   4.959   5.881
    6DOPE  H10R  702   1.473   4.966   5.821
    6DOPE  C211  703   1.692   4.973   5.801
    6DOPE  H11R  704   1.780   4.933   5.857
    6DOPE  H11S  705   1.713   5.080   5.782
    6DOPE  C212  706   1.686   4.901   5.665
    6DOPE  H12R  707   1.660   4.794   5.679
    6DOPE  H12S  708   1.788   4.905   5.620
    6DOPE  C213  709   1.588   4.964   5.566
    6DOPE  H13R  710   1.607   5.074   5.561
    6DOPE  H13S  711   1.484   4.949   5.602
    6DOPE  C214  712   1.598   4.907   5.423
    6DOPE  H14R  713   1.575   4.798   5.425
    6DOPE  H14S  714   1.701   4.920   5.386
    6DOPE  C215  715   1.500   4.979   5.329
    6DOPE  H15R  716   1.519   5.088   5.336
    6DOPE  H15S  717   1.396   4.961   5.364
    6DOPE  C216  718   1.512   4.939   5.181
    6DOPE  H16R  719   1.617   4.955   5.146
    6DOPE  H16S  720   1.447   5.006   5.121
    6DOPE  C217  721   1.471   4.794   5.151
    6DOPE  H17R  722   1.373   4.774   5.198
    6DOPE  H17S  723   1.545   4.724   5.197
    6DOPE  C218  724   1.461   4.766   5.000
    6DOPE  H18R  725   1.425   4.662   4.982
    6DOPE  H18S  726   1.561   4.777   4.952
    6DOPE  H18T  727   1.390   4.836   4.952
    6DOPE   C33  728   1.645   5.157   6.595
    6DOPE   H3X  729   1.678   5.259   6.564
    6DOPE   H3Y  730   1.539   5.147   6.564
    6DOPE   C34  731   1.726   5.053   6.515
    6DOPE   H4X  732   1.689   4.952   6.542
    6DOPE   H4Y  733   1.703   5.069   6.408
    6DOPE   C35  734   1.878   5.058   6.533
    6DOPE   H5X  735   1.910   4.974   6.598
    6DOPE   H5Y  736   1.909   5.151   6.585
    6DOPE   C36  737   1.954   5.049   6.399
    6DOPE   H6X  738   1.932   5.138   6.336
    6DOPE   H6Y  739   1.915   4.961   6.343
    6DOPE   C37  740   2.105   5.032   6.414
    6DOPE   H7X  741   2.150   5.130   6.439
    6DOPE   H7Y  742   2.126   4.963   6.499
    6DOPE   C38  743   2.172   4.975   6.286
    6DOPE   H8X  744   2.282   4.983   6.299
    6DOPE   H8Y  745   2.144   5.040   6.200
    6DOPE   C39  746   2.134   4.831   6.264
    6DOPE   H9X  747   2.143   4.767   6.353
    6DOPE  C310  748   2.090   4.775   6.150
    6DOPE  H10X  749   2.067   4.667   6.150
    6DOPE  C311  750   2.068   4.845   6.018
    6DOPE  H11X  751   1.985   4.917   6.027
    6DOPE  H11Y  752   2.159   4.903   5.991
    6DOPE  C312  753   2.037   4.747   5.903
    6DOPE  H12X  754   2.121   4.676   5.888
    6DOPE  H12Y  755   2.029   4.807   5.810
    6DOPE  C313  756   1.906   4.668   5.920
    6DOPE  H13X  757   1.919   4.588   5.996
    6DOPE  H13Y  758   1.828   4.737   5.957
    6DOPE  C314  759   1.855   4.607   5.789
    6DOPE  H14X  760   1.853   4.687   5.711
    6DOPE  H14Y  761   1.751   4.571   5.803
    6DOPE  C315  762   1.940   4.490   5.737
    6DOPE  H15X  763   1.937   4.409   5.814
    6DOPE  H15Y  764   2.045   4.523   5.727
    6DOPE  C316  765   1.892   4.433   5.602
    6DOPE  H16X  766   1.785   4.405   5.610
    6DOPE  H16Y  767   1.950   4.341   5.581
    6DOPE  C317  768   1.912   4.531   5.486
    6DOPE  H17X  769   1.848   4.621   5.501
    6DOPE  H17Y  770   2.017   4.564   5.486
    6DOPE  C318  771   1.879   4.470   5.349
    6DOPE  H18X  772   1.772   4.439   5.345
    6DOPE  H18Y  773   1.897   4.544   5.268
    6DOPE  H18Z  774   1.942   4.381   5.330
    7DOPE     N  775   4.921   5.746   7.156
    7DOPE   HN1  776   4.982   5.662   7.148
    7DOPE   HN2  777   4.977   5.831   7.177
    7DOPE   HN3  778   4.859   5.728   7.237
    7DOPE   C12  779   4.842   5.758   7.028
    7DOPE  H12A  780   4.756   5.689   7.037
    7DOPE  H12B  781   4.907   5.724   6.945
    7DOPE   C11  782   4.794   5.901   7.001
    7DOPE  H11A  783   4.883   5.966   6.981
    7DOPE  H11B  784   4.743   5.944   7.090
    7DOPE     P  785   4.554   5.880   6.895
    7DOPE   O13  786   4.482   6.002   6.855
    7DOPE   O14  787   4.524   5.832   7.033
    7DOPE   O11  788   4.522   5.764   6.796
    7DOPE   O12  789   4.711   5.902   6.885
    7DOPE    C1  790   4.608   5.654   6.767
    7DOPE    HA  791   4.557   5.561   6.801
    7DOPE    HB  792   4.706   5.659   6.819
    7DOPE    C2  793   4.635   5.639   6.614
    7DOPE    HS  794   4.618   5.532   6.592
    7DOPE   O21  795   4.773   5.674   6.589
    7DOPE   C21  796   4.821   5.623   6.476
    7DOPE   O22  797   4.763   5.539   6.409
    7DOPE   C22  798   4.957   5.686   6.447
    7DOPE   H2R  799   5.021   5.669   6.537
    7DOPE   H2S  800   4.942   5.795   6.435
    7DOPE    C3  801   4.538   5.722   6.524
    7DOPE    HX  802   4.436   5.710   6.566
    7DOPE    HY  803   4.535   5.675   6.423
    7DOPE   O31  804   4.571   5.863   6.521
    7DOPE   C31  805   4.643   5.903   6.417
    7DOPE   O32  806   4.669   5.835   6.319
    7DOPE   C32  807   4.702   6.042   6.443
    7DOPE   H2X  808   4.670   6.076   6.544
    7DOPE   H2Y  809   4.812   6.030   6.444
    7DOPE   C23  810   5.028   5.628   6.322
    7DOPE   H3R  811   5.036   5.518   6.331
    7DOPE   H3S  812   5.131   5.669   6.319
    7DOPE   C24  813   4.959   5.664   6.190
    7DOPE   H4R  814   4.955   5.775   6.177
    7DOPE   H4S  815   4.854   5.628   6.192
    7DOPE   C25  816   5.029   5.600   6.069
    7DOPE   H5R  817   5.035   5.491   6.088
    7DOPE   H5S  818   5.133   5.638   6.061
    7DOPE   C26  819   4.954   5.622   5.937
    7DOPE   H6R  820   4.962   5.728   5.905
    7DOPE   H6S  821   4.846   5.603   5.957
    7DOPE   C27  822   4.999   5.526   5.826
    7DOPE   H7R  823   4.923   5.524   5.745
    7DOPE   H7S  824   5.005   5.424   5.868
    7DOPE   C28  825   5.135   5.562   5.765
    7DOPE   H8R  826   5.177   5.472   5.715
    7DOPE   H8S  827   5.205   5.588   5.847
    7DOPE   C29  828   5.126   5.677   5.668
    7DOPE   H9R  829   5.139   5.777   5.714
    7DOPE  C210  830   5.105   5.669   5.536
    7DOPE  H10R  831   5.101   5.762   5.477
    7DOPE  C211  832   5.085   5.543   5.454
    7DOPE  H11R  833   5.101   5.451   5.515
    7DOPE  H11S  834   5.161   5.540   5.373
    7DOPE  C212  835   4.945   5.532   5.390
    7DOPE  H12R  836   4.869   5.515   5.469
    7DOPE  H12S  837   4.943   5.441   5.325
    7DOPE  C213  838   4.904   5.655   5.307
    7DOPE  H13R  839   4.994   5.714   5.280
    7DOPE  H13S  840   4.842   5.719   5.374
    7DOPE  C214  841   4.825   5.626   5.178
    7DOPE  H14R  842   4.750   5.708   5.168
    7DOPE  H14S  843   4.768   5.530   5.187
    7DOPE  C215  844   4.910   5.627   5.050
    7DOPE  H15R  845   4.965   5.531   5.039
    7DOPE  H15S  846   4.985   5.708   5.061
    7DOPE  C216  847   4.830   5.655   4.921
    7DOPE  H16R  848   4.749   5.726   4.947
    7DOPE  H16S  849   4.782   5.562   4.884
    7DOPE  C217  850   4.912   5.723   4.809
    7DOPE  H17R  851   4.974   5.804   4.853
    7DOPE  H17S  852   4.841   5.773   4.740
    7DOPE  C218  853   5.000   5.631   4.725
    7DOPE  H18R  854   5.053   5.688   4.646
    7DOPE  H18S  855   4.938   5.553   4.676
    7DOPE  H18T  856   5.076   5.580   4.788
    7DOPE   C33  857   4.664   6.149   6.337
    7DOPE   H3X  858   4.727   6.239   6.355
    7DOPE   H3Y  859   4.558   6.181   6.352
    7DOPE   C34  860   4.682   6.103   6.192
    7DOPE   H4X  861   4.777   6.045   6.182
    7DOPE   H4Y  862   4.599   6.035   6.166
    7DOPE   C35  863   4.686   6.218   6.090
    7DOPE   H5X  864   4.787   6.264   6.091
    7DOPE   H5Y  865   4.613   6.296   6.120
    7DOPE   C36  866   4.651   6.170   5.949
    7DOPE   H6X  867   4.542   6.149   5.946
    7DOPE   H6Y  868   4.704   6.075   5.927
    7DOPE   C37  869   4.686   6.273   5.840
    7DOPE   H7X  870   4.679   6.374   5.885
    7DOPE   H7Y  871   4.791   6.258   5.807
    7DOPE   C38  872   4.591   6.269   5.718
    7DOPE   H8X  873   4.620   6.352   5.650
    7DOPE   H8Y  874   4.488   6.293   5.754
    7DOPE   C39  875   4.588   6.136   5.648
    7DOPE   H9X  876   4.588   6.048   5.715
    7DOPE  C310  877   4.585   6.115   5.515
    7DOPE  H10X  878   4.582   6.011   5.479
    7DOPE  C311  879   4.583   6.218   5.405
    7DOPE  H11X  880   4.610   6.319   5.443
    7DOPE  H11Y  881   4.659   6.194   5.328
    7DOPE  C312  882   4.444   6.229   5.338
    7DOPE  H12X  883   4.450   6.301   5.254
    7DOPE  H12Y  884   4.373   6.270   5.413
    7DOPE  C313  885   4.385   6.096   5.287
    7DOPE  H13X  886   4.376   6.026   5.372
    7DOPE  H13Y  887   4.282   6.114   5.249
    7DOPE  C314  888   4.466   6.029   5.175
    7DOPE  H14X  889   4.573   6.057   5.183
    7DOPE  H14Y  890   4.432   6.068   5.077
    7DOPE  C315  891   4.453   5.876   5.179
    7DOPE  H15X  892   4.349   5.851   5.210
    7DOPE  H15Y  893   4.521   5.836   5.257
    7DOPE  C316  894   4.479   5.808   5.045
    7DOPE  H16X  895   4.578   5.840   5.005
    7DOPE  H16Y  896   4.402   5.841   4.973
    7DOPE  C317  897   4.475   5.654   5.054
    7DOPE  H17X  898   4.578   5.615   5.066
    7DOPE  H17Y  899   4.419   5.625   5.145
    7DOPE  C318  900   4.410   5.586   4.933
    7DOPE  H18X  901   4.465   5.610   4.840
    7DOPE  H18Y  902   4.409   5.476   4.946
    7DOPE  H18Z  903   4.305   5.620   4.921
    8DOPE     N  904   5.388   5.671   7.148
    8DOPE   HN1  905   5.308   5.684   7.213
    8DOPE   HN2  906   5.392   5.570   7.123
    8DOPE   HN3  907   5.475   5.699   7.197
    8DOPE   C12  908   5.372   5.751   7.021
    8DOPE  H12A  909   5.473   5.762   6.976
    8DOPE  H12B  910   5.333   5.851   7.049
    8DOPE   C11  911   5.281   5.680   6.919
    8DOPE  H11A  912   5.268   5.750   6.834
    8DOPE  H11B  913   5.180   5.661   6.961
    8DOPE     P  914   5.311   5.418   6.925
    8DOPE   O13  915   5.168   5.389   6.902
    8DOPE   O14  916   5.353   5.419   7.068
    8DOPE   O11  917   5.410   5.325   6.844
    8DOPE   O12  918   5.344   5.562   6.870
    8DOPE    C1  919   5.543   5.313   6.899
    8DOPE    HA  920   5.542   5.243   6.985
    8DOPE    HB  921   5.583   5.410   6.936
    8DOPE    C2  922   5.650   5.257   6.800
    8DOPE    HS  923   5.748   5.259   6.852
    8DOPE   O21  924   5.656   5.335   6.679
    8DOPE   C21  925   5.713   5.454   6.689
    8DOPE   O22  926   5.751   5.508   6.792
    8DOPE   C22  927   5.726   5.516   6.550
    8DOPE   H2R  928   5.804   5.594   6.556
    8DOPE   H2S  929   5.629   5.564   6.526
    8DOPE    C3  930   5.624   5.107   6.763
    8DOPE    HX  931   5.606   5.053   6.858
    8DOPE    HY  932   5.716   5.065   6.719
    8DOPE   O31  933   5.508   5.089   6.679
    8DOPE   C31  934   5.534   5.091   6.548
    8DOPE   O32  935   5.645   5.087   6.498
    8DOPE   C32  936   5.403   5.091   6.469
    8DOPE   H2X  937   5.396   4.991   6.421
    8DOPE   H2Y  938   5.317   5.104   6.537
    8DOPE   C23  939   5.764   5.415   6.439
    8DOPE   H3R  940   5.683   5.339   6.431
    8DOPE   H3S  941   5.857   5.361   6.467
    8DOPE   C24  942   5.782   5.480   6.301
    8DOPE   H4R  943   5.881   5.531   6.296
    8DOPE   H4S  944   5.704   5.558   6.289
    8DOPE   C25  945   5.768   5.380   6.186
    8DOPE   H5R  946   5.753   5.435   6.090
    8DOPE   H5S  947   5.676   5.320   6.204
    8DOPE   C26  948   5.887   5.285   6.170
    8DOPE   H6R  949   5.940   5.278   6.268
    8DOPE   H6S  950   5.959   5.326   6.096
    8DOPE   C27  951   5.846   5.143   6.130
    8DOPE   H7R  952   5.774   5.106   6.207
    8DOPE   H7S  953   5.935   5.077   6.135
    8DOPE   C28  954   5.783   5.132   5.990
    8DOPE   H8R  955   5.862   5.149   5.914
    8DOPE   H8S  956   5.709   5.215   5.978
    8DOPE   C29  957   5.718   4.998   5.970
    8DOPE   H9R  958   5.786   4.916   5.944
    8DOPE  C210  959   5.587   4.970   5.984
    8DOPE  H10R  960   5.552   4.867   5.966
    8DOPE  C211  961   5.480   5.069   6.022
    8DOPE  H11R  962   5.524   5.152   6.081
    8DOPE  H11S  963   5.405   5.020   6.088
    8DOPE  C212  964   5.409   5.128   5.899
    8DOPE  H12R  965   5.484   5.175   5.833
    8DOPE  H12S  966   5.339   5.207   5.933
    8DOPE  C213  967   5.329   5.022   5.821
    8DOPE  H13R  968   5.255   4.977   5.891
    8DOPE  H13S  969   5.397   4.941   5.787
    8DOPE  C214  970   5.255   5.076   5.699
    8DOPE  H14R  971   5.188   5.159   5.729
    8DOPE  H14S  972   5.192   4.993   5.660
    8DOPE  C215  973   5.348   5.123   5.586
    8DOPE  H15R  974   5.417   5.041   5.560
    8DOPE  H15S  975   5.409   5.208   5.622
    8DOPE  C216  976   5.274   5.168   5.457
    8DOPE  H16R  977   5.352   5.201   5.385
    8DOPE  H16S  978   5.210   5.256   5.479
    8DOPE  C217  979   5.190   5.058   5.391
    8DOPE  H17R  980   5.234   4.958   5.415
    8DOPE  H17S  981   5.197   5.070   5.281
    8DOPE  C218  982   5.041   5.060   5.429
    8DOPE  H18R  983   4.995   5.155   5.395
    8DOPE  H18S  984   5.027   5.052   5.538
    8DOPE  H18T  985   4.988   4.976   5.380
    8DOPE   C33  986   5.402   5.199   6.358
    8DOPE   H3X  987   5.336   5.166   6.275
    8DOPE   H3Y  988   5.504   5.210   6.316
    8DOPE   C34  989   5.351   5.335   6.407
    8DOPE   H4X  990   5.240   5.332   6.413
    8DOPE   H4Y  991   5.388   5.354   6.510
    8DOPE   C35  992   5.394   5.454   6.319
    8DOPE   H5X  993   5.501   5.474   6.339
    8DOPE   H5Y  994   5.337   5.545   6.348
    8DOPE   C36  995   5.379   5.430   6.168
    8DOPE   H6X  996   5.273   5.410   6.142
    8DOPE   H6Y  997   5.438   5.341   6.140
    8DOPE   C37  998   5.432   5.547   6.083
    8DOPE   H7X  999   5.361   5.632   6.091
    8DOPE   H7Y 1000   5.530   5.580   6.124
    8DOPE   C38 1001   5.453   5.506   5.936
    8DOPE   H8X 1002   5.362   5.453   5.901
    8DOPE   H8Y 1003   5.535   5.431   5.934
    8DOPE   C39 1004   5.483   5.624   5.847
    8DOPE   H9X 1005   5.421   5.713   5.866
    8DOPE  C310 1006   5.574   5.629   5.748
    8DOPE  H10X 1007   5.587   5.722   5.691
    8DOPE  C311 1008   5.664   5.515   5.708
    8DOPE  H11X 1009   5.615   5.417   5.727
    8DOPE  H11Y 1010   5.684   5.518   5.599
    8DOPE  C312 1011   5.798   5.517   5.784
    8DOPE  H12X 1012   5.777   5.517   5.893
    8DOPE  H12Y 1013   5.854   5.610   5.760
    8DOPE  C313 1014   5.884   5.393   5.752
    8DOPE  H13X 1015   5.960   5.380   5.832
    8DOPE  H13Y 1016   5.818   5.304   5.754
    8DOPE  C314 1017   5.955   5.401   5.616
    8DOPE  H14X 1018   6.060   5.434   5.634
    8DOPE  H14Y 1019   5.908   5.479   5.553
    8DOPE  C315 1020   5.956   5.268   5.540
    8DOPE  H15X 1021   5.984   5.187   5.610
    8DOPE  H15Y 1022   6.035   5.272   5.462
    8DOPE  C316 1023   5.822   5.234   5.473
    8DOPE  H16X 1024   5.743   5.232   5.551
    8DOPE  H16Y 1025   5.829   5.132   5.431
    8DOPE  C317 1026   5.779   5.330   5.360
    8DOPE  H17X 1027   5.679   5.298   5.323
    8DOPE  H17Y 1028   5.765   5.432   5.402
    8DOPE  C318 1029   5.876   5.338   5.242
    8DOPE  H18X 1030   5.974   5.379   5.274
    8DOPE  H18Y 1031   5.835   5.405   5.163
    8DOPE  H18Z 1032   5.892   5.238   5.198
    9DOPE     N 1033   1.209   4.543   6.787
    9DOPE   HN1 1034   1.248   4.505   6.698
    9DOPE   HN2 1035   1.108   4.564   6.776
    9DOPE   HN3 1036   1.254   4.633   6.812
    9DOPE   C12 1037   1.232   4.455   6.907
    9DOPE  H12A 1038   1.272   4.357   6.874
    9DOPE  H12B 1039   1.133   4.438   6.955
    9DOPE   C11 1040   1.327   4.526   7.006
    9DOPE  H11A 1041   1.431   4.505   6.974
    9DOPE  H11B 1042   1.315   4.481   7.107
    9DOPE     P 1043   1.190   4.738   7.085
    9DOPE   O13 1044   1.196   4.885   7.067
    9DOPE   O14 1045   1.181   4.686   7.223
    9DOPE   O11 1046   1.072   4.680   7.000
    9DOPE   O12 1047   1.311   4.669   7.009
    9DOPE    C1 1048   0.958   4.622   7.063
    9DOPE    HA 1049   0.912   4.692   7.136
    9DOPE    HB 1050   0.986   4.529   7.118
    9DOPE    C2 1051   0.850   4.585   6.959
    9DOPE    HS 1052   0.766   4.537   7.015
    9DOPE   O21 1053   0.905   4.489   6.865
    9DOPE   C21 1054   0.811   4.432   6.788
    9DOPE   O22 1055   0.691   4.443   6.807
    9DOPE   C22 1056   0.873   4.350   6.675
    9DOPE   H2R 1057   0.791   4.285   6.637
    9DOPE   H2S 1058   0.953   4.284   6.716
    9DOPE    C3 1059   0.791   4.714   6.889
    9DOPE    HX 1060   0.723   4.759   6.963
    9DOPE    HY 1061   0.727   4.684   6.803
    9DOPE   O31 1062   0.884   4.818   6.849
    9DOPE   C31 1063   0.970   4.788   6.752
    9DOPE   O32 1064   0.987   4.678   6.704
    9DOPE   C32 1065   1.048   4.910   6.706
    9DOPE   H2X 1066   0.977   4.989   6.675
    9DOPE   H2Y 1067   1.108   4.946   6.792
    9DOPE   C23 1068   0.924   4.434   6.556
    9DOPE   H3R 1069   1.019   4.485   6.582
    9DOPE   H3S 1070   0.848   4.511   6.531
    9DOPE   C24 1071   0.951   4.352   6.429
    9DOPE   H4R 1072   0.965   4.424   6.345
    9DOPE   H4S 1073   0.863   4.289   6.405
    9DOPE   C25 1074   1.077   4.265   6.439
    9DOPE   H5R 1075   1.065   4.195   6.525
    9DOPE   H5S 1076   1.165   4.328   6.460
    9DOPE   C26 1077   1.104   4.182   6.313
    9DOPE   H6R 1078   1.013   4.124   6.283
    9DOPE   H6S 1079   1.181   4.107   6.339
    9DOPE   C27 1080   1.157   4.265   6.195
    9DOPE   H7R 1081   1.237   4.207   6.143
    9DOPE   H7S 1082   1.205   4.357   6.236
    9DOPE   C28 1083   1.052   4.307   6.090
    9DOPE   H8R 1084   1.102   4.378   6.020
    9DOPE   H8S 1085   0.971   4.364   6.139
    9DOPE   C29 1086   0.995   4.191   6.014
    9DOPE   H9R 1087   0.906   4.144   6.059
    9DOPE  C210 1088   1.046   4.137   5.901
    9DOPE  H10R 1089   0.994   4.052   5.854
    9DOPE  C211 1090   1.170   4.181   5.829
    9DOPE  H11R 1091   1.231   4.092   5.805
    9DOPE  H11S 1092   1.234   4.247   5.892
    9DOPE  C212 1093   1.139   4.255   5.698
    9DOPE  H12R 1094   1.100   4.357   5.720
    9DOPE  H12S 1095   1.061   4.201   5.641
    9DOPE  C213 1096   1.264   4.266   5.609
    9DOPE  H13R 1097   1.306   4.165   5.594
    9DOPE  H13S 1098   1.341   4.327   5.662
    9DOPE  C214 1099   1.237   4.329   5.472
    9DOPE  H14R 1100   1.202   4.433   5.484
    9DOPE  H14S 1101   1.155   4.272   5.421
    9DOPE  C215 1102   1.362   4.327   5.383
    9DOPE  H15R 1103   1.387   4.221   5.361
    9DOPE  H15S 1104   1.447   4.370   5.440
    9DOPE  C216 1105   1.344   4.406   5.253
    9DOPE  H16R 1106   1.328   4.513   5.279
    9DOPE  H16S 1107   1.253   4.370   5.200
    9DOPE  C217 1108   1.465   4.394   5.160
    9DOPE  H17R 1109   1.557   4.412   5.219
    9DOPE  H17S 1110   1.459   4.474   5.084
    9DOPE  C218 1111   1.475   4.259   5.088
    9DOPE  H18R 1112   1.473   4.174   5.160
    9DOPE  H18S 1113   1.570   4.253   5.031
    9DOPE  H18T 1114   1.391   4.246   5.017
    9DOPE   C33 1115   1.142   4.873   6.587
    9DOPE   H3X 1116   1.212   4.791   6.615
    9DOPE   H3Y 1117   1.206   4.962   6.566
    9DOPE   C34 1118   1.068   4.838   6.457
    9DOPE   H4X 1119   1.010   4.744   6.469
    9DOPE   H4Y 1120   0.993   4.918   6.438
    9DOPE   C35 1121   1.159   4.825   6.334
    9DOPE   H5X 1122   1.257   4.872   6.354
    9DOPE   H5Y 1123   1.112   4.881   6.250
    9DOPE   C36 1124   1.178   4.679   6.287
    9DOPE   H6X 1125   1.079   4.637   6.261
    9DOPE   H6Y 1126   1.217   4.620   6.373
    9DOPE   C37 1127   1.274   4.662   6.168
    9DOPE   H7X 1128   1.374   4.699   6.201
    9DOPE   H7Y 1129   1.286   4.554   6.146
    9DOPE   C38 1130   1.236   4.737   6.039
    9DOPE   H8X 1131   1.323   4.732   5.970
    9DOPE   H8Y 1132   1.218   4.844   6.061
    9DOPE   C39 1133   1.115   4.675   5.973
    9DOPE   H9X 1134   1.052   4.614   6.039
    9DOPE  C310 1135   1.078   4.689   5.845
    9DOPE  H10X 1136   0.987   4.638   5.811
    9DOPE  C311 1137   1.148   4.768   5.736
    9DOPE  H11X 1138   1.092   4.863   5.719
    9DOPE  H11Y 1139   1.252   4.796   5.763
    9DOPE  C312 1140   1.150   4.686   5.606
    9DOPE  H12X 1141   1.047   4.649   5.583
    9DOPE  H12Y 1142   1.215   4.598   5.621
    9DOPE  C313 1143   1.198   4.763   5.482
    9DOPE  H13X 1144   1.304   4.792   5.494
    9DOPE  H13Y 1145   1.192   4.694   5.395
    9DOPE  C314 1146   1.114   4.888   5.449
    9DOPE  H14X 1147   1.153   4.974   5.507
    9DOPE  H14Y 1148   1.009   4.871   5.482
    9DOPE  C315 1149   1.111   4.920   5.299
    9DOPE  H15X 1150   1.051   4.843   5.247
    9DOPE  H15Y 1151   1.215   4.915   5.259
    9DOPE  C316 1152   1.054   5.059   5.267
    9DOPE  H16X 1153   1.128   5.136   5.300
    9DOPE  H16Y 1154   0.961   5.075   5.326
    9DOPE  C317 1155   1.024   5.080   5.118
    9DOPE  H17X 1156   0.934   5.019   5.092
    9DOPE  H17Y 1157   0.997   5.186   5.102
    9DOPE  C318 1158   1.138   5.040   5.023
    9DOPE  H18X 1159   1.232   5.091   5.053
    9DOPE  H18Y 1160   1.155   4.931   5.025
    9DOPE  H18Z 1161   1.114   5.070   4.919
   10DOPE     N 1162   2.123   6.161   7.052
   10DOPE   HN1 1163   2.029   6.164   7.098
   10DOPE   HN2 1164   2.182   6.102   7.114
   10DOPE   HN3 1165   2.158   6.259   7.049
   10DOPE   C12 1166   2.109   6.097   6.917
   10DOPE  H12A 1167   2.210   6.095   6.869
   10DOPE  H12B 1168   2.041   6.160   6.857
   10DOPE   C11 1169   2.052   5.954   6.931
   10DOPE  H11A 1170   2.127   5.890   6.981
   10DOPE  H11B 1171   2.034   5.912   6.829
   10DOPE     P 1172   1.851   5.831   7.049
   10DOPE   O13 1173   1.787   5.859   7.179
   10DOPE   O14 1174   1.938   5.712   7.044
   10DOPE   O11 1175   1.739   5.819   6.938
   10DOPE   O12 1176   1.931   5.960   7.006
   10DOPE    C1 1177   1.608   5.769   6.972
   10DOPE    HA 1178   1.547   5.850   7.017
   10DOPE    HB 1179   1.615   5.688   7.048
   10DOPE    C2 1180   1.530   5.707   6.851
   10DOPE    HS 1181   1.479   5.615   6.888
   10DOPE   O21 1182   1.623   5.672   6.747
   10DOPE   C21 1183   1.721   5.590   6.781
   10DOPE   O22 1184   1.715   5.498   6.862
   10DOPE   C22 1185   1.847   5.632   6.703
   10DOPE   H2R 1186   1.883   5.726   6.751
   10DOPE   H2S 1187   1.819   5.657   6.598
   10DOPE    C3 1188   1.412   5.799   6.794
   10DOPE    HX 1189   1.341   5.816   6.878
   10DOPE    HY 1190   1.361   5.736   6.718
   10DOPE   O31 1191   1.450   5.927   6.737
   10DOPE   C31 1192   1.357   5.989   6.662
   10DOPE   O32 1193   1.243   5.950   6.647
   10DOPE   C32 1194   1.413   6.117   6.592
   10DOPE   H2X 1195   1.346   6.201   6.619
   10DOPE   H2Y 1196   1.514   6.137   6.635
   10DOPE   C23 1197   1.962   5.531   6.698
   10DOPE   H3R 1198   1.996   5.506   6.801
   10DOPE   H3S 1199   2.046   5.583   6.647
   10DOPE   C24 1200   1.930   5.404   6.619
   10DOPE   H4R 1201   1.856   5.346   6.678
   10DOPE   H4S 1202   2.021   5.342   6.611
   10DOPE   C25 1203   1.872   5.424   6.477
   10DOPE   H5R 1204   1.778   5.483   6.480
   10DOPE   H5S 1205   1.844   5.323   6.439
   10DOPE   C26 1206   1.968   5.483   6.373
   10DOPE   H6R 1207   2.071   5.447   6.395
   10DOPE   H6S 1208   1.969   5.594   6.380
   10DOPE   C27 1209   1.934   5.438   6.229
   10DOPE   H7R 1210   1.934   5.327   6.228
   10DOPE   H7S 1211   2.015   5.470   6.159
   10DOPE   C28 1212   1.797   5.485   6.176
   10DOPE   H8R 1213   1.722   5.481   6.258
   10DOPE   H8S 1214   1.763   5.413   6.099
   10DOPE   C29 1215   1.805   5.625   6.120
   10DOPE   H9R 1216   1.866   5.695   6.179
   10DOPE  C210 1217   1.745   5.671   6.008
   10DOPE  H10R 1218   1.762   5.775   5.978
   10DOPE  C211 1219   1.656   5.592   5.916
   10DOPE  H11R 1220   1.595   5.661   5.854
   10DOPE  H11S 1221   1.585   5.529   5.974
   10DOPE  C212 1222   1.734   5.498   5.821
   10DOPE  H12R 1223   1.661   5.446   5.757
   10DOPE  H12S 1224   1.788   5.421   5.880
   10DOPE  C213 1225   1.837   5.571   5.732
   10DOPE  H13R 1226   1.908   5.627   5.795
   10DOPE  H13S 1227   1.783   5.645   5.668
   10DOPE  C214 1228   1.917   5.475   5.642
   10DOPE  H14R 1229   1.974   5.404   5.706
   10DOPE  H14S 1230   1.991   5.534   5.584
   10DOPE  C215 1231   1.829   5.396   5.545
   10DOPE  H15R 1232   1.758   5.466   5.497
   10DOPE  H15S 1233   1.769   5.321   5.601
   10DOPE  C216 1234   1.910   5.324   5.437
   10DOPE  H16R 1235   1.990   5.264   5.485
   10DOPE  H16S 1236   1.959   5.400   5.372
   10DOPE  C217 1237   1.825   5.231   5.348
   10DOPE  H17R 1238   1.792   5.144   5.409
   10DOPE  H17S 1239   1.889   5.192   5.266
   10DOPE  C218 1240   1.701   5.299   5.288
   10DOPE  H18R 1241   1.626   5.322   5.367
   10DOPE  H18S 1242   1.653   5.232   5.213
   10DOPE  H18T 1243   1.729   5.394   5.238
   10DOPE   C33 1244   1.425   6.108   6.436
   10DOPE   H3X 1245   1.324   6.127   6.395
   10DOPE   H3Y 1246   1.452   6.003   6.412
   10DOPE   C34 1247   1.523   6.196   6.352
   10DOPE   H4X 1248   1.509   6.168   6.246
   10DOPE   H4Y 1249   1.487   6.301   6.361
   10DOPE   C35 1250   1.674   6.197   6.381
   10DOPE   H5X 1251   1.695   6.166   6.486
   10DOPE   H5Y 1252   1.708   6.302   6.374
   10DOPE   C36 1253   1.771   6.126   6.283
   10DOPE   H6X 1254   1.732   6.133   6.179
   10DOPE   H6Y 1255   1.782   6.019   6.309
   10DOPE   C37 1256   1.912   6.188   6.288
   10DOPE   H7X 1257   1.907   6.288   6.241
   10DOPE   H7Y 1258   1.941   6.203   6.394
   10DOPE   C38 1259   2.021   6.105   6.216
   10DOPE   H8X 1260   2.108   6.173   6.199
   10DOPE   H8Y 1261   1.983   6.077   6.115
   10DOPE   C39 1262   2.069   5.985   6.295
   10DOPE   H9X 1263   2.072   6.001   6.404
   10DOPE  C310 1264   2.102   5.864   6.247
   10DOPE  H10X 1265   2.136   5.787   6.319
   10DOPE  C311 1266   2.099   5.820   6.103
   10DOPE  H11X 1267   2.075   5.712   6.097
   10DOPE  H11Y 1268   2.017   5.873   6.050
   10DOPE  C312 1269   2.231   5.842   6.026
   10DOPE  H12X 1270   2.312   5.783   6.075
   10DOPE  H12Y 1271   2.259   5.949   6.032
   10DOPE  C313 1272   2.222   5.801   5.878
   10DOPE  H13X 1273   2.322   5.813   5.831
   10DOPE  H13Y 1274   2.194   5.694   5.871
   10DOPE  C314 1275   2.121   5.885   5.799
   10DOPE  H14X 1276   2.146   5.992   5.810
   10DOPE  H14Y 1277   2.019   5.869   5.841
   10DOPE  C315 1278   2.114   5.850   5.649
   10DOPE  H15X 1279   2.096   5.740   5.639
   10DOPE  H15Y 1280   2.211   5.874   5.601
   10DOPE  C316 1281   2.001   5.927   5.579
   10DOPE  H16X 1282   2.019   6.036   5.594
   10DOPE  H16Y 1283   1.905   5.902   5.629
   10DOPE  C317 1284   1.989   5.899   5.429
   10DOPE  H17X 1285   1.911   5.968   5.389
   10DOPE  H17Y 1286   2.085   5.924   5.379
   10DOPE  C318 1287   1.948   5.756   5.393
   10DOPE  H18X 1288   2.029   5.684   5.421
   10DOPE  H18Y 1289   1.855   5.727   5.446
   10DOPE  H18Z 1290   1.930   5.746   5.284
   11DOPE     N 1291   1.589   2.835   7.180
   11DOPE   HN1 1292   1.547   2.790   7.264
   11DOPE   HN2 1293   1.690   2.852   7.199
   11DOPE   HN3 1294   1.540   2.926   7.163
   11DOPE   C12 1295   1.571   2.760   7.052
   11DOPE  H12A 1296   1.475   2.704   7.059
   11DOPE  H12B 1297   1.654   2.687   7.040
   11DOPE   C11 1298   1.567   2.861   6.937
   11DOPE  H11A 1299   1.534   2.809   6.844
   11DOPE  H11B 1300   1.669   2.900   6.919
   11DOPE     P 1301   1.388   3.043   6.865
   11DOPE   O13 1302   1.474   3.101   6.761
   11DOPE   O14 1303   1.303   3.138   6.940
   11DOPE   O11 1304   1.303   2.924   6.805
   11DOPE   O12 1305   1.482   2.971   6.972
   11DOPE    C1 1306   1.235   2.832   6.892
   11DOPE    HA 1307   1.178   2.885   6.971
   11DOPE    HB 1308   1.310   2.766   6.942
   11DOPE    C2 1309   1.137   2.737   6.816
   11DOPE    HS 1310   1.124   2.644   6.875
   11DOPE   O21 1311   1.184   2.706   6.684
   11DOPE   C21 1312   1.304   2.656   6.668
   11DOPE   O22 1313   1.375   2.607   6.755
   11DOPE   C22 1314   1.335   2.663   6.518
   11DOPE   H2R 1315   1.369   2.766   6.495
   11DOPE   H2S 1316   1.240   2.644   6.465
   11DOPE    C3 1317   0.997   2.803   6.801
   11DOPE    HX 1318   0.957   2.820   6.903
   11DOPE    HY 1319   0.929   2.733   6.749
   11DOPE   O31 1320   1.006   2.931   6.735
   11DOPE   C31 1321   1.011   2.926   6.602
   11DOPE   O32 1322   0.974   2.833   6.533
   11DOPE   C32 1323   1.073   3.055   6.550
   11DOPE   H2X 1324   1.004   3.139   6.573
   11DOPE   H2Y 1325   1.168   3.072   6.605
   11DOPE   C23 1326   1.440   2.560   6.470
   11DOPE   H3R 1327   1.427   2.465   6.526
   11DOPE   H3S 1328   1.542   2.598   6.493
   11DOPE   C24 1329   1.429   2.525   6.321
   11DOPE   H4R 1330   1.337   2.465   6.304
   11DOPE   H4S 1331   1.514   2.460   6.295
   11DOPE   C25 1332   1.426   2.646   6.226
   11DOPE   H5R 1333   1.484   2.618   6.135
   11DOPE   H5S 1334   1.477   2.733   6.273
   11DOPE   C26 1335   1.285   2.684   6.178
   11DOPE   H6R 1336   1.225   2.723   6.263
   11DOPE   H6S 1337   1.235   2.592   6.141
   11DOPE   C27 1338   1.288   2.789   6.066
   11DOPE   H7R 1339   1.348   2.751   5.981
   11DOPE   H7S 1340   1.338   2.880   6.105
   11DOPE   C28 1341   1.148   2.829   6.016
   11DOPE   H8R 1342   1.161   2.910   5.941
   11DOPE   H8S 1343   1.091   2.874   6.100
   11DOPE   C29 1344   1.071   2.713   5.958
   11DOPE   H9R 1345   1.000   2.667   6.027
   11DOPE  C210 1346   1.085   2.662   5.834
   11DOPE  H10R 1347   1.024   2.574   5.806
   11DOPE  C211 1348   1.179   2.709   5.726
   11DOPE  H11R 1349   1.228   2.805   5.751
   11DOPE  H11S 1350   1.120   2.726   5.633
   11DOPE  C212 1351   1.290   2.606   5.695
   11DOPE  H12R 1352   1.246   2.505   5.684
   11DOPE  H12S 1353   1.362   2.604   5.779
   11DOPE  C213 1354   1.363   2.640   5.564
   11DOPE  H13R 1355   1.400   2.744   5.567
   11DOPE  H13S 1356   1.289   2.634   5.481
   11DOPE  C214 1357   1.481   2.546   5.534
   11DOPE  H14R 1358   1.455   2.442   5.563
   11DOPE  H14S 1359   1.567   2.577   5.596
   11DOPE  C215 1360   1.520   2.547   5.385
   11DOPE  H15R 1361   1.625   2.513   5.374
   11DOPE  H15S 1362   1.513   2.651   5.348
   11DOPE  C216 1363   1.429   2.455   5.301
   11DOPE  H16R 1364   1.324   2.467   5.335
   11DOPE  H16S 1365   1.459   2.350   5.321
   11DOPE  C217 1366   1.433   2.481   5.150
   11DOPE  H17R 1367   1.388   2.580   5.130
   11DOPE  H17S 1368   1.369   2.405   5.100
   11DOPE  C218 1369   1.573   2.476   5.087
   11DOPE  H18R 1370   1.636   2.559   5.125
   11DOPE  H18S 1371   1.566   2.486   4.976
   11DOPE  H18T 1372   1.623   2.380   5.110
   11DOPE   C33 1373   1.101   3.048   6.398
   11DOPE   H3X 1374   1.007   3.026   6.343
   11DOPE   H3Y 1375   1.172   2.965   6.377
   11DOPE   C34 1376   1.161   3.179   6.345
   11DOPE   H4X 1377   1.096   3.264   6.375
   11DOPE   H4Y 1378   1.260   3.195   6.393
   11DOPE   C35 1379   1.178   3.178   6.193
   11DOPE   H5X 1380   1.079   3.168   6.143
   11DOPE   H5Y 1381   1.237   3.088   6.166
   11DOPE   C36 1382   1.249   3.303   6.139
   11DOPE   H6X 1383   1.339   3.319   6.202
   11DOPE   H6Y 1384   1.185   3.393   6.151
   11DOPE   C37 1385   1.296   3.288   5.994
   11DOPE   H7X 1386   1.397   3.334   5.985
   11DOPE   H7Y 1387   1.308   3.180   5.970
   11DOPE   C38 1388   1.206   3.355   5.888
   11DOPE   H8X 1389   1.259   3.347   5.790
   11DOPE   H8Y 1390   1.201   3.463   5.911
   11DOPE   C39 1391   1.067   3.298   5.875
   11DOPE   H9X 1392   0.989   3.356   5.926
   11DOPE  C310 1393   1.034   3.185   5.811
   11DOPE  H10X 1394   0.928   3.155   5.808
   11DOPE  C311 1395   1.127   3.091   5.740
   11DOPE  H11X 1396   1.226   3.086   5.791
   11DOPE  H11Y 1397   1.085   2.988   5.743
   11DOPE  C312 1398   1.154   3.126   5.592
   11DOPE  H12X 1399   1.202   3.226   5.587
   11DOPE  H12Y 1400   1.058   3.132   5.537
   11DOPE  C313 1401   1.247   3.024   5.526
   11DOPE  H13X 1402   1.342   3.022   5.583
   11DOPE  H13Y 1403   1.203   2.922   5.533
   11DOPE  C314 1404   1.278   3.056   5.379
   11DOPE  H14X 1405   1.385   3.033   5.361
   11DOPE  H14Y 1406   1.264   3.165   5.361
   11DOPE  C315 1407   1.195   2.975   5.278
   11DOPE  H15X 1408   1.220   2.867   5.289
   11DOPE  H15Y 1409   1.226   3.007   5.177
   11DOPE  C316 1410   1.043   2.991   5.292
   11DOPE  H16X 1411   1.019   3.099   5.284
   11DOPE  H16Y 1412   1.012   2.957   5.393
   11DOPE  C317 1413   0.962   2.913   5.187
   11DOPE  H17X 1414   0.981   2.805   5.201
   11DOPE  H17Y 1415   0.854   2.931   5.206
   11DOPE  C318 1416   0.994   2.951   5.042
   11DOPE  H18X 1417   0.991   3.061   5.029
   11DOPE  H18Y 1418   1.095   2.915   5.014
   11DOPE  H18Z 1419   0.921   2.905   4.973
   12DOPE     N 1420   3.006   6.574   6.983
   12DOPE   HN1 1421   2.920   6.617   6.943
   12DOPE   HN2 1422   3.074   6.550   6.908
   12DOPE   HN3 1423   2.978   6.488   7.034
   12DOPE   C12 1424   3.077   6.670   7.074
   12DOPE  H12A 1425   3.024   6.674   7.171
   12DOPE  H12B 1426   3.073   6.770   7.025
   12DOPE   C11 1427   3.223   6.630   7.088
   12DOPE  H11A 1428   3.232   6.541   7.155
   12DOPE  H11B 1429   3.277   6.714   7.137
   12DOPE     P 1430   3.433   6.598   6.939
   12DOPE   O13 1431   3.461   6.550   6.803
   12DOPE   O14 1432   3.490   6.520   7.052
   12DOPE   O11 1433   3.469   6.750   6.959
   12DOPE   O12 1434   3.275   6.600   6.959
   12DOPE    C1 1435   3.541   6.824   6.859
   12DOPE    HA 1436   3.587   6.758   6.782
   12DOPE    HB 1437   3.626   6.877   6.907
   12DOPE    C2 1438   3.456   6.933   6.785
   12DOPE    HS 1439   3.471   7.028   6.840
   12DOPE   O21 1440   3.316   6.897   6.786
   12DOPE   C21 1441   3.233   6.993   6.750
   12DOPE   O22 1442   3.263   7.109   6.728
   12DOPE   C22 1443   3.090   6.939   6.748
   12DOPE   H2R 1444   3.022   7.026   6.743
   12DOPE   H2S 1445   3.073   6.886   6.844
   12DOPE    C3 1446   3.508   6.953   6.639
   12DOPE    HX 1447   3.613   6.989   6.647
   12DOPE    HY 1448   3.448   7.031   6.588
   12DOPE   O31 1449   3.505   6.827   6.570
   12DOPE   C31 1450   3.498   6.829   6.439
   12DOPE   O32 1451   3.495   6.928   6.368
   12DOPE   C32 1452   3.493   6.685   6.389
   12DOPE   H2X 1453   3.544   6.621   6.464
   12DOPE   H2Y 1454   3.386   6.654   6.386
   12DOPE   C23 1455   3.058   6.844   6.630
   12DOPE   H3R 1456   3.060   6.900   6.534
   12DOPE   H3S 1457   2.954   6.808   6.644
   12DOPE   C24 1458   3.151   6.723   6.620
   12DOPE   H4R 1459   3.181   6.690   6.722
   12DOPE   H4S 1460   3.245   6.753   6.569
   12DOPE   C25 1461   3.090   6.602   6.548
   12DOPE   H5R 1462   3.014   6.557   6.616
   12DOPE   H5S 1463   3.169   6.526   6.532
   12DOPE   C26 1464   3.020   6.633   6.415
   12DOPE   H6R 1465   2.938   6.705   6.432
   12DOPE   H6S 1466   2.975   6.539   6.377
   12DOPE   C27 1467   3.112   6.688   6.304
   12DOPE   H7R 1468   3.186   6.609   6.279
   12DOPE   H7S 1469   3.168   6.776   6.341
   12DOPE   C28 1470   3.030   6.726   6.179
   12DOPE   H8R 1471   2.970   6.817   6.203
   12DOPE   H8S 1472   2.958   6.645   6.158
   12DOPE   C29 1473   3.120   6.753   6.062
   12DOPE   H9R 1474   3.187   6.839   6.074
   12DOPE  C210 1475   3.126   6.682   5.947
   12DOPE  H10R 1476   3.199   6.714   5.871
   12DOPE  C211 1477   3.046   6.560   5.909
   12DOPE  H11R 1478   2.988   6.519   5.994
   12DOPE  H11S 1479   3.115   6.480   5.877
   12DOPE  C212 1480   2.948   6.587   5.792
   12DOPE  H12R 1481   2.866   6.653   5.827
   12DOPE  H12S 1482   2.903   6.490   5.761
   12DOPE  C213 1483   3.016   6.652   5.671
   12DOPE  H13R 1484   3.109   6.597   5.647
   12DOPE  H13S 1485   3.045   6.756   5.698
   12DOPE  C214 1486   2.929   6.659   5.545
   12DOPE  H14R 1487   2.827   6.694   5.571
   12DOPE  H14S 1488   2.921   6.557   5.501
   12DOPE  C215 1489   2.992   6.756   5.444
   12DOPE  H15R 1490   3.101   6.735   5.439
   12DOPE  H15S 1491   2.981   6.859   5.484
   12DOPE  C216 1492   2.932   6.749   5.304
   12DOPE  H16R 1493   2.821   6.752   5.310
   12DOPE  H16S 1494   2.960   6.652   5.258
   12DOPE  C217 1495   2.980   6.864   5.213
   12DOPE  H17R 1496   2.934   6.958   5.249
   12DOPE  H17S 1497   2.943   6.846   5.110
   12DOPE  C218 1498   3.132   6.883   5.211
   12DOPE  H18R 1499   3.160   6.966   5.142
   12DOPE  H18S 1500   3.183   6.790   5.177
   12DOPE  H18T 1501   3.171   6.909   5.312
   12DOPE   C33 1502   3.560   6.666   6.251
   12DOPE   H3X 1503   3.661   6.711   6.253
   12DOPE   H3Y 1504   3.501   6.717   6.172
   12DOPE   C34 1505   3.578   6.517   6.217
   12DOPE   H4X 1506   3.646   6.507   6.130
   12DOPE   H4Y 1507   3.628   6.469   6.304
   12DOPE   C35 1508   3.447   6.442   6.189
   12DOPE   H5X 1509   3.370   6.473   6.262
   12DOPE   H5Y 1510   3.466   6.334   6.204
   12DOPE   C36 1511   3.394   6.461   6.046
   12DOPE   H6X 1512   3.402   6.568   6.016
   12DOPE   H6Y 1513   3.286   6.434   6.045
   12DOPE   C37 1514   3.466   6.372   5.944
   12DOPE   H7X 1515   3.575   6.396   5.945
   12DOPE   H7Y 1516   3.456   6.266   5.978
   12DOPE   C38 1517   3.411   6.387   5.802
   12DOPE   H8X 1518   3.428   6.491   5.768
   12DOPE   H8Y 1519   3.301   6.372   5.805
   12DOPE   C39 1520   3.472   6.285   5.708
   12DOPE   H9X 1521   3.443   6.181   5.729
   12DOPE  C310 1522   3.556   6.309   5.606
   12DOPE  H10X 1523   3.589   6.223   5.545
   12DOPE  C311 1524   3.609   6.442   5.560
   12DOPE  H11X 1525   3.591   6.522   5.635
   12DOPE  H11Y 1526   3.719   6.436   5.547
   12DOPE  C312 1527   3.546   6.487   5.426
   12DOPE  H12X 1528   3.569   6.412   5.347
   12DOPE  H12Y 1529   3.594   6.582   5.396
   12DOPE  C313 1530   3.394   6.509   5.435
   12DOPE  H13X 1531   3.343   6.411   5.453
   12DOPE  H13Y 1532   3.373   6.574   5.523
   12DOPE  C314 1533   3.334   6.574   5.310
   12DOPE  H14X 1534   3.382   6.673   5.294
   12DOPE  H14Y 1535   3.225   6.592   5.329
   12DOPE  C315 1536   3.346   6.490   5.182
   12DOPE  H15X 1537   3.300   6.390   5.200
   12DOPE  H15Y 1538   3.453   6.475   5.158
   12DOPE  C316 1539   3.276   6.557   5.063
   12DOPE  H16X 1540   3.321   6.658   5.048
   12DOPE  H16Y 1541   3.169   6.572   5.088
   12DOPE  C317 1542   3.286   6.478   4.933
   12DOPE  H17X 1543   3.394   6.463   4.908
   12DOPE  H17Y 1544   3.241   6.378   4.948
   12DOPE  C318 1545   3.217   6.549   4.816
   12DOPE  H18X 1546   3.224   6.489   4.723
   12DOPE  H18Y 1547   3.109   6.564   4.839
   12DOPE  H18Z 1548   3.264   6.648   4.798
   13DOPE     N 1549   2.555   1.232   7.271
   13DOPE   HN1 1550   2.574   1.334   7.260
   13DOPE   HN2 1551   2.585   1.207   7.367
   13DOPE   HN3 1552   2.618   1.189   7.199
   13DOPE   C12 1553   2.413   1.195   7.240
   13DOPE  H12A 1554   2.347   1.258   7.303
   13DOPE  H12B 1555   2.400   1.088   7.268
   13DOPE   C11 1556   2.382   1.212   7.090
   13DOPE  H11A 1557   2.375   1.321   7.067
   13DOPE  H11B 1558   2.281   1.170   7.071
   13DOPE     P 1559   2.584   1.226   6.925
   13DOPE   O13 1560   2.674   1.285   7.026
   13DOPE   O14 1561   2.512   1.316   6.833
   13DOPE   O11 1562   2.660   1.111   6.848
   13DOPE   O12 1563   2.477   1.143   7.008
   13DOPE    C1 1564   2.765   1.040   6.916
   13DOPE    HA 1565   2.739   1.016   7.021
   13DOPE    HB 1566   2.856   1.104   6.919
   13DOPE    C2 1567   2.802   0.907   6.844
   13DOPE    HS 1568   2.888   0.861   6.898
   13DOPE   O21 1569   2.838   0.932   6.707
   13DOPE   C21 1570   2.951   0.999   6.692
   13DOPE   O22 1571   3.038   1.012   6.777
   13DOPE   C22 1572   2.958   1.057   6.551
   13DOPE   H2R 1573   2.877   1.012   6.490
   13DOPE   H2S 1574   3.056   1.027   6.507
   13DOPE    C3 1575   2.686   0.803   6.850
   13DOPE    HX 1576   2.685   0.761   6.953
   13DOPE    HY 1577   2.710   0.718   6.782
   13DOPE   O31 1578   2.556   0.860   6.824
   13DOPE   C31 1579   2.526   0.876   6.696
   13DOPE   O32 1580   2.585   0.825   6.602
   13DOPE   C32 1581   2.400   0.962   6.684
   13DOPE   H2X 1582   2.317   0.904   6.729
   13DOPE   H2Y 1583   2.415   1.055   6.743
   13DOPE   C23 1584   2.944   1.211   6.553
   13DOPE   H3R 1585   2.945   1.245   6.448
   13DOPE   H3S 1586   3.031   1.258   6.604
   13DOPE   C24 1587   2.814   1.255   6.623
   13DOPE   H4R 1588   2.832   1.264   6.732
   13DOPE   H4S 1589   2.738   1.174   6.610
   13DOPE   C25 1590   2.750   1.384   6.571
   13DOPE   H5R 1591   2.816   1.471   6.591
   13DOPE   H5S 1592   2.655   1.400   6.628
   13DOPE   C26 1593   2.717   1.375   6.422
   13DOPE   H6R 1594   2.677   1.273   6.403
   13DOPE   H6S 1595   2.810   1.386   6.363
   13DOPE   C27 1596   2.613   1.476   6.372
   13DOPE   H7R 1597   2.642   1.579   6.401
   13DOPE   H7S 1598   2.517   1.453   6.424
   13DOPE   C28 1599   2.596   1.467   6.219
   13DOPE   H8R 1600   2.619   1.363   6.189
   13DOPE   H8S 1601   2.673   1.532   6.171
   13DOPE   C29 1602   2.458   1.504   6.172
   13DOPE   H9R 1603   2.399   1.563   6.243
   13DOPE  C210 1604   2.405   1.473   6.052
   13DOPE  H10R 1605   2.302   1.506   6.030
   13DOPE  C211 1606   2.471   1.396   5.940
   13DOPE  H11R 1607   2.403   1.316   5.904
   13DOPE  H11S 1608   2.566   1.347   5.972
   13DOPE  C212 1609   2.501   1.494   5.825
   13DOPE  H12R 1610   2.583   1.562   5.856
   13DOPE  H12S 1611   2.412   1.556   5.804
   13DOPE  C213 1612   2.541   1.427   5.693
   13DOPE  H13R 1613   2.465   1.350   5.667
   13DOPE  H13S 1614   2.639   1.376   5.702
   13DOPE  C214 1615   2.545   1.531   5.580
   13DOPE  H14R 1616   2.626   1.605   5.599
   13DOPE  H14S 1617   2.449   1.586   5.581
   13DOPE  C215 1618   2.563   1.471   5.440
   13DOPE  H15R 1619   2.493   1.385   5.427
   13DOPE  H15S 1620   2.666   1.433   5.428
   13DOPE  C216 1621   2.532   1.575   5.330
   13DOPE  H16R 1622   2.596   1.664   5.344
   13DOPE  H16S 1623   2.426   1.608   5.341
   13DOPE  C217 1624   2.551   1.520   5.189
   13DOPE  H17R 1625   2.498   1.423   5.180
   13DOPE  H17S 1626   2.659   1.501   5.175
   13DOPE  C218 1627   2.501   1.614   5.079
   13DOPE  H18R 1628   2.391   1.630   5.089
   13DOPE  H18S 1629   2.521   1.571   4.978
   13DOPE  H18T 1630   2.551   1.713   5.086
   13DOPE   C33 1631   2.367   0.998   6.537
   13DOPE   H3X 1632   2.265   1.041   6.535
   13DOPE   H3Y 1633   2.368   0.908   6.473
   13DOPE   C34 1634   2.462   1.104   6.479
   13DOPE   H4X 1635   2.462   1.191   6.548
   13DOPE   H4Y 1636   2.566   1.066   6.476
   13DOPE   C35 1637   2.417   1.152   6.341
   13DOPE   H5X 1638   2.458   1.254   6.324
   13DOPE   H5Y 1639   2.306   1.161   6.340
   13DOPE   C36 1640   2.461   1.065   6.222
   13DOPE   H6X 1641   2.424   1.114   6.129
   13DOPE   H6Y 1642   2.413   0.965   6.229
   13DOPE   C37 1643   2.614   1.048   6.209
   13DOPE   H7X 1644   2.663   1.142   6.242
   13DOPE   H7Y 1645   2.647   0.968   6.278
   13DOPE   C38 1646   2.661   1.021   6.065
   13DOPE   H8X 1647   2.771   1.003   6.067
   13DOPE   H8Y 1648   2.644   1.113   6.006
   13DOPE   C39 1649   2.589   0.902   6.007
   13DOPE   H9X 1650   2.591   0.813   6.071
   13DOPE  C310 1651   2.523   0.898   5.890
   13DOPE  H10X 1652   2.474   0.803   5.862
   13DOPE  C311 1653   2.506   1.008   5.788
   13DOPE  H11X 1654   2.402   1.048   5.791
   13DOPE  H11Y 1655   2.574   1.094   5.807
   13DOPE  C312 1656   2.535   0.952   5.648
   13DOPE  H12X 1657   2.469   0.865   5.627
   13DOPE  H12Y 1658   2.640   0.914   5.647
   13DOPE  C313 1659   2.517   1.055   5.536
   13DOPE  H13X 1660   2.408   1.075   5.523
   13DOPE  H13Y 1661   2.565   1.151   5.564
   13DOPE  C314 1662   2.576   1.006   5.403
   13DOPE  H14X 1663   2.534   1.065   5.319
   13DOPE  H14Y 1664   2.547   0.900   5.387
   13DOPE  C315 1665   2.729   1.019   5.400
   13DOPE  H15X 1666   2.772   0.983   5.496
   13DOPE  H15Y 1667   2.755   1.127   5.391
   13DOPE  C316 1668   2.796   0.940   5.287
   13DOPE  H16X 1669   2.754   0.973   5.189
   13DOPE  H16Y 1670   2.773   0.832   5.298
   13DOPE  C317 1671   2.948   0.959   5.287
   13DOPE  H17X 1672   2.971   1.068   5.285
   13DOPE  H17Y 1673   2.988   0.919   5.383
   13DOPE  C318 1674   3.019   0.892   5.170
   13DOPE  H18X 1675   3.129   0.900   5.180
   13DOPE  H18Y 1676   2.991   0.784   5.165
   13DOPE  H18Z 1677   2.988   0.940   5.075
   14DOPE     N 1678   6.700   4.403   7.135
   14DOPE   HN1 1679   6.677   4.305   7.108
   14DOPE   HN2 1680   6.700   4.411   7.239
   14DOPE   HN3 1681   6.627   4.464   7.095
   14DOPE   C12 1682   6.835   4.444   7.082
   14DOPE  H12A 1683   6.844   4.404   6.979
   14DOPE  H12B 1684   6.913   4.397   7.145
   14DOPE   C11 1685   6.849   4.598   7.084
   14DOPE  H11A 1686   6.948   4.626   7.043
   14DOPE  H11B 1687   6.847   4.633   7.189
   14DOPE     P 1688   6.731   4.642   6.855
   14DOPE   O13 1689   6.608   4.561   6.837
   14DOPE   O14 1690   6.859   4.587   6.806
   14DOPE   O11 1691   6.709   4.789   6.802
   14DOPE   O12 1692   6.744   4.662   7.012
   14DOPE    C1 1693   6.632   4.884   6.876
   14DOPE    HA 1694   6.696   4.935   6.951
   14DOPE    HB 1695   6.550   4.834   6.933
   14DOPE    C2 1696   6.566   4.992   6.784
   14DOPE    HS 1697   6.487   5.044   6.843
   14DOPE   O21 1698   6.509   4.933   6.666
   14DOPE   C21 1699   6.406   4.854   6.684
   14DOPE   O22 1700   6.352   4.829   6.791
   14DOPE   C22 1701   6.352   4.807   6.548
   14DOPE   H2R 1702   6.299   4.893   6.503
   14DOPE   H2S 1703   6.277   4.728   6.570
   14DOPE    C3 1704   6.669   5.101   6.740
   14DOPE    HX 1705   6.707   5.148   6.833
   14DOPE    HY 1706   6.614   5.181   6.686
   14DOPE   O31 1707   6.781   5.049   6.665
   14DOPE   C31 1708   6.763   5.045   6.533
   14DOPE   O32 1709   6.669   5.094   6.473
   14DOPE   C32 1710   6.886   4.983   6.465
   14DOPE   H2X 1711   6.918   5.057   6.389
   14DOPE   H2Y 1712   6.967   4.970   6.539
   14DOPE   C23 1713   6.458   4.752   6.449
   14DOPE   H3R 1714   6.429   4.648   6.422
   14DOPE   H3S 1715   6.558   4.746   6.495
   14DOPE   C24 1716   6.467   4.832   6.317
   14DOPE   H4R 1717   6.534   4.920   6.334
   14DOPE   H4S 1718   6.368   4.873   6.288
   14DOPE   C25 1719   6.521   4.746   6.201
   14DOPE   H5R 1720   6.439   4.682   6.161
   14DOPE   H5S 1721   6.598   4.678   6.244
   14DOPE   C26 1722   6.589   4.824   6.088
   14DOPE   H6R 1723   6.659   4.756   6.035
   14DOPE   H6S 1724   6.650   4.904   6.134
   14DOPE   C27 1725   6.494   4.887   5.984
   14DOPE   H7R 1726   6.549   4.973   5.941
   14DOPE   H7S 1727   6.404   4.928   6.034
   14DOPE   C28 1728   6.458   4.795   5.865
   14DOPE   H8R 1729   6.550   4.742   5.832
   14DOPE   H8S 1730   6.427   4.861   5.781
   14DOPE   C29 1731   6.345   4.699   5.893
   14DOPE   H9R 1732   6.281   4.729   5.977
   14DOPE  C210 1733   6.319   4.583   5.831
   14DOPE  H10R 1734   6.232   4.524   5.865
   14DOPE  C211 1735   6.395   4.519   5.717
   14DOPE  H11R 1736   6.430   4.419   5.751
   14DOPE  H11S 1737   6.487   4.576   5.692
   14DOPE  C212 1738   6.312   4.495   5.589
   14DOPE  H12R 1739   6.209   4.464   5.615
   14DOPE  H12S 1740   6.358   4.410   5.534
   14DOPE  C213 1741   6.309   4.613   5.492
   14DOPE  H13R 1742   6.258   4.699   5.540
   14DOPE  H13S 1743   6.249   4.583   5.404
   14DOPE  C214 1744   6.448   4.658   5.443
   14DOPE  H14R 1745   6.513   4.570   5.427
   14DOPE  H14S 1746   6.494   4.720   5.523
   14DOPE  C215 1747   6.441   4.740   5.313
   14DOPE  H15R 1748   6.530   4.807   5.309
   14DOPE  H15S 1749   6.350   4.804   5.316
   14DOPE  C216 1750   6.442   4.653   5.187
   14DOPE  H16R 1751   6.362   4.576   5.194
   14DOPE  H16S 1752   6.539   4.599   5.182
   14DOPE  C217 1753   6.423   4.733   5.057
   14DOPE  H17R 1754   6.464   4.674   4.973
   14DOPE  H17S 1755   6.482   4.827   5.064
   14DOPE  C218 1756   6.276   4.766   5.026
   14DOPE  H18R 1757   6.231   4.825   5.108
   14DOPE  H18S 1758   6.218   4.672   5.013
   14DOPE  H18T 1759   6.269   4.824   4.932
   14DOPE   C33 1760   6.856   4.849   6.395
   14DOPE   H3X 1761   6.931   4.836   6.314
   14DOPE   H3Y 1762   6.756   4.851   6.347
   14DOPE   C34 1763   6.866   4.729   6.491
   14DOPE   H4X 1764   6.970   4.719   6.529
   14DOPE   H4Y 1765   6.801   4.750   6.578
   14DOPE   C35 1766   6.820   4.594   6.431
   14DOPE   H5X 1767   6.714   4.606   6.400
   14DOPE   H5Y 1768   6.822   4.517   6.510
   14DOPE   C36 1769   6.903   4.545   6.310
   14DOPE   H6X 1770   6.991   4.488   6.347
   14DOPE   H6Y 1771   6.941   4.633   6.254
   14DOPE   C37 1772   6.821   4.460   6.212
   14DOPE   H7X 1773   6.775   4.375   6.268
   14DOPE   H7Y 1774   6.739   4.523   6.172
   14DOPE   C38 1775   6.902   4.402   6.094
   14DOPE   H8X 1776   6.834   4.345   6.028
   14DOPE   H8Y 1777   6.975   4.329   6.134
   14DOPE   C39 1778   6.975   4.508   6.015
   14DOPE   H9X 1779   7.074   4.532   6.056
   14DOPE  C310 1780   6.935   4.572   5.904
   14DOPE  H10X 1781   7.001   4.648   5.860
   14DOPE  C311 1782   6.805   4.552   5.831
   14DOPE  H11X 1783   6.798   4.449   5.790
   14DOPE  H11Y 1784   6.720   4.565   5.901
   14DOPE  C312 1785   6.787   4.651   5.714
   14DOPE  H12X 1786   6.805   4.755   5.749
   14DOPE  H12Y 1787   6.682   4.646   5.680
   14DOPE  C313 1788   6.874   4.621   5.591
   14DOPE  H13X 1789   6.982   4.632   5.617
   14DOPE  H13Y 1790   6.857   4.516   5.561
   14DOPE  C314 1791   6.840   4.714   5.473
   14DOPE  H14X 1792   6.855   4.819   5.506
   14DOPE  H14Y 1793   6.733   4.702   5.448
   14DOPE  C315 1794   6.923   4.690   5.346
   14DOPE  H15X 1795   7.030   4.709   5.366
   14DOPE  H15Y 1796   6.889   4.765   5.270
   14DOPE  C316 1797   6.907   4.550   5.285
   14DOPE  H16X 1798   6.799   4.530   5.268
   14DOPE  H16Y 1799   6.944   4.475   5.358
   14DOPE  C317 1800   6.983   4.530   5.153
   14DOPE  H17X 1801   7.089   4.557   5.169
   14DOPE  H17Y 1802   6.980   4.422   5.127
   14DOPE  C318 1803   6.927   4.610   5.034
   14DOPE  H18X 1804   6.934   4.719   5.053
   14DOPE  H18Y 1805   6.984   4.587   4.942
   14DOPE  H18Z 1806   6.820   4.584   5.017
   15DOPE     N 1807   1.151   1.919   7.028
   15DOPE   HN1 1808   1.112   1.941   7.122
   15DOPE   HN2 1809   1.182   2.010   6.989
   15DOPE   HN3 1810   1.076   1.877   6.970
   15DOPE   C12 1811   1.273   1.832   7.043
   15DOPE  H12A 1812   1.322   1.823   6.944
   15DOPE  H12B 1813   1.240   1.731   7.076
   15DOPE   C11 1814   1.371   1.891   7.147
   15DOPE  H11A 1815   1.442   1.810   7.175
   15DOPE  H11B 1816   1.319   1.917   7.241
   15DOPE     P 1817   1.392   2.148   7.090
   15DOPE   O13 1818   1.502   2.242   7.060
   15DOPE   O14 1819   1.306   2.170   7.209
   15DOPE   O11 1820   1.297   2.130   6.964
   15DOPE   O12 1821   1.447   2.000   7.094
   15DOPE    C1 1822   1.355   2.101   6.837
   15DOPE    HA 1823   1.287   2.035   6.779
   15DOPE    HB 1824   1.451   2.046   6.846
   15DOPE    C2 1825   1.379   2.230   6.753
   15DOPE    HS 1826   1.381   2.319   6.819
   15DOPE   O21 1827   1.278   2.244   6.653
   15DOPE   C21 1828   1.154   2.269   6.693
   15DOPE   O22 1829   1.115   2.282   6.807
   15DOPE   C22 1830   1.063   2.273   6.570
   15DOPE   H2R 1831   0.958   2.279   6.604
   15DOPE   H2S 1832   1.078   2.177   6.516
   15DOPE    C3 1833   1.518   2.219   6.683
   15DOPE    HX 1834   1.595   2.227   6.763
   15DOPE    HY 1835   1.534   2.304   6.614
   15DOPE   O31 1836   1.531   2.089   6.620
   15DOPE   C31 1837   1.484   2.083   6.496
   15DOPE   O32 1838   1.469   2.177   6.419
   15DOPE   C32 1839   1.441   1.938   6.471
   15DOPE   H2X 1840   1.533   1.875   6.463
   15DOPE   H2Y 1841   1.383   1.906   6.560
   15DOPE   C23 1842   1.097   2.392   6.478
   15DOPE   H3R 1843   1.206   2.412   6.482
   15DOPE   H3S 1844   1.045   2.484   6.514
   15DOPE   C24 1845   1.064   2.367   6.330
   15DOPE   H4R 1846   1.085   2.461   6.275
   15DOPE   H4S 1847   0.956   2.344   6.318
   15DOPE   C25 1848   1.150   2.254   6.268
   15DOPE   H5R 1849   1.107   2.155   6.292
   15DOPE   H5S 1850   1.250   2.259   6.317
   15DOPE   C26 1851   1.174   2.267   6.117
   15DOPE   H6R 1852   1.273   2.222   6.094
   15DOPE   H6S 1853   1.180   2.374   6.088
   15DOPE   C27 1854   1.071   2.193   6.029
   15DOPE   H7R 1855   1.079   2.084   6.051
   15DOPE   H7S 1856   1.098   2.207   5.923
   15DOPE   C28 1857   0.924   2.235   6.050
   15DOPE   H8R 1858   0.894   2.211   6.155
   15DOPE   H8S 1859   0.863   2.169   5.985
   15DOPE   C29 1860   0.900   2.381   6.021
   15DOPE   H9R 1861   0.961   2.450   6.082
   15DOPE  C210 1862   0.815   2.433   5.932
   15DOPE  H10R 1863   0.809   2.542   5.921
   15DOPE  C211 1864   0.723   2.357   5.840
   15DOPE  H11R 1865   0.619   2.396   5.852
   15DOPE  H11S 1866   0.718   2.249   5.863
   15DOPE  C212 1867   0.761   2.371   5.691
   15DOPE  H12R 1868   0.768   2.477   5.661
   15DOPE  H12S 1869   0.677   2.325   5.634
   15DOPE  C213 1870   0.889   2.297   5.648
   15DOPE  H13R 1871   0.887   2.194   5.690
   15DOPE  H13S 1872   0.979   2.349   5.687
   15DOPE  C214 1873   0.892   2.290   5.494
   15DOPE  H14R 1874   0.904   2.392   5.452
   15DOPE  H14S 1875   0.792   2.253   5.462
   15DOPE  C215 1876   0.996   2.194   5.435
   15DOPE  H15R 1877   0.945   2.140   5.352
   15DOPE  H15S 1878   1.027   2.117   5.509
   15DOPE  C216 1879   1.118   2.265   5.374
   15DOPE  H16R 1880   1.192   2.283   5.455
   15DOPE  H16S 1881   1.088   2.363   5.333
   15DOPE  C217 1882   1.182   2.184   5.260
   15DOPE  H17R 1883   1.200   2.080   5.293
   15DOPE  H17S 1884   1.282   2.230   5.240
   15DOPE  C218 1885   1.103   2.184   5.129
   15DOPE  H18R 1886   1.005   2.134   5.141
   15DOPE  H18S 1887   1.160   2.130   5.050
   15DOPE  H18T 1888   1.085   2.288   5.094
   15DOPE   C33 1889   1.353   1.920   6.345
   15DOPE   H3X 1890   1.282   2.005   6.333
   15DOPE   H3Y 1891   1.291   1.828   6.359
   15DOPE   C34 1892   1.436   1.901   6.218
   15DOPE   H4X 1893   1.502   1.989   6.204
   15DOPE   H4Y 1894   1.500   1.811   6.232
   15DOPE   C35 1895   1.352   1.883   6.090
   15DOPE   H5X 1896   1.422   1.869   6.005
   15DOPE   H5Y 1897   1.295   1.977   6.072
   15DOPE   C36 1898   1.254   1.764   6.094
   15DOPE   H6X 1899   1.171   1.788   6.163
   15DOPE   H6Y 1900   1.307   1.675   6.134
   15DOPE   C37 1901   1.196   1.727   5.956
   15DOPE   H7X 1902   1.280   1.692   5.892
   15DOPE   H7Y 1903   1.126   1.642   5.968
   15DOPE   C38 1904   1.123   1.843   5.886
   15DOPE   H8X 1905   1.192   1.931   5.882
   15DOPE   H8Y 1906   1.038   1.874   5.950
   15DOPE   C39 1907   1.075   1.811   5.747
   15DOPE   H9X 1908   0.969   1.783   5.739
   15DOPE  C310 1909   1.151   1.813   5.636
   15DOPE  H10X 1910   1.104   1.790   5.539
   15DOPE  C311 1911   1.298   1.847   5.631
   15DOPE  H11X 1912   1.346   1.827   5.729
   15DOPE  H11Y 1913   1.349   1.780   5.558
   15DOPE  C312 1914   1.328   1.994   5.596
   15DOPE  H12X 1915   1.281   2.059   5.673
   15DOPE  H12Y 1916   1.283   2.020   5.498
   15DOPE  C313 1917   1.479   2.023   5.592
   15DOPE  H13X 1918   1.496   2.133   5.602
   15DOPE  H13Y 1919   1.527   1.975   5.680
   15DOPE  C314 1920   1.548   1.975   5.464
   15DOPE  H14X 1921   1.506   1.876   5.435
   15DOPE  H14Y 1922   1.657   1.960   5.482
   15DOPE  C315 1923   1.533   2.074   5.347
   15DOPE  H15X 1924   1.616   2.148   5.350
   15DOPE  H15Y 1925   1.438   2.131   5.363
   15DOPE  C316 1926   1.526   2.007   5.209
   15DOPE  H16X 1927   1.433   1.946   5.205
   15DOPE  H16Y 1928   1.612   1.939   5.196
   15DOPE  C317 1929   1.523   2.110   5.095
   15DOPE  H17X 1930   1.446   2.187   5.117
   15DOPE  H17Y 1931   1.621   2.162   5.092
   15DOPE  C318 1932   1.493   2.049   4.957
   15DOPE  H18X 1933   1.498   2.128   4.879
   15DOPE  H18Y 1934   1.568   1.970   4.933
   15DOPE  H18Z 1935   1.392   2.004   4.956
   16DOPE     N 1936   0.380   3.660   7.097
   16DOPE   HN1 1937   0.392   3.663   6.993
   16DOPE   HN2 1938   0.281   3.639   7.120
   16DOPE   HN3 1939   0.408   3.751   7.137
   16DOPE   C12 1940   0.473   3.551   7.140
   16DOPE  H12A 1941   0.433   3.455   7.101
   16DOPE  H12B 1942   0.478   3.547   7.250
   16DOPE   C11 1943   0.611   3.579   7.078
   16DOPE  H11A 1944   0.676   3.489   7.084
   16DOPE  H11B 1945   0.662   3.658   7.137
   16DOPE     P 1946   0.592   3.528   6.820
   16DOPE   O13 1947   0.699   3.427   6.833
   16DOPE   O14 1948   0.579   3.607   6.697
   16DOPE   O11 1949   0.452   3.460   6.850
   16DOPE   O12 1950   0.597   3.626   6.944
   16DOPE    C1 1951   0.430   3.324   6.808
   16DOPE    HA 1952   0.344   3.284   6.867
   16DOPE    HB 1953   0.516   3.258   6.832
   16DOPE    C2 1954   0.393   3.312   6.657
   16DOPE    HS 1955   0.352   3.210   6.642
   16DOPE   O21 1956   0.507   3.333   6.574
   16DOPE   C21 1957   0.591   3.231   6.568
   16DOPE   O22 1958   0.567   3.118   6.608
   16DOPE   C22 1959   0.721   3.276   6.504
   16DOPE   H2R 1960   0.799   3.265   6.582
   16DOPE   H2S 1961   0.716   3.384   6.477
   16DOPE    C3 1962   0.282   3.413   6.617
   16DOPE    HX 1963   0.326   3.514   6.627
   16DOPE    HY 1964   0.198   3.408   6.690
   16DOPE   O31 1965   0.233   3.397   6.483
   16DOPE   C31 1966   0.167   3.286   6.453
   16DOPE   O32 1967   0.151   3.191   6.528
   16DOPE   C32 1968   0.112   3.292   6.311
   16DOPE   H2X 1969   0.138   3.194   6.264
   16DOPE   H2Y 1970   0.001   3.298   6.318
   16DOPE   C23 1971   0.760   3.191   6.381
   16DOPE   H3R 1972   0.744   3.083   6.399
   16DOPE   H3S 1973   0.869   3.204   6.365
   16DOPE   C24 1974   0.691   3.235   6.251
   16DOPE   H4R 1975   0.702   3.344   6.238
   16DOPE   H4S 1976   0.582   3.213   6.257
   16DOPE   C25 1977   0.752   3.164   6.129
   16DOPE   H5R 1978   0.739   3.054   6.141
   16DOPE   H5S 1979   0.861   3.184   6.128
   16DOPE   C26 1980   0.695   3.207   5.993
   16DOPE   H6R 1981   0.744   3.145   5.916
   16DOPE   H6S 1982   0.721   3.313   5.972
   16DOPE   C27 1983   0.543   3.188   5.979
   16DOPE   H7R 1984   0.489   3.280   6.011
   16DOPE   H7S 1985   0.512   3.106   6.048
   16DOPE   C28 1986   0.501   3.145   5.837
   16DOPE   H8R 1987   0.395   3.114   5.840
   16DOPE   H8S 1988   0.560   3.053   5.814
   16DOPE   C29 1989   0.520   3.250   5.730
   16DOPE   H9R 1990   0.447   3.332   5.735
   16DOPE  C210 1991   0.613   3.253   5.632
   16DOPE  H10R 1992   0.612   3.337   5.562
   16DOPE  C211 1993   0.724   3.154   5.604
   16DOPE  H11R 1994   0.729   3.075   5.682
   16DOPE  H11S 1995   0.821   3.207   5.606
   16DOPE  C212 1996   0.711   3.086   5.466
   16DOPE  H12R 1997   0.616   3.029   5.459
   16DOPE  H12S 1998   0.793   3.012   5.457
   16DOPE  C213 1999   0.721   3.183   5.346
   16DOPE  H13R 2000   0.797   3.146   5.275
   16DOPE  H13S 2001   0.756   3.282   5.383
   16DOPE  C214 2002   0.589   3.202   5.269
   16DOPE  H14R 2003   0.602   3.290   5.201
   16DOPE  H14S 2004   0.507   3.226   5.340
   16DOPE  C215 2005   0.552   3.080   5.183
   16DOPE  H15R 2006   0.539   2.992   5.250
   16DOPE  H15S 2007   0.636   3.056   5.114
   16DOPE  C216 2008   0.422   3.099   5.102
   16DOPE  H16R 2009   0.340   3.119   5.174
   16DOPE  H16S 2010   0.398   3.004   5.050
   16DOPE  C217 2011   0.426   3.212   4.998
   16DOPE  H17R 2012   0.443   3.309   5.051
   16DOPE  H17S 2013   0.326   3.219   4.950
   16DOPE  C218 2014   0.532   3.195   4.889
   16DOPE  H18R 2015   0.530   3.281   4.818
   16DOPE  H18S 2016   0.512   3.103   4.830
   16DOPE  H18T 2017   0.634   3.188   4.932
   16DOPE   C33 2018   0.167   3.406   6.222
   16DOPE   H3X 2019   0.142   3.383   6.116
   16DOPE   H3Y 2020   0.278   3.409   6.230
   16DOPE   C34 2021   0.109   3.544   6.255
   16DOPE   H4X 2022  -0.001   3.534   6.268
   16DOPE   H4Y 2023   0.150   3.581   6.351
   16DOPE   C35 2024   0.133   3.652   6.147
   16DOPE   H5X 2025   0.078   3.743   6.179
   16DOPE   H5Y 2026   0.090   3.619   6.050
   16DOPE   C36 2027   0.281   3.690   6.128
   16DOPE   H6X 2028   0.334   3.687   6.226
   16DOPE   H6Y 2029   0.284   3.795   6.092
   16DOPE   C37 2030   0.355   3.604   6.025
   16DOPE   H7X 2031   0.362   3.499   6.059
   16DOPE   H7Y 2032   0.295   3.604   5.931
   16DOPE   C38 2033   0.496   3.657   5.997
   16DOPE   H8X 2034   0.555   3.652   6.091
   16DOPE   H8Y 2035   0.489   3.765   5.971
   16DOPE   C39 2036   0.566   3.583   5.886
   16DOPE   H9X 2037   0.644   3.511   5.918
   16DOPE  C310 2038   0.541   3.597   5.755
   16DOPE  H10X 2039   0.602   3.540   5.683
   16DOPE  C311 2040   0.438   3.688   5.693
   16DOPE  H11X 2041   0.377   3.738   5.771
   16DOPE  H11Y 2042   0.489   3.768   5.636
   16DOPE  C312 2043   0.341   3.612   5.600
   16DOPE  H12X 2044   0.261   3.683   5.570
   16DOPE  H12Y 2045   0.292   3.530   5.656
   16DOPE  C313 2046   0.405   3.555   5.472
   16DOPE  H13X 2047   0.483   3.481   5.500
   16DOPE  H13Y 2048   0.328   3.500   5.414
   16DOPE  C314 2049   0.469   3.662   5.382
   16DOPE  H14X 2050   0.546   3.718   5.439
   16DOPE  H14Y 2051   0.390   3.735   5.353
   16DOPE  C315 2052   0.534   3.605   5.257
   16DOPE  H15X 2053   0.459   3.547   5.199
   16DOPE  H15Y 2054   0.616   3.535   5.286
   16DOPE  C316 2055   0.592   3.716   5.168
   16DOPE  H16X 2056   0.668   3.773   5.226
   16DOPE  H16Y 2057   0.510   3.786   5.142
   16DOPE  C317 2058   0.656   3.664   5.040
   16DOPE  H17X 2059   0.744   3.601   5.066
   16DOPE  H17Y 2060   0.583   3.598   4.988
   16DOPE  C318 2061   0.700   3.776   4.945
   16DOPE  H18X 2062   0.732   3.734   4.848
   16DOPE  H18Y 2063   0.615   3.846   4.926
   16DOPE  H18Z 2064   0.784   3.834   4.989
   17DOPE     N 2065   2.796   7.168   7.217
   17DOPE   HN1 2066   2.720   7.121   7.164
   17DOPE   HN2 2067   2.824   7.102   7.293
   17DOPE   HN3 2068   2.764   7.259   7.257
   17DOPE   C12 2069   2.912   7.189   7.124
   17DOPE  H12A 2070   3.005   7.188   7.184
   17DOPE  H12B 2071   2.900   7.290   7.078
   17DOPE   C11 2072   2.918   7.084   7.010
   17DOPE  H11A 2073   3.017   7.097   6.962
   17DOPE  H11B 2074   2.843   7.113   6.933
   17DOPE     P 2075   2.768   6.870   7.025
   17DOPE   O13 2076   2.778   6.733   7.082
   17DOPE   O14 2077   2.737   6.878   6.882
   17DOPE   O11 2078   2.668   6.955   7.112
   17DOPE   O12 2079   2.903   6.948   7.055
   17DOPE    C1 2080   2.535   6.914   7.143
   17DOPE    HA 2081   2.516   6.937   7.250
   17DOPE    HB 2082   2.520   6.804   7.132
   17DOPE    C2 2083   2.429   6.993   7.060
   17DOPE    HS 2084   2.331   6.983   7.112
   17DOPE   O21 2085   2.420   6.943   6.925
   17DOPE   C21 2086   2.366   6.822   6.916
   17DOPE   O22 2087   2.303   6.767   7.004
   17DOPE   C22 2088   2.398   6.761   6.779
   17DOPE   H2R 2089   2.372   6.653   6.784
   17DOPE   H2S 2090   2.507   6.770   6.762
   17DOPE    C3 2091   2.462   7.146   7.056
   17DOPE    HX 2092   2.483   7.180   7.160
   17DOPE    HY 2093   2.370   7.198   7.022
   17DOPE   O31 2094   2.579   7.171   6.973
   17DOPE   C31 2095   2.553   7.237   6.860
   17DOPE   O32 2096   2.464   7.319   6.847
   17DOPE   C32 2097   2.645   7.189   6.748
   17DOPE   H2X 2098   2.735   7.255   6.746
   17DOPE   H2Y 2099   2.678   7.085   6.770
   17DOPE   C23 2100   2.321   6.828   6.662
   17DOPE   H3R 2101   2.342   6.937   6.665
   17DOPE   H3S 2102   2.212   6.813   6.676
   17DOPE   C24 2103   2.362   6.776   6.523
   17DOPE   H4R 2104   2.473   6.782   6.512
   17DOPE   H4S 2105   2.318   6.842   6.446
   17DOPE   C25 2106   2.316   6.632   6.494
   17DOPE   H5R 2107   2.207   6.622   6.513
   17DOPE   H5S 2108   2.369   6.563   6.565
   17DOPE   C26 2109   2.346   6.585   6.351
   17DOPE   H6R 2110   2.342   6.474   6.348
   17DOPE   H6S 2111   2.450   6.615   6.324
   17DOPE   C27 2112   2.250   6.638   6.243
   17DOPE   H7R 2113   2.248   6.749   6.247
   17DOPE   H7S 2114   2.147   6.601   6.266
   17DOPE   C28 2115   2.292   6.594   6.101
   17DOPE   H8R 2116   2.306   6.484   6.103
   17DOPE   H8S 2117   2.392   6.640   6.082
   17DOPE   C29 2118   2.193   6.629   5.992
   17DOPE   H9R 2119   2.089   6.603   6.017
   17DOPE  C210 2120   2.218   6.684   5.871
   17DOPE  H10R 2121   2.134   6.700   5.802
   17DOPE  C211 2122   2.352   6.726   5.816
   17DOPE  H11R 2123   2.431   6.716   5.893
   17DOPE  H11S 2124   2.350   6.833   5.788
   17DOPE  C212 2125   2.401   6.644   5.694
   17DOPE  H12R 2126   2.357   6.541   5.694
   17DOPE  H12S 2127   2.510   6.632   5.706
   17DOPE  C213 2128   2.379   6.709   5.556
   17DOPE  H13R 2129   2.398   6.818   5.565
   17DOPE  H13S 2130   2.274   6.696   5.522
   17DOPE  C214 2131   2.478   6.653   5.452
   17DOPE  H14R 2132   2.450   6.549   5.425
   17DOPE  H14S 2133   2.578   6.650   5.499
   17DOPE  C215 2134   2.492   6.740   5.325
   17DOPE  H15R 2135   2.600   6.750   5.303
   17DOPE  H15S 2136   2.453   6.842   5.344
   17DOPE  C216 2137   2.426   6.680   5.200
   17DOPE  H16R 2138   2.316   6.678   5.214
   17DOPE  H16S 2139   2.461   6.576   5.187
   17DOPE  C217 2140   2.461   6.760   5.074
   17DOPE  H17R 2141   2.572   6.768   5.068
   17DOPE  H17S 2142   2.421   6.864   5.086
   17DOPE  C218 2143   2.409   6.700   4.944
   17DOPE  H18R 2144   2.446   6.595   4.933
   17DOPE  H18S 2145   2.444   6.759   4.857
   17DOPE  H18T 2146   2.298   6.698   4.943
   17DOPE   C33 2147   2.574   7.191   6.610
   17DOPE   H3X 2148   2.535   7.294   6.593
   17DOPE   H3Y 2149   2.487   7.121   6.612
   17DOPE   C34 2150   2.664   7.153   6.491
   17DOPE   H4X 2151   2.752   7.221   6.490
   17DOPE   H4Y 2152   2.702   7.049   6.504
   17DOPE   C35 2153   2.592   7.164   6.355
   17DOPE   H5X 2154   2.538   7.261   6.351
   17DOPE   H5Y 2155   2.516   7.083   6.346
   17DOPE   C36 2156   2.688   7.158   6.236
   17DOPE   H6X 2157   2.739   7.060   6.232
   17DOPE   H6Y 2158   2.767   7.235   6.253
   17DOPE   C37 2159   2.623   7.189   6.099
   17DOPE   H7X 2160   2.558   7.279   6.111
   17DOPE   H7Y 2161   2.703   7.216   6.027
   17DOPE   C38 2162   2.539   7.076   6.037
   17DOPE   H8X 2163   2.486   7.117   5.949
   17DOPE   H8Y 2164   2.460   7.046   6.109
   17DOPE   C39 2165   2.623   6.956   6.000
   17DOPE   H9X 2166   2.660   6.898   6.086
   17DOPE  C310 2167   2.656   6.913   5.876
   17DOPE  H10X 2168   2.719   6.823   5.868
   17DOPE  C311 2169   2.621   6.973   5.742
   17DOPE  H11X 2170   2.559   6.900   5.685
   17DOPE  H11Y 2171   2.561   7.066   5.750
   17DOPE  C312 2172   2.747   7.002   5.658
   17DOPE  H12X 2173   2.820   6.920   5.672
   17DOPE  H12Y 2174   2.794   7.096   5.694
   17DOPE  C313 2175   2.722   7.011   5.506
   17DOPE  H13X 2176   2.822   7.024   5.458
   17DOPE  H13Y 2177   2.680   6.915   5.469
   17DOPE  C314 2178   2.634   7.128   5.460
   17DOPE  H14X 2179   2.650   7.213   5.529
   17DOPE  H14Y 2180   2.527   7.099   5.467
   17DOPE  C315 2181   2.668   7.177   5.318
   17DOPE  H15X 2182   2.772   7.213   5.318
   17DOPE  H15Y 2183   2.602   7.263   5.292
   17DOPE  C316 2184   2.653   7.071   5.207
   17DOPE  H16X 2185   2.546   7.043   5.196
   17DOPE  H16Y 2186   2.709   6.979   5.235
   17DOPE  C317 2187   2.707   7.122   5.072
   17DOPE  H17X 2188   2.648   7.211   5.041
   17DOPE  H17Y 2189   2.812   7.155   5.086
   17DOPE  C318 2190   2.702   7.018   4.960
   17DOPE  H18X 2191   2.766   6.930   4.985
   17DOPE  H18Y 2192   2.598   6.982   4.944
   17DOPE  H18Z 2193   2.739   7.061   4.864
   18DOPE     N 2194   7.553   3.079   7.309
   18DOPE   HN1 2195   7.479   3.151   7.309
   18DOPE   HN2 2196   7.574   3.054   7.409
   18DOPE   HN3 2197   7.640   3.118   7.266
   18DOPE   C12 2198   7.504   2.958   7.234
   18DOPE  H12A 2199   7.423   2.912   7.295
   18DOPE  H12B 2200   7.589   2.887   7.224
   18DOPE   C11 2201   7.450   2.999   7.097
   18DOPE  H11A 2202   7.399   2.912   7.051
   18DOPE  H11B 2203   7.535   3.028   7.032
   18DOPE     P 2204   7.305   3.191   6.993
   18DOPE   O13 2205   7.244   3.313   7.050
   18DOPE   O14 2206   7.224   3.100   6.908
   18DOPE   O11 2207   7.439   3.228   6.920
   18DOPE   O12 2208   7.357   3.106   7.115
   18DOPE    C1 2209   7.539   3.304   6.990
   18DOPE    HA 2210   7.576   3.248   7.078
   18DOPE    HB 2211   7.498   3.400   7.028
   18DOPE    C2 2212   7.665   3.332   6.901
   18DOPE    HS 2213   7.746   3.367   6.967
   18DOPE   O21 2214   7.637   3.430   6.800
   18DOPE   C21 2215   7.608   3.551   6.846
   18DOPE   O22 2216   7.633   3.590   6.959
   18DOPE   C22 2217   7.537   3.632   6.739
   18DOPE   H2R 2218   7.613   3.679   6.673
   18DOPE   H2S 2219   7.484   3.714   6.792
   18DOPE    C3 2220   7.715   3.202   6.832
   18DOPE    HX 2221   7.726   3.125   6.911
   18DOPE    HY 2222   7.814   3.221   6.787
   18DOPE   O31 2223   7.623   3.164   6.727
   18DOPE   C31 2224   7.589   3.038   6.718
   18DOPE   O32 2225   7.638   2.945   6.780
   18DOPE   C32 2226   7.469   3.026   6.622
   18DOPE   H2X 2227   7.383   2.995   6.684
   18DOPE   H2Y 2228   7.445   3.127   6.581
   18DOPE   C23 2229   7.434   3.551   6.655
   18DOPE   H3R 2230   7.346   3.617   6.639
   18DOPE   H3S 2231   7.397   3.462   6.709
   18DOPE   C24 2232   7.488   3.511   6.517
   18DOPE   H4R 2233   7.563   3.429   6.527
   18DOPE   H4S 2234   7.540   3.598   6.473
   18DOPE   C25 2235   7.376   3.468   6.419
   18DOPE   H5R 2236   7.291   3.538   6.432
   18DOPE   H5S 2237   7.340   3.367   6.445
   18DOPE   C26 2238   7.419   3.474   6.272
   18DOPE   H6R 2239   7.495   3.396   6.251
   18DOPE   H6S 2240   7.467   3.573   6.253
   18DOPE   C27 2241   7.302   3.459   6.173
   18DOPE   H7R 2242   7.228   3.538   6.195
   18DOPE   H7S 2243   7.253   3.361   6.192
   18DOPE   C28 2244   7.344   3.466   6.025
   18DOPE   H8R 2245   7.254   3.444   5.964
   18DOPE   H8S 2246   7.417   3.385   6.005
   18DOPE   C29 2247   7.398   3.602   5.986
   18DOPE   H9R 2248   7.352   3.687   6.038
   18DOPE  C210 2249   7.494   3.627   5.895
   18DOPE  H10R 2250   7.522   3.732   5.876
   18DOPE  C211 2251   7.570   3.527   5.811
   18DOPE  H11R 2252   7.583   3.431   5.867
   18DOPE  H11S 2253   7.672   3.564   5.790
   18DOPE  C212 2254   7.499   3.494   5.678
   18DOPE  H12R 2255   7.399   3.451   5.701
   18DOPE  H12S 2256   7.557   3.416   5.624
   18DOPE  C213 2257   7.480   3.614   5.583
   18DOPE  H13R 2258   7.435   3.698   5.640
   18DOPE  H13S 2259   7.406   3.586   5.504
   18DOPE  C214 2260   7.608   3.663   5.513
   18DOPE  H14R 2261   7.690   3.674   5.586
   18DOPE  H14S 2262   7.587   3.764   5.470
   18DOPE  C215 2263   7.652   3.572   5.397
   18DOPE  H15R 2264   7.563   3.549   5.334
   18DOPE  H15S 2265   7.691   3.477   5.437
   18DOPE  C216 2266   7.757   3.639   5.307
   18DOPE  H16R 2267   7.843   3.671   5.370
   18DOPE  H16S 2268   7.714   3.730   5.261
   18DOPE  C217 2269   7.810   3.547   5.195
   18DOPE  H17R 2270   7.850   3.454   5.240
   18DOPE  H17S 2271   7.895   3.599   5.146
   18DOPE  C218 2272   7.706   3.511   5.088
   18DOPE  H18R 2273   7.665   3.603   5.041
   18DOPE  H18S 2274   7.622   3.453   5.133
   18DOPE  H18T 2275   7.753   3.449   5.009
   18DOPE   C33 2276   7.492   2.926   6.507
   18DOPE   H3X 2277   7.393   2.904   6.462
   18DOPE   H3Y 2278   7.534   2.830   6.543
   18DOPE   C34 2279   7.580   2.984   6.396
   18DOPE   H4X 2280   7.540   3.083   6.366
   18DOPE   H4Y 2281   7.683   3.000   6.434
   18DOPE   C35 2282   7.585   2.895   6.271
   18DOPE   H5X 2283   7.481   2.873   6.238
   18DOPE   H5Y 2284   7.634   2.798   6.295
   18DOPE   C36 2285   7.659   2.960   6.153
   18DOPE   H6X 2286   7.766   2.973   6.179
   18DOPE   H6Y 2287   7.616   3.061   6.136
   18DOPE   C37 2288   7.647   2.878   6.023
   18DOPE   H7X 2289   7.684   2.776   6.043
   18DOPE   H7Y 2290   7.539   2.869   5.995
   18DOPE   C38 2291   7.726   2.936   5.905
   18DOPE   H8X 2292   7.722   2.862   5.822
   18DOPE   H8Y 2293   7.833   2.945   5.934
   18DOPE   C39 2294   7.675   3.071   5.858
   18DOPE   H9X 2295   7.703   3.155   5.923
   18DOPE  C310 2296   7.601   3.096   5.748
   18DOPE  H10X 2297   7.572   3.200   5.727
   18DOPE  C311 2298   7.551   2.994   5.648
   18DOPE  H11X 2299   7.615   2.996   5.557
   18DOPE  H11Y 2300   7.557   2.891   5.689
   18DOPE  C312 2301   7.404   3.018   5.606
   18DOPE  H12X 2302   7.342   3.026   5.697
   18DOPE  H12Y 2303   7.369   2.929   5.550
   18DOPE  C313 2304   7.381   3.142   5.518
   18DOPE  H13X 2305   7.271   3.162   5.513
   18DOPE  H13Y 2306   7.429   3.231   5.564
   18DOPE  C314 2307   7.432   3.125   5.374
   18DOPE  H14X 2308   7.370   3.050   5.321
   18DOPE  H14Y 2309   7.536   3.087   5.376
   18DOPE  C315 2310   7.433   3.256   5.293
   18DOPE  H15X 2311   7.471   3.234   5.191
   18DOPE  H15Y 2312   7.502   3.328   5.340
   18DOPE  C316 2313   7.295   3.321   5.276
   18DOPE  H16X 2314   7.257   3.354   5.375
   18DOPE  H16Y 2315   7.225   3.246   5.235
   18DOPE  C317 2316   7.299   3.442   5.181
   18DOPE  H17X 2317   7.364   3.520   5.224
   18DOPE  H17Y 2318   7.344   3.410   5.085
   18DOPE  C318 2319   7.160   3.501   5.154
   18DOPE  H18X 2320   7.094   3.424   5.109
   18DOPE  H18Y 2321   7.114   3.536   5.248
   18DOPE  H18Z 2322   7.167   3.586   5.083
   19DOPE     N 2323   7.584   4.300   7.175
   19DOPE   HN1 2324   7.531   4.222   7.220
   19DOPE   HN2 2325   7.682   4.293   7.209
   19DOPE   HN3 2326   7.545   4.391   7.208
   19DOPE   C12 2327   7.570   4.291   7.026
   19DOPE  H12A 2328   7.633   4.206   6.991
   19DOPE  H12B 2329   7.609   4.385   6.981
   19DOPE   C11 2330   7.424   4.268   6.987
   19DOPE  H11A 2331   7.414   4.268   6.876
   19DOPE  H11B 2332   7.362   4.352   7.023
   19DOPE     P 2333   7.386   4.010   6.965
   19DOPE   O13 2334   7.322   3.905   7.050
   19DOPE   O14 2335   7.527   3.991   6.927
   19DOPE   O11 2336   7.296   4.041   6.838
   19DOPE   O12 2337   7.376   4.147   7.047
   19DOPE    C1 2338   7.155   4.054   6.860
   19DOPE    HA 2339   7.131   4.142   6.923
   19DOPE    HB 2340   7.118   3.962   6.912
   19DOPE    C2 2341   7.067   4.061   6.730
   19DOPE    HS 2342   6.974   4.003   6.748
   19DOPE   O21 2343   7.137   4.009   6.616
   19DOPE   C21 2344   7.160   3.880   6.617
   19DOPE   O22 2345   7.131   3.802   6.707
   19DOPE   C22 2346   7.216   3.839   6.481
   19DOPE   H2R 2347   7.169   3.902   6.402
   19DOPE   H2S 2348   7.183   3.734   6.466
   19DOPE    C3 2349   7.021   4.206   6.697
   19DOPE    HX 2350   6.974   4.248   6.789
   19DOPE    HY 2351   6.940   4.201   6.621
   19DOPE   O31 2352   7.130   4.292   6.658
   19DOPE   C31 2353   7.152   4.296   6.526
   19DOPE   O32 2354   7.090   4.234   6.442
   19DOPE   C32 2355   7.258   4.403   6.498
   19DOPE   H2X 2356   7.202   4.497   6.478
   19DOPE   H2Y 2357   7.319   4.417   6.589
   19DOPE   C23 2358   7.370   3.846   6.472
   19DOPE   H3R 2359   7.403   3.766   6.401
   19DOPE   H3S 2360   7.418   3.825   6.570
   19DOPE   C24 2361   7.424   3.978   6.416
   19DOPE   H4R 2362   7.399   4.062   6.485
   19DOPE   H4S 2363   7.374   3.998   6.319
   19DOPE   C25 2364   7.577   3.971   6.395
   19DOPE   H5R 2365   7.601   3.876   6.343
   19DOPE   H5S 2366   7.626   3.967   6.495
   19DOPE   C26 2367   7.638   4.085   6.312
   19DOPE   H6R 2368   7.748   4.069   6.309
   19DOPE   H6S 2369   7.620   4.183   6.363
   19DOPE   C27 2370   7.583   4.092   6.169
   19DOPE   H7R 2371   7.479   4.130   6.173
   19DOPE   H7S 2372   7.579   3.989   6.126
   19DOPE   C28 2373   7.665   4.182   6.075
   19DOPE   H8R 2374   7.683   4.280   6.125
   19DOPE   H8S 2375   7.603   4.205   5.986
   19DOPE   C29 2376   7.797   4.120   6.035
   19DOPE   H9R 2377   7.875   4.124   6.112
   19DOPE  C210 2378   7.825   4.061   5.917
   19DOPE  H10R 2379   7.925   4.019   5.902
   19DOPE  C211 2380   7.732   4.043   5.799
   19DOPE  H11R 2381   7.627   4.070   5.823
   19DOPE  H11S 2382   7.732   3.937   5.768
   19DOPE  C212 2383   7.776   4.127   5.677
   19DOPE  H12R 2384   7.719   4.094   5.588
   19DOPE  H12S 2385   7.883   4.107   5.655
   19DOPE  C213 2386   7.756   4.279   5.695
   19DOPE  H13R 2387   7.847   4.333   5.662
   19DOPE  H13S 2388   7.743   4.301   5.803
   19DOPE  C214 2389   7.635   4.333   5.618
   19DOPE  H14R 2390   7.606   4.431   5.660
   19DOPE  H14S 2391   7.549   4.263   5.633
   19DOPE  C215 2392   7.662   4.352   5.468
   19DOPE  H15R 2393   7.693   4.255   5.423
   19DOPE  H15S 2394   7.747   4.423   5.457
   19DOPE  C216 2395   7.542   4.409   5.390
   19DOPE  H16R 2396   7.579   4.440   5.289
   19DOPE  H16S 2397   7.504   4.500   5.441
   19DOPE  C217 2398   7.427   4.310   5.369
   19DOPE  H17R 2399   7.385   4.280   5.468
   19DOPE  H17S 2400   7.467   4.218   5.322
   19DOPE  C218 2401   7.314   4.366   5.282
   19DOPE  H18R 2402   7.272   4.458   5.329
   19DOPE  H18S 2403   7.232   4.292   5.271
   19DOPE  H18T 2404   7.352   4.393   5.181
   19DOPE   C33 2405   7.351   4.371   6.378
   19DOPE   H3X 2406   7.412   4.281   6.399
   19DOPE   H3Y 2407   7.421   4.456   6.367
   19DOPE   C34 2408   7.277   4.352   6.245
   19DOPE   H4X 2409   7.248   4.245   6.235
   19DOPE   H4Y 2410   7.183   4.411   6.245
   19DOPE   C35 2411   7.359   4.394   6.122
   19DOPE   H5X 2412   7.465   4.363   6.135
   19DOPE   H5Y 2413   7.359   4.505   6.115
   19DOPE   C36 2414   7.304   4.334   5.992
   19DOPE   H6X 2415   7.193   4.342   5.993
   19DOPE   H6Y 2416   7.329   4.226   5.988
   19DOPE   C37 2417   7.358   4.405   5.867
   19DOPE   H7X 2418   7.333   4.513   5.874
   19DOPE   H7Y 2419   7.469   4.396   5.867
   19DOPE   C38 2420   7.305   4.347   5.734
   19DOPE   H8X 2421   7.336   4.241   5.729
   19DOPE   H8Y 2422   7.357   4.400   5.652
   19DOPE   C39 2423   7.156   4.362   5.712
   19DOPE   H9X 2424   7.125   4.459   5.671
   19DOPE  C310 2425   7.061   4.270   5.739
   19DOPE  H10X 2426   6.956   4.295   5.718
   19DOPE  C311 2427   7.083   4.132   5.796
   19DOPE  H11X 2428   7.190   4.111   5.816
   19DOPE  H11Y 2429   7.032   4.126   5.895
   19DOPE  C312 2430   7.027   4.019   5.708
   19DOPE  H12X 2431   6.917   4.031   5.697
   19DOPE  H12Y 2432   7.044   3.922   5.761
   19DOPE  C313 2433   7.090   4.008   5.568
   19DOPE  H13X 2434   7.043   3.921   5.517
   19DOPE  H13Y 2435   7.066   4.098   5.508
   19DOPE  C314 2436   7.242   3.986   5.570
   19DOPE  H14X 2437   7.270   3.937   5.665
   19DOPE  H14Y 2438   7.294   4.085   5.567
   19DOPE  C315 2439   7.292   3.897   5.455
   19DOPE  H15X 2440   7.240   3.799   5.465
   19DOPE  H15Y 2441   7.401   3.879   5.467
   19DOPE  C316 2442   7.266   3.953   5.314
   19DOPE  H16X 2443   7.343   4.028   5.290
   19DOPE  H16Y 2444   7.167   4.004   5.312
   19DOPE  C317 2445   7.264   3.842   5.209
   19DOPE  H17X 2446   7.361   3.787   5.212
   19DOPE  H17Y 2447   7.185   3.769   5.237
   19DOPE  C318 2448   7.237   3.891   5.067
   19DOPE  H18X 2449   7.141   3.947   5.062
   19DOPE  H18Y 2450   7.318   3.959   5.033
   19DOPE  H18Z 2451   7.231   3.806   4.996
   20DOPE     N 2452   6.358   6.837   7.038
   20DOPE   HN1 2453   6.431   6.889   6.986
   20DOPE   HN2 2454   6.403   6.761   7.092
   20DOPE   HN3 2455   6.294   6.793   6.969
   20DOPE   C12 2456   6.280   6.927   7.130
   20DOPE  H12A 2457   6.255   7.020   7.073
   20DOPE  H12B 2458   6.346   6.953   7.215
   20DOPE   C11 2459   6.151   6.859   7.179
   20DOPE  H11A 2460   6.110   6.922   7.261
   20DOPE  H11B 2461   6.173   6.760   7.225
   20DOPE     P 2462   6.035   6.722   6.985
   20DOPE   O13 2463   5.987   6.609   7.067
   20DOPE   O14 2464   6.163   6.702   6.913
   20DOPE   O11 2465   5.920   6.763   6.886
   20DOPE   O12 2466   6.051   6.850   7.077
   20DOPE    C1 2467   5.797   6.816   6.938
   20DOPE    HA 2468   5.813   6.884   7.025
   20DOPE    HB 2469   5.733   6.732   6.973
   20DOPE    C2 2470   5.720   6.897   6.830
   20DOPE    HS 2471   5.616   6.914   6.865
   20DOPE   O21 2472   5.719   6.830   6.703
   20DOPE   C21 2473   5.662   6.711   6.703
   20DOPE   O22 2474   5.581   6.671   6.786
   20DOPE   C22 2475   5.712   6.631   6.584
   20DOPE   H2R 2476   5.715   6.525   6.614
   20DOPE   H2S 2477   5.816   6.663   6.561
   20DOPE    C3 2478   5.784   7.037   6.807
   20DOPE    HX 2479   5.778   7.094   6.901
   20DOPE    HY 2480   5.724   7.088   6.729
   20DOPE   O31 2481   5.922   7.022   6.767
   20DOPE   C31 2482   5.978   7.128   6.716
   20DOPE   O32 2483   5.927   7.239   6.706
   20DOPE   C32 2484   6.124   7.098   6.681
   20DOPE   H2X 2485   6.171   7.196   6.658
   20DOPE   H2Y 2486   6.172   7.056   6.773
   20DOPE   C23 2487   5.622   6.646   6.459
   20DOPE   H3R 2488   5.521   6.607   6.482
   20DOPE   H3S 2489   5.665   6.582   6.379
   20DOPE   C24 2490   5.609   6.789   6.404
   20DOPE   H4R 2491   5.556   6.852   6.478
   20DOPE   H4S 2492   5.548   6.786   6.312
   20DOPE   C25 2493   5.744   6.856   6.371
   20DOPE   H5R 2494   5.808   6.782   6.319
   20DOPE   H5S 2495   5.795   6.884   6.466
   20DOPE   C26 2496   5.732   6.981   6.282
   20DOPE   H6R 2497   5.644   7.042   6.313
   20DOPE   H6S 2498   5.713   6.947   6.178
   20DOPE   C27 2499   5.859   7.067   6.287
   20DOPE   H7R 2500   5.945   6.998   6.304
   20DOPE   H7S 2501   5.854   7.136   6.374
   20DOPE   C28 2502   5.890   7.143   6.157
   20DOPE   H8R 2503   5.903   7.068   6.077
   20DOPE   H8S 2504   5.989   7.192   6.169
   20DOPE   C29 2505   5.786   7.246   6.123
   20DOPE   H9R 2506   5.757   7.312   6.207
   20DOPE  C210 2507   5.727   7.263   6.004
   20DOPE  H10R 2508   5.653   7.344   5.993
   20DOPE  C211 2509   5.751   7.184   5.878
   20DOPE  H11R 2510   5.666   7.114   5.860
   20DOPE  H11S 2511   5.843   7.122   5.884
   20DOPE  C212 2512   5.765   7.278   5.757
   20DOPE  H12R 2513   5.843   7.354   5.778
   20DOPE  H12S 2514   5.670   7.332   5.740
   20DOPE  C213 2515   5.807   7.207   5.628
   20DOPE  H13R 2516   5.908   7.162   5.643
   20DOPE  H13S 2517   5.817   7.284   5.548
   20DOPE  C214 2518   5.710   7.099   5.578
   20DOPE  H14R 2519   5.606   7.137   5.591
   20DOPE  H14S 2520   5.720   7.008   5.640
   20DOPE  C215 2521   5.730   7.066   5.430
   20DOPE  H15R 2522   5.715   7.159   5.372
   20DOPE  H15S 2523   5.654   6.993   5.397
   20DOPE  C216 2524   5.870   7.010   5.399
   20DOPE  H16R 2525   5.876   6.906   5.438
   20DOPE  H16S 2526   5.949   7.069   5.451
   20DOPE  C217 2527   5.903   7.011   5.249
   20DOPE  H17R 2528   5.819   6.968   5.192
   20DOPE  H17S 2529   5.991   6.945   5.234
   20DOPE  C218 2530   5.938   7.151   5.196
   20DOPE  H18R 2531   6.025   7.193   5.251
   20DOPE  H18S 2532   5.852   7.221   5.210
   20DOPE  H18T 2533   5.963   7.147   5.088
   20DOPE   C33 2534   6.145   7.001   6.562
   20DOPE   H3X 2535   6.246   7.019   6.521
   20DOPE   H3Y 2536   6.072   7.022   6.480
   20DOPE   C34 2537   6.139   6.853   6.602
   20DOPE   H4X 2538   6.204   6.838   6.690
   20DOPE   H4Y 2539   6.036   6.825   6.633
   20DOPE   C35 2540   6.188   6.757   6.492
   20DOPE   H5X 2541   6.202   6.656   6.536
   20DOPE   H5Y 2542   6.287   6.792   6.455
   20DOPE   C36 2543   6.091   6.744   6.373
   20DOPE   H6X 2544   6.077   6.844   6.327
   20DOPE   H6Y 2545   5.993   6.710   6.413
   20DOPE   C37 2546   6.137   6.646   6.264
   20DOPE   H7X 2547   6.224   6.689   6.210
   20DOPE   H7Y 2548   6.171   6.553   6.314
   20DOPE   C38 2549   6.026   6.608   6.163
   20DOPE   H8X 2550   5.941   6.565   6.221
   20DOPE   H8Y 2551   6.066   6.526   6.100
   20DOPE   C39 2552   5.976   6.723   6.079
   20DOPE   H9X 2553   5.953   6.815   6.136
   20DOPE  C310 2554   5.956   6.725   5.945
   20DOPE  H10X 2555   5.919   6.818   5.899
   20DOPE  C311 2556   5.979   6.612   5.847
   20DOPE  H11X 2557   6.065   6.637   5.782
   20DOPE  H11Y 2558   6.004   6.518   5.899
   20DOPE  C312 2559   5.858   6.583   5.756
   20DOPE  H12X 2560   5.769   6.553   5.817
   20DOPE  H12Y 2561   5.884   6.495   5.694
   20DOPE  C313 2562   5.819   6.699   5.662
   20DOPE  H13X 2563   5.741   6.760   5.713
   20DOPE  H13Y 2564   5.908   6.764   5.646
   20DOPE  C314 2565   5.768   6.653   5.525
   20DOPE  H14X 2566   5.718   6.739   5.476
   20DOPE  H14Y 2567   5.692   6.573   5.538
   20DOPE  C315 2568   5.881   6.605   5.432
   20DOPE  H15X 2569   5.923   6.510   5.472
   20DOPE  H15Y 2570   5.962   6.681   5.434
   20DOPE  C316 2571   5.839   6.584   5.286
   20DOPE  H16X 2572   5.930   6.565   5.225
   20DOPE  H16Y 2573   5.793   6.678   5.247
   20DOPE  C317 2574   5.742   6.467   5.264
   20DOPE  H17X 2575   5.786   6.376   5.309
   20DOPE  H17Y 2576   5.647   6.488   5.318
   20DOPE  C318 2577   5.713   6.440   5.116
   20DOPE  H18X 2578   5.663   6.528   5.070
   20DOPE  H18Y 2579   5.807   6.419   5.061
   20DOPE  H18Z 2580   5.646   6.352   5.106
   21DOPE     N 2581   3.372   7.327   6.870
   21DOPE   HN1 2582   3.395   7.306   6.771
   21DOPE   HN2 2583   3.408   7.250   6.929
   21DOPE   HN3 2584   3.269   7.328   6.883
   21DOPE   C12 2585   3.429   7.455   6.925
   21DOPE  H12A 2586   3.425   7.533   6.846
   21DOPE  H12B 2587   3.535   7.434   6.952
   21DOPE   C11 2588   3.355   7.500   7.052
   21DOPE  H11A 2589   3.423   7.571   7.105
   21DOPE  H11B 2590   3.338   7.415   7.122
   21DOPE     P 2591   3.097   7.502   6.996
   21DOPE   O13 2592   3.012   7.525   7.115
   21DOPE   O14 2593   3.122   7.362   6.957
   21DOPE   O11 2594   3.045   7.582   6.870
   21DOPE   O12 2595   3.236   7.571   7.022
   21DOPE    C1 2596   3.138   7.611   6.765
   21DOPE    HA 2597   3.175   7.517   6.716
   21DOPE    HB 2598   3.226   7.667   6.804
   21DOPE    C2 2599   3.076   7.700   6.654
   21DOPE    HS 2600   3.024   7.783   6.706
   21DOPE   O21 2601   2.986   7.621   6.573
   21DOPE   C21 2602   2.859   7.621   6.610
   21DOPE   O22 2603   2.808   7.697   6.691
   21DOPE   C22 2604   2.786   7.509   6.536
   21DOPE   H2R 2605   2.778   7.426   6.609
   21DOPE   H2S 2606   2.848   7.474   6.450
   21DOPE    C3 2607   3.184   7.767   6.563
   21DOPE    HX 2608   3.258   7.820   6.627
   21DOPE    HY 2609   3.131   7.846   6.505
   21DOPE   O31 2610   3.246   7.678   6.468
   21DOPE   C31 2611   3.361   7.623   6.502
   21DOPE   O32 2612   3.416   7.633   6.611
   21DOPE   C32 2613   3.421   7.546   6.384
   21DOPE   H2X 2614   3.530   7.567   6.384
   21DOPE   H2Y 2615   3.406   7.438   6.402
   21DOPE   C23 2616   2.643   7.549   6.490
   21DOPE   H3R 2617   2.590   7.602   6.572
   21DOPE   H3S 2618   2.586   7.456   6.468
   21DOPE   C24 2619   2.639   7.633   6.361
   21DOPE   H4R 2620   2.699   7.726   6.376
   21DOPE   H4S 2621   2.534   7.665   6.344
   21DOPE   C25 2622   2.688   7.558   6.237
   21DOPE   H5R 2623   2.631   7.463   6.228
   21DOPE   H5S 2624   2.795   7.532   6.249
   21DOPE   C26 2625   2.670   7.638   6.107
   21DOPE   H6R 2626   2.734   7.729   6.112
   21DOPE   H6S 2627   2.565   7.672   6.099
   21DOPE   C27 2628   2.706   7.559   5.979
   21DOPE   H7R 2629   2.693   7.626   5.891
   21DOPE   H7S 2630   2.632   7.476   5.968
   21DOPE   C28 2631   2.847   7.498   5.975
   21DOPE   H8R 2632   2.857   7.441   5.880
   21DOPE   H8S 2633   2.857   7.423   6.057
   21DOPE   C29 2634   2.955   7.602   5.989
   21DOPE   H9R 2635   2.955   7.654   6.086
   21DOPE  C210 2636   3.049   7.637   5.899
   21DOPE  H10R 2637   3.120   7.716   5.925
   21DOPE  C211 2638   3.069   7.579   5.761
   21DOPE  H11R 2639   3.007   7.489   5.741
   21DOPE  H11S 2640   3.175   7.545   5.752
   21DOPE  C212 2641   3.044   7.683   5.649
   21DOPE  H12R 2642   3.089   7.644   5.555
   21DOPE  H12S 2643   3.097   7.777   5.674
   21DOPE  C213 2644   2.895   7.713   5.622
   21DOPE  H13R 2645   2.891   7.799   5.552
   21DOPE  H13S 2646   2.844   7.743   5.716
   21DOPE  C214 2647   2.817   7.596   5.560
   21DOPE  H14R 2648   2.793   7.522   5.639
   21DOPE  H14S 2649   2.881   7.546   5.484
   21DOPE  C215 2650   2.689   7.643   5.489
   21DOPE  H15R 2651   2.717   7.714   5.409
   21DOPE  H15S 2652   2.624   7.697   5.561
   21DOPE  C216 2653   2.612   7.526   5.427
   21DOPE  H16R 2654   2.566   7.465   5.508
   21DOPE  H16S 2655   2.684   7.461   5.373
   21DOPE  C217 2656   2.503   7.569   5.327
   21DOPE  H17R 2657   2.452   7.478   5.289
   21DOPE  H17S 2658   2.553   7.616   5.239
   21DOPE  C218 2659   2.399   7.666   5.382
   21DOPE  H18R 2660   2.349   7.623   5.471
   21DOPE  H18S 2661   2.321   7.688   5.306
   21DOPE  H18T 2662   2.446   7.762   5.412
   21DOPE   C33 2663   3.363   7.585   6.245
   21DOPE   H3X 2664   3.356   7.695   6.237
   21DOPE   H3Y 2665   3.260   7.544   6.235
   21DOPE   C34 2666   3.451   7.535   6.129
   21DOPE   H4X 2667   3.404   7.566   6.033
   21DOPE   H4Y 2668   3.549   7.587   6.135
   21DOPE   C35 2669   3.477   7.384   6.127
   21DOPE   H5X 2670   3.533   7.355   6.219
   21DOPE   H5Y 2671   3.544   7.362   6.041
   21DOPE   C36 2672   3.352   7.297   6.114
   21DOPE   H6X 2673   3.289   7.307   6.206
   21DOPE   H6Y 2674   3.385   7.191   6.109
   21DOPE   C37 2675   3.266   7.331   5.991
   21DOPE   H7X 2676   3.221   7.431   6.007
   21DOPE   H7Y 2677   3.331   7.338   5.901
   21DOPE   C38 2678   3.152   7.231   5.964
   21DOPE   H8X 2679   3.084   7.277   5.890
   21DOPE   H8Y 2680   3.093   7.217   6.058
   21DOPE   C39 2681   3.206   7.098   5.916
   21DOPE   H9X 2682   3.273   7.048   5.987
   21DOPE  C310 2683   3.182   7.039   5.797
   21DOPE  H10X 2684   3.231   6.943   5.776
   21DOPE  C311 2685   3.096   7.091   5.685
   21DOPE  H11X 2686   3.032   7.008   5.648
   21DOPE  H11Y 2687   3.027   7.171   5.718
   21DOPE  C312 2688   3.178   7.145   5.566
   21DOPE  H12X 2689   3.254   7.070   5.536
   21DOPE  H12Y 2690   3.232   7.238   5.596
   21DOPE  C313 2691   3.088   7.174   5.445
   21DOPE  H13X 2692   3.031   7.081   5.423
   21DOPE  H13Y 2693   3.014   7.253   5.470
   21DOPE  C314 2694   3.166   7.211   5.318
   21DOPE  H14X 2695   3.099   7.197   5.231
   21DOPE  H14Y 2696   3.251   7.141   5.306
   21DOPE  C315 2697   3.219   7.355   5.313
   21DOPE  H15X 2698   3.279   7.367   5.221
   21DOPE  H15Y 2699   3.286   7.374   5.400
   21DOPE  C316 2700   3.106   7.459   5.311
   21DOPE  H16X 2701   3.060   7.464   5.412
   21DOPE  H16Y 2702   3.028   7.426   5.239
   21DOPE  C317 2703   3.155   7.598   5.269
   21DOPE  H17X 2704   3.232   7.633   5.341
   21DOPE  H17Y 2705   3.203   7.589   5.170
   21DOPE  C318 2706   3.043   7.702   5.259
   21DOPE  H18X 2707   2.967   7.670   5.185
   21DOPE  H18Y 2708   2.993   7.717   5.357
   21DOPE  H18Z 2709   3.085   7.800   5.227
   22DOPE     N 2710   7.338   4.863   7.049
   22DOPE   HN1 2711   7.272   4.807   7.107
   22DOPE   HN2 2712   7.288   4.912   6.973
   22DOPE   HN3 2713   7.409   4.799   7.008
   22DOPE   C12 2714   7.416   4.959   7.137
   22DOPE  H12A 2715   7.465   4.898   7.215
   22DOPE  H12B 2716   7.344   5.029   7.185
   22DOPE   C11 2717   7.524   5.037   7.059
   22DOPE  H11A 2718   7.603   5.072   7.129
   22DOPE  H11B 2719   7.478   5.128   7.017
   22DOPE     P 2720   7.668   4.832   6.973
   22DOPE   O13 2721   7.570   4.724   7.000
   22DOPE   O14 2722   7.767   4.858   7.080
   22DOPE   O11 2723   7.739   4.812   6.834
   22DOPE   O12 2724   7.581   4.962   6.952
   22DOPE    C1 2725   7.702   4.894   6.721
   22DOPE    HA 2726   7.753   4.992   6.729
   22DOPE    HB 2727   7.593   4.911   6.714
   22DOPE    C2 2728   7.746   4.827   6.589
   22DOPE    HS 2729   7.852   4.798   6.602
   22DOPE   O21 2730   7.733   4.924   6.482
   22DOPE   C21 2731   7.797   4.888   6.371
   22DOPE   O22 2732   7.871   4.791   6.362
   22DOPE   C22 2733   7.775   4.991   6.260
   22DOPE   H2R 2734   7.856   5.066   6.268
   22DOPE   H2S 2735   7.677   5.041   6.276
   22DOPE    C3 2736   7.664   4.697   6.561
   22DOPE    HX 2737   7.685   4.628   6.645
   22DOPE    HY 2738   7.700   4.646   6.469
   22DOPE   O31 2739   7.521   4.721   6.559
   22DOPE   C31 2740   7.469   4.746   6.439
   22DOPE   O32 2741   7.530   4.751   6.334
   22DOPE   C32 2742   7.318   4.766   6.454
   22DOPE   H2X 2743   7.284   4.705   6.541
   22DOPE   H2Y 2744   7.299   4.874   6.478
   22DOPE   C23 2745   7.778   4.925   6.120
   22DOPE   H3R 2746   7.688   4.862   6.107
   22DOPE   H3S 2747   7.867   4.859   6.112
   22DOPE   C24 2748   7.787   5.026   6.005
   22DOPE   H4R 2749   7.879   5.087   6.016
   22DOPE   H4S 2750   7.700   5.095   6.009
   22DOPE   C25 2751   7.789   4.955   5.869
   22DOPE   H5R 2752   7.692   4.903   5.854
   22DOPE   H5S 2753   7.868   4.877   5.871
   22DOPE   C26 2754   7.815   5.046   5.748
   22DOPE   H6R 2755   7.816   4.983   5.657
   22DOPE   H6S 2756   7.916   5.092   5.757
   22DOPE   C27 2757   7.710   5.157   5.730
   22DOPE   H7R 2758   7.727   5.238   5.804
   22DOPE   H7S 2759   7.610   5.113   5.751
   22DOPE   C28 2760   7.706   5.215   5.587
   22DOPE   H8R 2761   7.623   5.289   5.583
   22DOPE   H8S 2762   7.677   5.132   5.518
   22DOPE   C29 2763   7.834   5.279   5.541
   22DOPE   H9R 2764   7.914   5.287   5.617
   22DOPE  C210 2765   7.856   5.326   5.417
   22DOPE  H10R 2766   7.952   5.373   5.392
   22DOPE  C211 2767   7.754   5.322   5.306
   22DOPE  H11R 2768   7.679   5.402   5.322
   22DOPE  H11S 2769   7.699   5.225   5.307
   22DOPE  C212 2770   7.814   5.342   5.165
   22DOPE  H12R 2771   7.886   5.260   5.142
   22DOPE  H12S 2772   7.870   5.438   5.163
   22DOPE  C213 2773   7.706   5.348   5.055
   22DOPE  H13R 2774   7.749   5.393   4.963
   22DOPE  H13S 2775   7.624   5.414   5.090
   22DOPE  C214 2776   7.649   5.210   5.019
   22DOPE  H14R 2777   7.632   5.151   5.111
   22DOPE  H14S 2778   7.724   5.155   4.958
   22DOPE  C215 2779   7.516   5.216   4.942
   22DOPE  H15R 2780   7.496   5.115   4.900
   22DOPE  H15S 2781   7.524   5.287   4.857
   22DOPE  C216 2782   7.398   5.254   5.032
   22DOPE  H16R 2783   7.407   5.360   5.064
   22DOPE  H16S 2784   7.403   5.191   5.124
   22DOPE  C217 2785   7.260   5.232   4.968
   22DOPE  H17R 2786   7.183   5.240   5.048
   22DOPE  H17S 2787   7.256   5.129   4.927
   22DOPE  C218 2788   7.224   5.333   4.859
   22DOPE  H18R 2789   7.305   5.339   4.783
   22DOPE  H18S 2790   7.208   5.433   4.903
   22DOPE  H18T 2791   7.130   5.303   4.808
   22DOPE   C33 2792   7.237   4.726   6.329
   22DOPE   H3X 2793   7.133   4.705   6.360
   22DOPE   H3Y 2794   7.278   4.632   6.285
   22DOPE   C34 2795   7.233   4.835   6.221
   22DOPE   H4X 2796   7.182   4.925   6.262
   22DOPE   H4Y 2797   7.337   4.863   6.193
   22DOPE   C35 2798   7.156   4.789   6.097
   22DOPE   H5X 2799   7.053   4.762   6.128
   22DOPE   H5Y 2800   7.205   4.697   6.056
   22DOPE   C36 2801   7.147   4.895   5.988
   22DOPE   H6X 2802   7.108   4.989   6.033
   22DOPE   H6Y 2803   7.072   4.863   5.912
   22DOPE   C37 2804   7.280   4.925   5.918
   22DOPE   H7X 2805   7.261   5.006   5.845
   22DOPE   H7Y 2806   7.353   4.963   5.993
   22DOPE   C38 2807   7.344   4.806   5.843
   22DOPE   H8X 2808   7.375   4.729   5.917
   22DOPE   H8Y 2809   7.439   4.843   5.797
   22DOPE   C39 2810   7.254   4.747   5.738
   22DOPE   H9X 2811   7.203   4.654   5.768
   22DOPE  C310 2812   7.231   4.799   5.616
   22DOPE  H10X 2813   7.163   4.745   5.548
   22DOPE  C311 2814   7.291   4.925   5.561
   22DOPE  H11X 2815   7.211   4.989   5.517
   22DOPE  H11Y 2816   7.339   4.986   5.641
   22DOPE  C312 2817   7.398   4.897   5.455
   22DOPE  H12X 2818   7.475   4.830   5.498
   22DOPE  H12Y 2819   7.448   4.992   5.430
   22DOPE  C313 2820   7.341   4.837   5.325
   22DOPE  H13X 2821   7.307   4.732   5.342
   22DOPE  H13Y 2822   7.251   4.897   5.299
   22DOPE  C314 2823   7.437   4.844   5.206
   22DOPE  H14X 2824   7.486   4.943   5.202
   22DOPE  H14Y 2825   7.376   4.834   5.114
   22DOPE  C315 2826   7.542   4.731   5.201
   22DOPE  H15X 2827   7.590   4.736   5.100
   22DOPE  H15Y 2828   7.490   4.633   5.208
   22DOPE  C316 2829   7.656   4.736   5.305
   22DOPE  H16X 2830   7.729   4.657   5.280
   22DOPE  H16Y 2831   7.615   4.710   5.405
   22DOPE  C317 2832   7.730   4.870   5.315
   22DOPE  H17X 2833   7.661   4.949   5.351
   22DOPE  H17Y 2834   7.811   4.860   5.391
   22DOPE  C318 2835   7.792   4.916   5.183
   22DOPE  H18X 2836   7.850   5.009   5.197
   22DOPE  H18Y 2837   7.860   4.836   5.144
   22DOPE  H18Z 2838   7.714   4.934   5.106
   23DOPE     N 2839   4.728   7.377   7.239
   23DOPE   HN1 2840   4.687   7.359   7.333
   23DOPE   HN2 2841   4.827   7.408   7.253
   23DOPE   HN3 2842   4.673   7.449   7.188
   23DOPE   C12 2843   4.725   7.256   7.150
   23DOPE  H12A 2844   4.618   7.235   7.129
   23DOPE  H12B 2845   4.769   7.171   7.206
   23DOPE   C11 2846   4.799   7.283   7.017
   23DOPE  H11A 2847   4.769   7.208   6.941
   23DOPE  H11B 2848   4.908   7.268   7.035
   23DOPE     P 2849   4.641   7.468   6.917
   23DOPE   O13 2850   4.559   7.477   7.041
   23DOPE   O14 2851   4.591   7.379   6.810
   23DOPE   O11 2852   4.673   7.614   6.864
   23DOPE   O12 2853   4.782   7.416   6.967
   23DOPE    C1 2854   4.673   7.727   6.953
   23DOPE    HA 2855   4.666   7.699   7.060
   23DOPE    HB 2856   4.584   7.789   6.931
   23DOPE    C2 2857   4.801   7.817   6.940
   23DOPE    HS 2858   4.791   7.901   7.012
   23DOPE   O21 2859   4.815   7.866   6.805
   23DOPE   C21 2860   4.730   7.963   6.774
   23DOPE   O22 2861   4.657   8.021   6.852
   23DOPE   C22 2862   4.743   7.997   6.625
   23DOPE   H2R 2863   4.823   7.934   6.581
   23DOPE   H2S 2864   4.773   8.103   6.617
   23DOPE    C3 2865   4.932   7.741   6.979
   23DOPE    HX 2866   4.918   7.704   7.083
   23DOPE    HY 2867   5.016   7.814   6.982
   23DOPE   O31 2868   4.959   7.629   6.893
   23DOPE   C31 2869   5.030   7.654   6.785
   23DOPE   O32 2870   5.100   7.753   6.767
   23DOPE   C32 2871   5.020   7.536   6.688
   23DOPE   H2X 2872   5.123   7.496   6.678
   23DOPE   H2Y 2873   4.954   7.458   6.732
   23DOPE   C23 2874   4.611   7.973   6.551
   23DOPE   H3R 2875   4.531   8.040   6.590
   23DOPE   H3S 2876   4.577   7.869   6.568
   23DOPE   C24 2877   4.624   7.994   6.399
   23DOPE   H4R 2878   4.710   7.934   6.362
   23DOPE   H4S 2879   4.646   8.101   6.376
   23DOPE   C25 2880   4.498   7.949   6.325
   23DOPE   H5R 2881   4.415   8.022   6.342
   23DOPE   H5S 2882   4.465   7.852   6.368
   23DOPE   C26 2883   4.518   7.926   6.175
   23DOPE   H6R 2884   4.429   7.872   6.137
   23DOPE   H6S 2885   4.605   7.859   6.158
   23DOPE   C27 2886   4.537   8.055   6.092
   23DOPE   H7R 2887   4.637   8.097   6.117
   23DOPE   H7S 2888   4.460   8.129   6.121
   23DOPE   C28 2889   4.530   8.029   5.940
   23DOPE   H8R 2890   4.604   7.950   5.915
   23DOPE   H8S 2891   4.563   8.121   5.886
   23DOPE   C29 2892   4.390   7.992   5.896
   23DOPE   H9R 2893   4.321   8.077   5.892
   23DOPE  C210 2894   4.344   7.870   5.865
   23DOPE  H10R 2895   4.238   7.860   5.837
   23DOPE  C211 2896   4.421   7.740   5.865
   23DOPE  H11R 2897   4.392   7.680   5.955
   23DOPE  H11S 2898   4.530   7.757   5.874
   23DOPE  C212 2899   4.395   7.653   5.740
   23DOPE  H12R 2900   4.293   7.610   5.748
   23DOPE  H12S 2901   4.466   7.568   5.741
   23DOPE  C213 2902   4.406   7.726   5.605
   23DOPE  H13R 2903   4.326   7.804   5.600
   23DOPE  H13S 2904   4.386   7.655   5.522
   23DOPE  C214 2905   4.541   7.795   5.580
   23DOPE  H14R 2906   4.617   7.718   5.555
   23DOPE  H14S 2907   4.574   7.846   5.673
   23DOPE  C215 2908   4.536   7.901   5.469
   23DOPE  H15R 2909   4.635   7.951   5.462
   23DOPE  H15S 2910   4.461   7.979   5.498
   23DOPE  C216 2911   4.500   7.844   5.331
   23DOPE  H16R 2912   4.397   7.804   5.333
   23DOPE  H16S 2913   4.569   7.760   5.308
   23DOPE  C217 2914   4.511   7.948   5.218
   23DOPE  H17R 2915   4.489   7.897   5.121
   23DOPE  H17S 2916   4.615   7.985   5.213
   23DOPE  C218 2917   4.416   8.067   5.234
   23DOPE  H18R 2918   4.443   8.126   5.324
   23DOPE  H18S 2919   4.312   8.032   5.246
   23DOPE  H18T 2920   4.421   8.134   5.145
   23DOPE   C33 2921   4.968   7.576   6.548
   23DOPE   H3X 2922   4.995   7.496   6.476
   23DOPE   H3Y 2923   5.016   7.670   6.514
   23DOPE   C34 2924   4.815   7.592   6.545
   23DOPE   H4X 2925   4.767   7.495   6.571
   23DOPE   H4Y 2926   4.785   7.665   6.624
   23DOPE   C35 2927   4.760   7.642   6.411
   23DOPE   H5X 2928   4.807   7.740   6.387
   23DOPE   H5Y 2929   4.651   7.658   6.421
   23DOPE   C36 2930   4.784   7.547   6.292
   23DOPE   H6X 2931   4.744   7.446   6.318
   23DOPE   H6Y 2932   4.893   7.537   6.274
   23DOPE   C37 2933   4.715   7.597   6.165
   23DOPE   H7X 2934   4.605   7.602   6.184
   23DOPE   H7Y 2935   4.749   7.700   6.143
   23DOPE   C38 2936   4.738   7.509   6.040
   23DOPE   H8X 2937   4.665   7.541   5.962
   23DOPE   H8Y 2938   4.711   7.404   6.066
   23DOPE   C39 2939   4.880   7.517   5.990
   23DOPE   H9X 2940   4.949   7.446   6.037
   23DOPE  C310 2941   4.927   7.605   5.899
   23DOPE  H10X 2942   5.033   7.601   5.871
   23DOPE  C311 2943   4.846   7.711   5.829
   23DOPE  H11X 2944   4.738   7.686   5.825
   23DOPE  H11Y 2945   4.855   7.807   5.885
   23DOPE  C312 2946   4.892   7.738   5.684
   23DOPE  H12X 2947   4.997   7.773   5.683
   23DOPE  H12Y 2948   4.830   7.820   5.643
   23DOPE  C313 2949   4.878   7.616   5.590
   23DOPE  H13X 2950   4.948   7.536   5.622
   23DOPE  H13Y 2951   4.775   7.576   5.598
   23DOPE  C314 2952   4.908   7.655   5.445
   23DOPE  H14X 2953   5.013   7.692   5.441
   23DOPE  H14Y 2954   4.841   7.738   5.414
   23DOPE  C315 2955   4.894   7.540   5.345
   23DOPE  H15X 2956   4.948   7.451   5.385
   23DOPE  H15Y 2957   4.944   7.570   5.250
   23DOPE  C316 2958   4.749   7.500   5.313
   23DOPE  H16X 2959   4.694   7.589   5.276
   23DOPE  H16Y 2960   4.700   7.466   5.407
   23DOPE  C317 2961   4.739   7.388   5.209
   23DOPE  H17X 2962   4.803   7.303   5.242
   23DOPE  H17Y 2963   4.634   7.352   5.206
   23DOPE  C318 2964   4.781   7.429   5.067
   23DOPE  H18X 2965   4.888   7.458   5.064
   23DOPE  H18Y 2966   4.766   7.344   4.996
   23DOPE  H18Z 2967   4.720   7.515   5.031
   24DOPE     N 2968   6.815   6.383   7.203
   24DOPE   HN1 2969   6.771   6.309   7.262
   24DOPE   HN2 2970   6.866   6.339   7.124
   24DOPE   HN3 2971   6.885   6.435   7.259
   24DOPE   C12 2972   6.717   6.480   7.142
   24DOPE  H12A 2973   6.776   6.566   7.104
   24DOPE  H12B 2974   6.648   6.516   7.222
   24DOPE   C11 2975   6.639   6.416   7.026
   24DOPE  H11A 2976   6.596   6.495   6.961
   24DOPE  H11B 2977   6.553   6.359   7.068
   24DOPE     P 2978   6.836   6.372   6.856
   24DOPE   O13 2979   6.943   6.419   6.949
   24DOPE   O14 2980   6.784   6.467   6.757
   24DOPE   O11 2981   6.881   6.235   6.790
   24DOPE   O12 2982   6.718   6.325   6.951
   24DOPE    C1 2983   6.797   6.120   6.808
   24DOPE    HA 2984   6.699   6.136   6.757
   24DOPE    HB 2985   6.777   6.099   6.915
   24DOPE    C2 2986   6.860   5.989   6.751
   24DOPE    HS 2987   6.944   5.961   6.817
   24DOPE   O21 2988   6.902   6.010   6.614
   24DOPE   C21 2989   7.024   6.059   6.604
   24DOPE   O22 2990   7.106   6.065   6.694
   24DOPE   C22 2991   7.053   6.108   6.462
   24DOPE   H2R 2992   7.163   6.125   6.458
   24DOPE   H2S 2993   7.002   6.206   6.449
   24DOPE    C3 2994   6.760   5.870   6.760
   24DOPE    HX 2995   6.742   5.849   6.868
   24DOPE    HY 2996   6.807   5.779   6.717
   24DOPE   O31 2997   6.634   5.904   6.700
   24DOPE   C31 2998   6.624   5.873   6.571
   24DOPE   O32 2999   6.692   5.791   6.512
   24DOPE   C32 3000   6.520   5.963   6.507
   24DOPE   H2X 3001   6.508   5.926   6.403
   24DOPE   H2Y 3002   6.424   5.951   6.561
   24DOPE   C23 3003   7.015   6.011   6.347
   24DOPE   H3R 3004   7.023   5.905   6.379
   24DOPE   H3S 3005   7.089   6.027   6.265
   24DOPE   C24 3006   6.876   6.040   6.289
   24DOPE   H4R 3007   6.862   6.150   6.281
   24DOPE   H4S 3008   6.798   6.000   6.358
   24DOPE   C25 3009   6.856   5.980   6.149
   24DOPE   H5R 3010   6.864   5.870   6.154
   24DOPE   H5S 3011   6.938   6.018   6.084
   24DOPE   C26 3012   6.722   6.019   6.085
   24DOPE   H6R 3013   6.734   6.025   5.975
   24DOPE   H6S 3014   6.695   6.121   6.121
   24DOPE   C27 3015   6.609   5.921   6.119
   24DOPE   H7R 3016   6.512   5.976   6.122
   24DOPE   H7S 3017   6.626   5.880   6.220
   24DOPE   C28 3018   6.595   5.804   6.019
   24DOPE   H8R 3019   6.521   5.732   6.059
   24DOPE   H8S 3020   6.693   5.751   6.015
   24DOPE   C29 3021   6.549   5.853   5.883
   24DOPE   H9R 3022   6.461   5.917   5.887
   24DOPE  C210 3023   6.604   5.825   5.763
   24DOPE  H10R 3024   6.558   5.870   5.674
   24DOPE  C211 3025   6.724   5.739   5.734
   24DOPE  H11R 3026   6.770   5.699   5.827
   24DOPE  H11S 3027   6.802   5.799   5.683
   24DOPE  C212 3028   6.688   5.618   5.645
   24DOPE  H12R 3029   6.604   5.562   5.693
   24DOPE  H12S 3030   6.775   5.549   5.642
   24DOPE  C213 3031   6.649   5.654   5.501
   24DOPE  H13R 3032   6.573   5.735   5.503
   24DOPE  H13S 3033   6.601   5.566   5.452
   24DOPE  C214 3034   6.768   5.698   5.414
   24DOPE  H14R 3035   6.837   5.763   5.473
   24DOPE  H14S 3036   6.730   5.759   5.330
   24DOPE  C215 3037   6.846   5.580   5.355
   24DOPE  H15R 3038   6.776   5.523   5.290
   24DOPE  H15S 3039   6.879   5.512   5.437
   24DOPE  C216 3040   6.968   5.623   5.274
   24DOPE  H16R 3041   7.050   5.649   5.344
   24DOPE  H16S 3042   6.943   5.714   5.216
   24DOPE  C217 3043   7.017   5.515   5.176
   24DOPE  H17R 3044   7.019   5.417   5.228
   24DOPE  H17S 3045   7.121   5.539   5.145
   24DOPE  C218 3046   6.931   5.504   5.049
   24DOPE  H18R 3047   6.969   5.423   4.984
   24DOPE  H18S 3048   6.934   5.599   4.992
   24DOPE  H18T 3049   6.825   5.482   5.075
   24DOPE   C33 3050   6.564   6.112   6.508
   24DOPE   H3X 3051   6.675   6.117   6.505
   24DOPE   H3Y 3052   6.532   6.162   6.601
   24DOPE   C34 3053   6.514   6.190   6.385
   24DOPE   H4X 3054   6.523   6.123   6.297
   24DOPE   H4Y 3055   6.407   6.217   6.397
   24DOPE   C35 3056   6.599   6.314   6.356
   24DOPE   H5X 3057   6.706   6.284   6.365
   24DOPE   H5Y 3058   6.582   6.393   6.433
   24DOPE   C36 3059   6.577   6.369   6.215
   24DOPE   H6X 3060   6.498   6.447   6.217
   24DOPE   H6Y 3061   6.540   6.287   6.149
   24DOPE   C37 3062   6.706   6.423   6.152
   24DOPE   H7X 3063   6.747   6.505   6.215
   24DOPE   H7Y 3064   6.782   6.342   6.150
   24DOPE   C38 3065   6.684   6.474   6.008
   24DOPE   H8X 3066   6.608   6.555   6.010
   24DOPE   H8Y 3067   6.641   6.391   5.949
   24DOPE   C39 3068   6.812   6.524   5.945
   24DOPE   H9X 3069   6.834   6.631   5.964
   24DOPE  C310 3070   6.899   6.452   5.873
   24DOPE  H10X 3071   6.988   6.501   5.832
   24DOPE  C311 3072   6.888   6.305   5.840
   24DOPE  H11X 3073   6.983   6.253   5.867
   24DOPE  H11Y 3074   6.808   6.255   5.898
   24DOPE  C312 3075   6.860   6.279   5.690
   24DOPE  H12X 3076   6.764   6.327   5.661
   24DOPE  H12Y 3077   6.848   6.169   5.676
   24DOPE  C313 3078   6.972   6.329   5.597
   24DOPE  H13X 3079   6.979   6.439   5.603
   24DOPE  H13Y 3080   7.069   6.287   5.632
   24DOPE  C314 3081   6.951   6.288   5.450
   24DOPE  H14X 3082   6.859   6.338   5.411
   24DOPE  H14Y 3083   6.935   6.178   5.445
   24DOPE  C315 3084   7.071   6.326   5.363
   24DOPE  H15X 3085   7.161   6.274   5.403
   24DOPE  H15Y 3086   7.089   6.435   5.371
   24DOPE  C316 3087   7.054   6.290   5.215
   24DOPE  H16X 3088   6.979   6.358   5.170
   24DOPE  H16Y 3089   7.015   6.186   5.207
   24DOPE  C317 3090   7.185   6.299   5.136
   24DOPE  H17X 3091   7.237   6.393   5.163
   24DOPE  H17Y 3092   7.252   6.216   5.168
   24DOPE  C318 3093   7.167   6.296   4.984
   24DOPE  H18X 3094   7.105   6.382   4.951
   24DOPE  H18Y 3095   7.265   6.301   4.933
   24DOPE  H18Z 3096   7.116   6.202   4.953
   25DOPE     N 3097   0.034   6.149   6.966
   25DOPE   HN1 3098   0.111   6.192   7.021
   25DOPE   HN2 3099   0.004   6.062   7.015
   25DOPE   HN3 3100   0.071   6.118   6.874
   25DOPE   C12 3101  -0.087   6.238   6.960
   25DOPE  H12A 3102  -0.157   6.193   6.886
   25DOPE  H12B 3103  -0.056   6.338   6.924
   25DOPE   C11 3104  -0.153   6.244   7.100
   25DOPE  H11A 3105  -0.255   6.288   7.090
   25DOPE  H11B 3106  -0.094   6.315   7.162
   25DOPE     P 3107  -0.237   5.996   7.106
   25DOPE   O13 3108  -0.329   6.045   7.003
   25DOPE   O14 3109  -0.288   5.913   7.217
   25DOPE   O11 3110  -0.114   5.925   7.035
   25DOPE   O12 3111  -0.157   6.118   7.168
   25DOPE    C1 3112  -0.124   5.782   7.020
   25DOPE    HA 3113  -0.216   5.754   6.965
   25DOPE    HB 3114  -0.127   5.733   7.120
   25DOPE    C2 3115  -0.004   5.722   6.943
   25DOPE    HS 3116   0.090   5.757   6.990
   25DOPE   O21 3117  -0.012   5.757   6.804
   25DOPE   C21 3118   0.056   5.860   6.761
   25DOPE   O22 3119   0.126   5.935   6.827
   25DOPE   C22 3120   0.035   5.871   6.610
   25DOPE   H2R 3121  -0.071   5.901   6.593
   25DOPE   H2S 3122   0.050   5.769   6.568
   25DOPE    C3 3123  -0.007   5.567   6.953
   25DOPE    HX 3124  -0.002   5.539   7.061
   25DOPE    HY 3125   0.084   5.525   6.906
   25DOPE   O31 3126  -0.129   5.514   6.897
   25DOPE   C31 3127  -0.124   5.491   6.765
   25DOPE   O32 3128  -0.022   5.485   6.699
   25DOPE   C32 3129  -0.265   5.477   6.710
   25DOPE   H2X 3130  -0.297   5.372   6.730
   25DOPE   H2Y 3131  -0.332   5.545   6.766
   25DOPE   C23 3132   0.130   5.970   6.540
   25DOPE   H3R 3133   0.235   5.937   6.556
   25DOPE   H3S 3134   0.119   6.072   6.583
   25DOPE   C24 3135   0.105   5.979   6.388
   25DOPE   H4R 3136   0.187   6.038   6.342
   25DOPE   H4S 3137   0.010   6.032   6.368
   25DOPE   C25 3138   0.100   5.841   6.320
   25DOPE   H5R 3139   0.002   5.792   6.339
   25DOPE   H5S 3140   0.177   5.776   6.367
   25DOPE   C26 3141   0.127   5.844   6.169
   25DOPE   H6R 3142   0.229   5.885   6.153
   25DOPE   H6S 3143   0.055   5.913   6.119
   25DOPE   C27 3144   0.117   5.704   6.106
   25DOPE   H7R 3145   0.013   5.683   6.075
   25DOPE   H7S 3146   0.142   5.630   6.185
   25DOPE   C28 3147   0.216   5.682   5.990
   25DOPE   H8R 3148   0.224   5.573   5.973
   25DOPE   H8S 3149   0.317   5.715   6.021
   25DOPE   C29 3150   0.175   5.752   5.863
   25DOPE   H9R 3151   0.222   5.850   5.845
   25DOPE  C210 3152   0.086   5.705   5.774
   25DOPE  H10R 3153   0.062   5.765   5.685
   25DOPE  C211 3154   0.010   5.576   5.786
   25DOPE  H11R 3155   0.047   5.513   5.870
   25DOPE  H11S 3156   0.023   5.514   5.694
   25DOPE  C212 3157  -0.139   5.603   5.811
   25DOPE  H12R 3158  -0.151   5.676   5.894
   25DOPE  H12S 3159  -0.187   5.509   5.847
   25DOPE  C213 3160  -0.217   5.651   5.688
   25DOPE  H13R 3161  -0.171   5.744   5.647
   25DOPE  H13S 3162  -0.320   5.675   5.721
   25DOPE  C214 3163  -0.228   5.546   5.576
   25DOPE  H14R 3164  -0.269   5.453   5.620
   25DOPE  H14S 3165  -0.127   5.524   5.535
   25DOPE  C215 3166  -0.320   5.593   5.462
   25DOPE  H15R 3167  -0.285   5.694   5.431
   25DOPE  H15S 3168  -0.424   5.604   5.500
   25DOPE  C216 3169  -0.319   5.502   5.339
   25DOPE  H16R 3170  -0.215   5.477   5.309
   25DOPE  H16S 3171  -0.364   5.560   5.256
   25DOPE  C217 3172  -0.402   5.373   5.355
   25DOPE  H17R 3173  -0.437   5.344   5.253
   25DOPE  H17S 3174  -0.492   5.395   5.415
   25DOPE  C218 3175  -0.325   5.254   5.413
   25DOPE  H18R 3176  -0.300   5.270   5.520
   25DOPE  H18S 3177  -0.230   5.238   5.357
   25DOPE  H18T 3178  -0.387   5.163   5.405
   25DOPE   C33 3179  -0.271   5.508   6.559
   25DOPE   H3X 3180  -0.370   5.476   6.520
   25DOPE   H3Y 3181  -0.194   5.450   6.504
   25DOPE   C34 3182  -0.253   5.656   6.527
   25DOPE   H4X 3183  -0.325   5.717   6.586
   25DOPE   H4Y 3184  -0.150   5.687   6.557
   25DOPE   C35 3185  -0.274   5.689   6.378
   25DOPE   H5X 3186  -0.370   5.644   6.344
   25DOPE   H5Y 3187  -0.192   5.643   6.318
   25DOPE   C36 3188  -0.280   5.840   6.352
   25DOPE   H6X 3189  -0.185   5.887   6.385
   25DOPE   H6Y 3190  -0.362   5.884   6.412
   25DOPE   C37 3191  -0.304   5.873   6.204
   25DOPE   H7X 3192  -0.230   5.818   6.141
   25DOPE   H7Y 3193  -0.405   5.835   6.177
   25DOPE   C38 3194  -0.294   6.024   6.175
   25DOPE   H8X 3195  -0.187   6.054   6.182
   25DOPE   H8Y 3196  -0.348   6.079   6.254
   25DOPE   C39 3197  -0.352   6.058   6.040
   25DOPE   H9X 3198  -0.457   6.094   6.044
   25DOPE  C310 3199  -0.292   6.048   5.921
   25DOPE  H10X 3200  -0.349   6.075   5.831
   25DOPE  C311 3201  -0.152   5.999   5.894
   25DOPE  H11X 3202  -0.089   6.004   5.986
   25DOPE  H11Y 3203  -0.156   5.892   5.864
   25DOPE  C312 3204  -0.078   6.076   5.782
   25DOPE  H12X 3205   0.022   6.030   5.771
   25DOPE  H12Y 3206  -0.063   6.182   5.812
   25DOPE  C313 3207  -0.150   6.070   5.646
   25DOPE  H13X 3208  -0.188   5.968   5.628
   25DOPE  H13Y 3209  -0.238   6.138   5.649
   25DOPE  C314 3210  -0.060   6.111   5.529
   25DOPE  H14X 3211   0.009   6.191   5.563
   25DOPE  H14Y 3212  -0.122   6.154   5.447
   25DOPE  C315 3213   0.021   5.994   5.471
   25DOPE  H15X 3214   0.060   5.933   5.555
   25DOPE  H15Y 3215   0.108   6.033   5.415
   25DOPE  C316 3216  -0.062   5.907   5.376
   25DOPE  H16X 3217  -0.076   5.962   5.281
   25DOPE  H16Y 3218  -0.163   5.888   5.419
   25DOPE  C317 3219   0.005   5.772   5.347
   25DOPE  H17X 3220   0.114   5.789   5.336
   25DOPE  H17Y 3221  -0.010   5.704   5.434
   25DOPE  C318 3222  -0.045   5.704   5.220
   25DOPE  H18X 3223   0.004   5.606   5.206
   25DOPE  H18Y 3224  -0.155   5.689   5.225
   25DOPE  H18Z 3225  -0.023   5.768   5.131
   26DOPE     N 3226   0.697   6.289   6.965
   26DOPE   HN1 3227   0.732   6.387   6.974
   26DOPE   HN2 3228   0.728   6.241   7.052
   26DOPE   HN3 3229   0.740   6.246   6.881
   26DOPE   C12 3230   0.547   6.299   6.956
   26DOPE  H12A 3231   0.505   6.264   7.053
   26DOPE  H12B 3232   0.512   6.231   6.875
   26DOPE   C11 3233   0.503   6.444   6.930
   26DOPE  H11A 3234   0.393   6.443   6.912
   26DOPE  H11B 3235   0.549   6.485   6.837
   26DOPE     P 3236   0.653   6.620   7.058
   26DOPE   O13 3237   0.768   6.545   7.003
   26DOPE   O14 3238   0.661   6.659   7.201
   26DOPE   O11 3239   0.616   6.743   6.967
   26DOPE   O12 3240   0.528   6.525   7.044
   26DOPE    C1 3241   0.518   6.839   7.010
   26DOPE    HA 3242   0.569   6.935   7.032
   26DOPE    HB 3243   0.465   6.809   7.103
   26DOPE    C2 3244   0.406   6.866   6.905
   26DOPE    HS 3245   0.331   6.930   6.956
   26DOPE   O21 3246   0.347   6.740   6.868
   26DOPE   C21 3247   0.244   6.750   6.785
   26DOPE   O22 3248   0.181   6.852   6.761
   26DOPE   C22 3249   0.220   6.614   6.721
   26DOPE   H2R 3250   0.116   6.614   6.681
   26DOPE   H2S 3251   0.226   6.536   6.800
   26DOPE    C3 3252   0.459   6.948   6.782
   26DOPE    HX 3253   0.544   7.010   6.817
   26DOPE    HY 3254   0.378   7.017   6.749
   26DOPE   O31 3255   0.493   6.860   6.673
   26DOPE   C31 3256   0.589   6.899   6.592
   26DOPE   O32 3257   0.654   7.002   6.599
   26DOPE   C32 3258   0.605   6.789   6.487
   26DOPE   H2X 3259   0.612   6.692   6.542
   26DOPE   H2Y 3260   0.513   6.788   6.425
   26DOPE   C23 3261   0.322   6.585   6.608
   26DOPE   H3R 3262   0.425   6.598   6.650
   26DOPE   H3S 3263   0.310   6.660   6.527
   26DOPE   C24 3264   0.315   6.443   6.549
   26DOPE   H4R 3265   0.326   6.370   6.632
   26DOPE   H4S 3266   0.400   6.428   6.480
   26DOPE   C25 3267   0.185   6.410   6.473
   26DOPE   H5R 3268   0.099   6.418   6.543
   26DOPE   H5S 3269   0.189   6.304   6.439
   26DOPE   C26 3270   0.156   6.498   6.350
   26DOPE   H6R 3271   0.150   6.604   6.381
   26DOPE   H6S 3272   0.056   6.469   6.310
   26DOPE   C27 3273   0.259   6.487   6.237
   26DOPE   H7R 3274   0.269   6.382   6.203
   26DOPE   H7S 3275   0.358   6.519   6.277
   26DOPE   C28 3276   0.226   6.579   6.117
   26DOPE   H8R 3277   0.320   6.592   6.059
   26DOPE   H8S 3278   0.200   6.679   6.158
   26DOPE   C29 3279   0.114   6.528   6.030
   26DOPE   H9R 3280   0.021   6.502   6.084
   26DOPE  C210 3281   0.117   6.512   5.896
   26DOPE  H10R 3282   0.028   6.472   5.845
   26DOPE  C211 3283   0.234   6.543   5.806
   26DOPE  H11R 3284   0.299   6.621   5.852
   26DOPE  H11S 3285   0.199   6.586   5.710
   26DOPE  C212 3286   0.323   6.420   5.777
   26DOPE  H12R 3287   0.334   6.360   5.869
   26DOPE  H12S 3288   0.424   6.456   5.749
   26DOPE  C213 3289   0.271   6.332   5.662
   26DOPE  H13R 3290   0.162   6.318   5.672
   26DOPE  H13S 3291   0.319   6.232   5.670
   26DOPE  C214 3292   0.306   6.391   5.524
   26DOPE  H14R 3293   0.416   6.403   5.518
   26DOPE  H14S 3294   0.260   6.492   5.515
   26DOPE  C215 3295   0.259   6.305   5.406
   26DOPE  H15R 3296   0.149   6.294   5.410
   26DOPE  H15S 3297   0.304   6.204   5.413
   26DOPE  C216 3298   0.298   6.369   5.272
   26DOPE  H16R 3299   0.409   6.375   5.265
   26DOPE  H16S 3300   0.258   6.472   5.269
   26DOPE  C217 3301   0.245   6.292   5.150
   26DOPE  H17R 3302   0.134   6.285   5.159
   26DOPE  H17S 3303   0.286   6.189   5.151
   26DOPE  C218 3304   0.280   6.360   5.017
   26DOPE  H18R 3305   0.239   6.302   4.932
   26DOPE  H18S 3306   0.390   6.367   5.005
   26DOPE  H18T 3307   0.237   6.462   5.013
   26DOPE   C33 3308   0.729   6.804   6.397
   26DOPE   H3X 3309   0.821   6.815   6.459
   26DOPE   H3Y 3310   0.720   6.895   6.334
   26DOPE   C34 3311   0.744   6.681   6.307
   26DOPE   H4X 3312   0.751   6.590   6.371
   26DOPE   H4Y 3313   0.654   6.672   6.244
   26DOPE   C35 3314   0.869   6.687   6.218
   26DOPE   H5X 3315   0.957   6.708   6.281
   26DOPE   H5Y 3316   0.858   6.771   6.147
   26DOPE   C36 3317   0.895   6.557   6.139
   26DOPE   H6X 3318   0.914   6.474   6.212
   26DOPE   H6Y 3319   0.987   6.569   6.078
   26DOPE   C37 3320   0.779   6.516   6.047
   26DOPE   H7X 3321   0.688   6.501   6.108
   26DOPE   H7Y 3322   0.759   6.598   5.975
   26DOPE   C38 3323   0.810   6.386   5.969
   26DOPE   H8X 3324   0.840   6.308   6.043
   26DOPE   H8Y 3325   0.899   6.404   5.905
   26DOPE   C39 3326   0.690   6.338   5.892
   26DOPE   H9X 3327   0.599   6.328   5.952
   26DOPE  C310 3328   0.684   6.309   5.760
   26DOPE  H10X 3329   0.587   6.277   5.719
   26DOPE  C311 3330   0.794   6.317   5.658
   26DOPE  H11X 3331   0.890   6.353   5.701
   26DOPE  H11Y 3332   0.813   6.216   5.616
   26DOPE  C312 3333   0.755   6.412   5.543
   26DOPE  H12X 3334   0.664   6.374   5.492
   26DOPE  H12Y 3335   0.837   6.412   5.468
   26DOPE  C313 3336   0.732   6.557   5.590
   26DOPE  H13X 3337   0.648   6.561   5.662
   26DOPE  H13Y 3338   0.823   6.590   5.644
   26DOPE  C314 3339   0.703   6.655   5.475
   26DOPE  H14X 3340   0.784   6.650   5.399
   26DOPE  H14Y 3341   0.702   6.757   5.518
   26DOPE  C315 3342   0.567   6.629   5.408
   26DOPE  H15X 3343   0.490   6.616   5.486
   26DOPE  H15Y 3344   0.572   6.535   5.348
   26DOPE  C316 3345   0.524   6.745   5.317
   26DOPE  H16X 3346   0.603   6.765   5.242
   26DOPE  H16Y 3347   0.514   6.836   5.381
   26DOPE  C317 3348   0.390   6.722   5.246
   26DOPE  H17X 3349   0.400   6.635   5.178
   26DOPE  H17Y 3350   0.313   6.696   5.322
   26DOPE  C318 3351   0.343   6.844   5.166
   26DOPE  H18X 3352   0.246   6.822   5.116
   26DOPE  H18Y 3353   0.329   6.931   5.234
   26DOPE  H18Z 3354   0.417   6.871   5.089
   27DOPE     N 3355   5.836   7.454   6.836
   27DOPE   HN1 3356   5.746   7.417   6.873
   27DOPE   HN2 3357   5.818   7.533   6.770
   27DOPE   HN3 3358   5.881   7.376   6.785
   27DOPE   C12 3359   5.921   7.499   6.952
   27DOPE  H12A 3360   5.905   7.429   7.036
   27DOPE  H12B 3361   5.883   7.600   6.981
   27DOPE   C11 3362   6.070   7.502   6.914
   27DOPE  H11A 3363   6.087   7.560   6.821
   27DOPE  H11B 3364   6.103   7.398   6.893
   27DOPE     P 3365   6.142   7.707   7.059
   27DOPE   O13 3366   6.270   7.758   7.112
   27DOPE   O14 3367   6.023   7.728   7.145
   27DOPE   O11 3368   6.111   7.772   6.919
   27DOPE   O12 3369   6.149   7.553   7.022
   27DOPE    C1 3370   6.095   7.913   6.907
   27DOPE    HA 3371   6.164   7.969   6.974
   27DOPE    HB 3372   5.991   7.942   6.933
   27DOPE    C2 3373   6.125   7.962   6.763
   27DOPE    HS 3374   6.127   8.073   6.768
   27DOPE   O21 3375   6.016   7.920   6.678
   27DOPE   C21 3376   6.017   7.975   6.557
   27DOPE   O22 3377   6.104   8.046   6.511
   27DOPE   C22 3378   5.886   7.937   6.488
   27DOPE   H2R 3379   5.804   7.968   6.556
   27DOPE   H2S 3380   5.883   7.827   6.475
   27DOPE    C3 3381   6.266   7.914   6.713
   27DOPE    HX 3382   6.334   7.920   6.801
   27DOPE    HY 3383   6.301   7.989   6.638
   27DOPE   O31 3384   6.267   7.781   6.655
   27DOPE   C31 3385   6.390   7.747   6.617
   27DOPE   O32 3386   6.490   7.814   6.634
   27DOPE   C32 3387   6.389   7.610   6.548
   27DOPE   H2X 3388   6.445   7.542   6.616
   27DOPE   H2Y 3389   6.285   7.574   6.538
   27DOPE   C23 3390   5.866   8.008   6.352
   27DOPE   H3R 3391   5.890   8.116   6.361
   27DOPE   H3S 3392   5.759   8.000   6.323
   27DOPE   C24 3393   5.949   7.945   6.238
   27DOPE   H4R 3394   5.915   7.841   6.222
   27DOPE   H4S 3395   6.056   7.943   6.267
   27DOPE   C25 3396   5.935   8.025   6.108
   27DOPE   H5R 3397   5.985   8.123   6.120
   27DOPE   H5S 3398   5.827   8.045   6.091
   27DOPE   C26 3399   5.990   7.953   5.984
   27DOPE   H6R 3400   5.957   8.007   5.893
   27DOPE   H6S 3401   5.947   7.851   5.981
   27DOPE   C27 3402   6.143   7.942   5.979
   27DOPE   H7R 3403   6.180   7.892   6.072
   27DOPE   H7S 3404   6.187   8.044   5.977
   27DOPE   C28 3405   6.189   7.862   5.856
   27DOPE   H8R 3406   6.144   7.910   5.766
   27DOPE   H8S 3407   6.146   7.760   5.864
   27DOPE   C29 3408   6.339   7.851   5.844
   27DOPE   H9R 3409   6.390   7.824   5.937
   27DOPE  C210 3410   6.412   7.867   5.732
   27DOPE  H10R 3411   6.522   7.856   5.738
   27DOPE  C211 3412   6.360   7.901   5.594
   27DOPE  H11R 3413   6.370   8.011   5.578
   27DOPE  H11S 3414   6.252   7.878   5.584
   27DOPE  C212 3415   6.436   7.830   5.480
   27DOPE  H12R 3416   6.544   7.853   5.490
   27DOPE  H12S 3417   6.402   7.872   5.383
   27DOPE  C213 3418   6.417   7.678   5.477
   27DOPE  H13R 3419   6.432   7.637   5.579
   27DOPE  H13S 3420   6.495   7.635   5.410
   27DOPE  C214 3421   6.280   7.633   5.424
   27DOPE  H14R 3422   6.271   7.663   5.318
   27DOPE  H14S 3423   6.200   7.685   5.481
   27DOPE  C215 3424   6.255   7.481   5.435
   27DOPE  H15R 3425   6.155   7.458   5.393
   27DOPE  H15S 3426   6.252   7.453   5.542
   27DOPE  C216 3427   6.360   7.393   5.364
   27DOPE  H16R 3428   6.330   7.286   5.377
   27DOPE  H16S 3429   6.458   7.406   5.414
   27DOPE  C217 3430   6.377   7.420   5.213
   27DOPE  H17R 3431   6.456   7.352   5.175
   27DOPE  H17S 3432   6.412   7.524   5.199
   27DOPE  C218 3433   6.250   7.398   5.130
   27DOPE  H18R 3434   6.170   7.468   5.161
   27DOPE  H18S 3435   6.212   7.294   5.143
   27DOPE  H18T 3436   6.270   7.415   5.022
   27DOPE   C33 3437   6.461   7.613   6.411
   27DOPE   H3X 3438   6.499   7.512   6.388
   27DOPE   H3Y 3439   6.550   7.680   6.416
   27DOPE   C34 3440   6.371   7.656   6.294
   27DOPE   H4X 3441   6.311   7.746   6.322
   27DOPE   H4Y 3442   6.436   7.685   6.209
   27DOPE   C35 3443   6.279   7.543   6.245
   27DOPE   H5X 3444   6.206   7.516   6.325
   27DOPE   H5Y 3445   6.342   7.454   6.226
   27DOPE   C36 3446   6.204   7.577   6.116
   27DOPE   H6X 3447   6.277   7.614   6.041
   27DOPE   H6Y 3448   6.130   7.658   6.134
   27DOPE   C37 3449   6.133   7.453   6.057
   27DOPE   H7X 3450   6.209   7.373   6.046
   27DOPE   H7Y 3451   6.057   7.416   6.129
   27DOPE   C38 3452   6.069   7.476   5.919
   27DOPE   H8X 3453   6.045   7.376   5.877
   27DOPE   H8Y 3454   6.145   7.522   5.851
   27DOPE   C39 3455   5.942   7.558   5.925
   27DOPE   H9X 3456   5.889   7.552   6.021
   27DOPE  C310 3457   5.890   7.633   5.827
   27DOPE  H10X 3458   5.796   7.688   5.847
   27DOPE  C311 3459   5.945   7.654   5.688
   27DOPE  H11X 3460   5.980   7.759   5.678
   27DOPE  H11Y 3461   6.032   7.589   5.667
   27DOPE  C312 3462   5.838   7.629   5.579
   27DOPE  H12X 3463   5.746   7.686   5.602
   27DOPE  H12Y 3464   5.812   7.521   5.579
   27DOPE  C313 3465   5.883   7.668   5.437
   27DOPE  H13X 3466   5.978   7.616   5.412
   27DOPE  H13Y 3467   5.806   7.633   5.365
   27DOPE  C314 3468   5.901   7.820   5.418
   27DOPE  H14X 3469   5.987   7.855   5.479
   27DOPE  H14Y 3470   5.810   7.871   5.456
   27DOPE  C315 3471   5.922   7.863   5.272
   27DOPE  H15X 3472   5.923   7.974   5.268
   27DOPE  H15Y 3473   5.837   7.828   5.210
   27DOPE  C316 3474   6.054   7.812   5.212
   27DOPE  H16X 3475   6.051   7.701   5.203
   27DOPE  H16Y 3476   6.136   7.838   5.283
   27DOPE  C317 3477   6.090   7.874   5.076
   27DOPE  H17X 3478   6.101   7.983   5.088
   27DOPE  H17Y 3479   6.189   7.834   5.045
   27DOPE  C318 3480   5.989   7.846   4.963
   27DOPE  H18X 3481   5.889   7.886   4.989
   27DOPE  H18Y 3482   6.022   7.894   4.869
   27DOPE  H18Z 3483   5.980   7.736   4.945
   28DOPE     N 3484   7.541   7.021   7.035
   28DOPE   HN1 3485   7.538   6.986   6.937
   28DOPE   HN2 3486   7.501   7.117   7.037
   28DOPE   HN3 3487   7.640   7.022   7.067
   28DOPE   C12 3488   7.461   6.926   7.121
   28DOPE  H12A 3489   7.479   6.953   7.228
   28DOPE  H12B 3490   7.503   6.824   7.103
   28DOPE   C11 3491   7.310   6.928   7.089
   28DOPE  H11A 3492   7.265   7.013   7.143
   28DOPE  H11B 3493   7.262   6.836   7.129
   28DOPE     P 3494   7.318   6.836   6.841
   28DOPE   O13 3495   7.463   6.811   6.851
   28DOPE   O14 3496   7.264   6.885   6.713
   28DOPE   O11 3497   7.236   6.710   6.892
   28DOPE   O12 3498   7.282   6.944   6.950
   28DOPE    C1 3499   7.191   6.612   6.796
   28DOPE    HA 3500   7.140   6.659   6.708
   28DOPE    HB 3501   7.116   6.546   6.843
   28DOPE    C2 3502   7.305   6.519   6.745
   28DOPE    HS 3503   7.369   6.496   6.833
   28DOPE   O21 3504   7.376   6.591   6.644
   28DOPE   C21 3505   7.504   6.567   6.633
   28DOPE   O22 3506   7.567   6.482   6.694
   28DOPE   C22 3507   7.563   6.666   6.531
   28DOPE   H2R 3508   7.670   6.639   6.516
   28DOPE   H2S 3509   7.557   6.767   6.577
   28DOPE    C3 3510   7.249   6.386   6.688
   28DOPE    HX 3511   7.191   6.335   6.768
   28DOPE    HY 3512   7.334   6.318   6.662
   28DOPE   O31 3513   7.161   6.411   6.577
   28DOPE   C31 3514   7.216   6.406   6.456
   28DOPE   O32 3515   7.329   6.365   6.432
   28DOPE   C32 3516   7.117   6.463   6.354
   28DOPE   H2X 3517   7.015   6.446   6.393
   28DOPE   H2Y 3518   7.134   6.572   6.349
   28DOPE   C23 3519   7.489   6.665   6.395
   28DOPE   H3R 3520   7.384   6.697   6.411
   28DOPE   H3S 3521   7.487   6.562   6.354
   28DOPE   C24 3522   7.554   6.758   6.291
   28DOPE   H4R 3523   7.656   6.723   6.268
   28DOPE   H4S 3524   7.561   6.860   6.333
   28DOPE   C25 3525   7.471   6.762   6.161
   28DOPE   H5R 3526   7.370   6.802   6.186
   28DOPE   H5S 3527   7.458   6.659   6.123
   28DOPE   C26 3528   7.533   6.848   6.049
   28DOPE   H6R 3529   7.619   6.794   6.006
   28DOPE   H6S 3530   7.569   6.943   6.092
   28DOPE   C27 3531   7.429   6.879   5.940
   28DOPE   H7R 3532   7.353   6.947   5.985
   28DOPE   H7S 3533   7.375   6.787   5.911
   28DOPE   C28 3534   7.488   6.949   5.816
   28DOPE   H8R 3535   7.575   7.012   5.848
   28DOPE   H8S 3536   7.410   7.019   5.779
   28DOPE   C29 3537   7.530   6.851   5.709
   28DOPE   H9R 3538   7.601   6.774   5.743
   28DOPE  C210 3539   7.488   6.850   5.581
   28DOPE  H10R 3540   7.524   6.770   5.514
   28DOPE  C211 3541   7.392   6.946   5.516
   28DOPE  H11R 3542   7.431   6.975   5.416
   28DOPE  H11S 3543   7.385   7.041   5.574
   28DOPE  C212 3544   7.248   6.894   5.496
   28DOPE  H12R 3545   7.180   6.981   5.506
   28DOPE  H12S 3546   7.220   6.822   5.576
   28DOPE  C213 3547   7.224   6.833   5.357
   28DOPE  H13R 3548   7.285   6.741   5.345
   28DOPE  H13S 3549   7.257   6.907   5.280
   28DOPE  C214 3550   7.076   6.802   5.332
   28DOPE  H14R 3551   7.016   6.891   5.362
   28DOPE  H14S 3552   7.044   6.718   5.397
   28DOPE  C215 3553   7.040   6.771   5.185
   28DOPE  H15R 3554   7.062   6.860   5.122
   28DOPE  H15S 3555   6.931   6.753   5.181
   28DOPE  C216 3556   7.112   6.647   5.130
   28DOPE  H16R 3557   7.040   6.588   5.069
   28DOPE  H16S 3558   7.142   6.584   5.216
   28DOPE  C217 3559   7.234   6.677   5.042
   28DOPE  H17R 3560   7.287   6.580   5.025
   28DOPE  H17S 3561   7.304   6.743   5.097
   28DOPE  C218 3562   7.201   6.738   4.906
   28DOPE  H18R 3563   7.133   6.671   4.849
   28DOPE  H18S 3564   7.294   6.752   4.846
   28DOPE  H18T 3565   7.152   6.837   4.918
   28DOPE   C33 3566   7.128   6.401   6.212
   28DOPE   H3X 3567   7.044   6.441   6.152
   28DOPE   H3Y 3568   7.116   6.290   6.216
   28DOPE   C34 3569   7.259   6.436   6.140
   28DOPE   H4X 3570   7.283   6.543   6.161
   28DOPE   H4Y 3571   7.341   6.374   6.182
   28DOPE   C35 3572   7.252   6.416   5.988
   28DOPE   H5X 3573   7.189   6.496   5.944
   28DOPE   H5Y 3574   7.203   6.318   5.968
   28DOPE   C36 3575   7.391   6.416   5.922
   28DOPE   H6X 3576   7.450   6.333   5.966
   28DOPE   H6Y 3577   7.444   6.510   5.944
   28DOPE   C37 3578   7.382   6.395   5.770
   28DOPE   H7X 3579   7.477   6.349   5.734
   28DOPE   H7Y 3580   7.300   6.324   5.748
   28DOPE   C38 3581   7.362   6.527   5.693
   28DOPE   H8X 3582   7.458   6.583   5.698
   28DOPE   H8Y 3583   7.286   6.589   5.746
   28DOPE   C39 3584   7.318   6.506   5.550
   28DOPE   H9X 3585   7.209   6.508   5.536
   28DOPE  C310 3586   7.397   6.485   5.444
   28DOPE  H10X 3587   7.350   6.471   5.345
   28DOPE  C311 3588   7.548   6.480   5.444
   28DOPE  H11X 3589   7.591   6.557   5.511
   28DOPE  H11Y 3590   7.581   6.381   5.482
   28DOPE  C312 3591   7.607   6.498   5.302
   28DOPE  H12X 3592   7.566   6.421   5.234
   28DOPE  H12Y 3593   7.717   6.480   5.309
   28DOPE  C313 3594   7.586   6.638   5.243
   28DOPE  H13X 3595   7.478   6.656   5.228
   28DOPE  H13Y 3596   7.623   6.713   5.316
   28DOPE  C314 3597   7.660   6.660   5.110
   28DOPE  H14X 3598   7.769   6.644   5.124
   28DOPE  H14Y 3599   7.645   6.766   5.080
   28DOPE  C315 3600   7.611   6.571   4.995
   28DOPE  H15X 3601   7.500   6.576   4.991
   28DOPE  H15Y 3602   7.640   6.465   5.016
   28DOPE  C316 3603   7.668   6.613   4.858
   28DOPE  H16X 3604   7.779   6.613   4.864
   28DOPE  H16Y 3605   7.635   6.717   4.837
   28DOPE  C317 3606   7.624   6.523   4.742
   28DOPE  H17X 3607   7.675   6.559   4.649
   28DOPE  H17Y 3608   7.662   6.420   4.761
   28DOPE  C318 3609   7.473   6.518   4.716
   28DOPE  H18X 3610   7.420   6.475   4.804
   28DOPE  H18Y 3611   7.433   6.620   4.697
   28DOPE  H18Z 3612   7.450   6.454   4.628
   29DOPE     N 3613   7.041   0.906   7.135
   29DOPE   HN1 3614   6.993   0.994   7.165
   29DOPE   HN2 3615   7.045   0.906   7.031
   29DOPE   HN3 3616   6.979   0.827   7.162
   29DOPE   C12 3617   7.179   0.886   7.191
   29DOPE  H12A 3618   7.174   0.798   7.260
   29DOPE  H12B 3619   7.207   0.976   7.249
   29DOPE   C11 3620   7.281   0.859   7.079
   29DOPE  H11A 3621   7.297   0.954   7.023
   29DOPE  H11B 3622   7.242   0.782   7.010
   29DOPE     P 3623   7.532   0.794   7.046
   29DOPE   O13 3624   7.626   0.716   7.129
   29DOPE   O14 3625   7.579   0.924   6.994
   29DOPE   O11 3626   7.474   0.703   6.929
   29DOPE   O12 3627   7.404   0.815   7.136
   29DOPE    C1 3628   7.545   0.591   6.875
   29DOPE    HA 3629   7.475   0.505   6.864
   29DOPE    HB 3630   7.625   0.556   6.943
   29DOPE    C2 3631   7.614   0.612   6.735
   29DOPE    HS 3632   7.691   0.532   6.725
   29DOPE   O21 3633   7.673   0.743   6.726
   29DOPE   C21 3634   7.789   0.756   6.788
   29DOPE   O22 3635   7.849   0.666   6.845
   29DOPE   C22 3636   7.843   0.898   6.773
   29DOPE   H2R 3637   7.950   0.891   6.742
   29DOPE   H2S 3638   7.839   0.944   6.874
   29DOPE    C3 3639   7.519   0.593   6.612
   29DOPE    HX 3640   7.458   0.501   6.628
   29DOPE    HY 3641   7.589   0.573   6.528
   29DOPE   O31 3642   7.432   0.706   6.584
   29DOPE   C31 3643   7.405   0.723   6.454
   29DOPE   O32 3644   7.438   0.648   6.364
   29DOPE   C32 3645   7.325   0.853   6.435
   29DOPE   H2X 3646   7.253   0.858   6.519
   29DOPE   H2Y 3647   7.396   0.938   6.444
   29DOPE   C23 3648   7.765   0.990   6.676
   29DOPE   H3R 3649   7.801   1.094   6.690
   29DOPE   H3S 3650   7.657   0.990   6.704
   29DOPE   C24 3651   7.781   0.953   6.528
   29DOPE   H4R 3652   7.740   0.851   6.512
   29DOPE   H4S 3653   7.888   0.951   6.499
   29DOPE   C25 3654   7.704   1.050   6.437
   29DOPE   H5R 3655   7.762   1.144   6.424
   29DOPE   H5S 3656   7.610   1.075   6.490
   29DOPE   C26 3657   7.664   0.992   6.301
   29DOPE   H6R 3658   7.598   1.065   6.250
   29DOPE   H6S 3659   7.604   0.900   6.320
   29DOPE   C27 3660   7.780   0.958   6.207
   29DOPE   H7R 3661   7.850   0.887   6.255
   29DOPE   H7S 3662   7.836   1.052   6.186
   29DOPE   C28 3663   7.730   0.901   6.072
   29DOPE   H8R 3664   7.815   0.903   6.001
   29DOPE   H8S 3665   7.654   0.970   6.031
   29DOPE   C29 3666   7.671   0.762   6.086
   29DOPE   H9R 3667   7.597   0.751   6.167
   29DOPE  C210 3668   7.698   0.654   6.011
   29DOPE  H10R 3669   7.645   0.560   6.032
   29DOPE  C211 3670   7.795   0.648   5.895
   29DOPE  H11R 3671   7.850   0.552   5.897
   29DOPE  H11S 3672   7.872   0.728   5.903
   29DOPE  C212 3673   7.727   0.662   5.757
   29DOPE  H12R 3674   7.624   0.702   5.768
   29DOPE  H12S 3675   7.718   0.561   5.711
   29DOPE  C213 3676   7.804   0.755   5.662
   29DOPE  H13R 3677   7.907   0.716   5.650
   29DOPE  H13S 3678   7.813   0.856   5.709
   29DOPE  C214 3679   7.735   0.768   5.526
   29DOPE  H14R 3680   7.686   0.868   5.520
   29DOPE  H14S 3681   7.655   0.691   5.522
   29DOPE  C215 3682   7.825   0.748   5.404
   29DOPE  H15R 3683   7.915   0.689   5.433
   29DOPE  H15S 3684   7.860   0.847   5.367
   29DOPE  C216 3685   7.755   0.675   5.288
   29DOPE  H16R 3686   7.674   0.740   5.248
   29DOPE  H16S 3687   7.708   0.582   5.326
   29DOPE  C217 3688   7.852   0.638   5.175
   29DOPE  H17R 3689   7.929   0.569   5.216
   29DOPE  H17S 3690   7.905   0.730   5.143
   29DOPE  C218 3691   7.784   0.574   5.055
   29DOPE  H18R 3692   7.859   0.550   4.976
   29DOPE  H18S 3693   7.708   0.642   5.011
   29DOPE  H18T 3694   7.733   0.479   5.084
   29DOPE   C33 3695   7.246   0.863   6.302
   29DOPE   H3X 3696   7.176   0.949   6.314
   29DOPE   H3Y 3697   7.184   0.772   6.285
   29DOPE   C34 3698   7.330   0.892   6.177
   29DOPE   H4X 3699   7.408   0.966   6.203
   29DOPE   H4Y 3700   7.381   0.799   6.144
   29DOPE   C35 3701   7.249   0.950   6.060
   29DOPE   H5X 3702   7.200   1.043   6.096
   29DOPE   H5Y 3703   7.168   0.880   6.030
   29DOPE   C36 3704   7.334   0.986   5.936
   29DOPE   H6X 3705   7.435   1.019   5.970
   29DOPE   H6Y 3706   7.286   1.071   5.884
   29DOPE   C37 3707   7.350   0.870   5.836
   29DOPE   H7X 3708   7.388   0.782   5.892
   29DOPE   H7Y 3709   7.250   0.844   5.796
   29DOPE   C38 3710   7.449   0.899   5.720
   29DOPE   H8X 3711   7.458   0.804   5.663
   29DOPE   H8Y 3712   7.548   0.919   5.765
   29DOPE   C39 3713   7.413   1.013   5.627
   29DOPE   H9X 3714   7.401   1.110   5.677
   29DOPE  C310 3715   7.397   1.006   5.493
   29DOPE  H10X 3716   7.371   1.098   5.438
   29DOPE  C311 3717   7.411   0.883   5.407
   29DOPE  H11X 3718   7.507   0.831   5.426
   29DOPE  H11Y 3719   7.332   0.808   5.431
   29DOPE  C312 3720   7.402   0.907   5.255
   29DOPE  H12X 3721   7.303   0.951   5.229
   29DOPE  H12Y 3722   7.408   0.808   5.205
   29DOPE  C313 3723   7.514   0.996   5.200
   29DOPE  H13X 3724   7.493   1.101   5.229
   29DOPE  H13Y 3725   7.610   0.966   5.248
   29DOPE  C314 3726   7.529   0.985   5.048
   29DOPE  H14X 3727   7.561   0.882   5.023
   29DOPE  H14Y 3728   7.611   1.054   5.016
   29DOPE  C315 3729   7.403   1.018   4.967
   29DOPE  H15X 3730   7.323   0.946   4.993
   29DOPE  H15Y 3731   7.426   1.004   4.859
   29DOPE  C316 3732   7.350   1.161   4.986
   29DOPE  H16X 3733   7.323   1.178   5.093
   29DOPE  H16Y 3734   7.257   1.172   4.926
   29DOPE  C317 3735   7.449   1.270   4.941
   29DOPE  H17X 3736   7.540   1.265   5.006
   29DOPE  H17Y 3737   7.482   1.246   4.838
   29DOPE  C318 3738   7.391   1.411   4.945
   29DOPE  H18X 3739   7.307   1.421   4.873
   29DOPE  H18Y 3740   7.354   1.435   5.047
   29DOPE  H18Z 3741   7.469   1.486   4.918
   30DOPE     N 3742   0.658   7.331   7.286
   30DOPE   HN1 3743   0.747   7.379   7.265
   30DOPE   HN2 3744   0.669   7.279   7.376
   30DOPE   HN3 3745   0.635   7.263   7.210
   30DOPE   C12 3746   0.546   7.433   7.296
   30DOPE  H12A 3747   0.592   7.529   7.327
   30DOPE  H12B 3748   0.476   7.399   7.375
   30DOPE   C11 3749   0.471   7.449   7.162
   30DOPE  H11A 3750   0.540   7.455   7.075
   30DOPE  H11B 3751   0.418   7.547   7.166
   30DOPE     P 3752   0.405   7.204   7.093
   30DOPE   O13 3753   0.337   7.111   7.187
   30DOPE   O14 3754   0.551   7.192   7.081
   30DOPE   O11 3755   0.331   7.196   6.954
   30DOPE   O12 3756   0.371   7.348   7.145
   30DOPE    C1 3757   0.188   7.198   6.950
   30DOPE    HA 3758   0.142   7.227   7.048
   30DOPE    HB 3759   0.151   7.096   6.927
   30DOPE    C2 3760   0.128   7.300   6.848
   30DOPE    HS 3761   0.023   7.321   6.879
   30DOPE   O21 3762   0.131   7.245   6.715
   30DOPE   C21 3763   0.038   7.152   6.694
   30DOPE   O22 3764  -0.045   7.117   6.777
   30DOPE   C22 3765   0.038   7.104   6.549
   30DOPE   H2R 3766  -0.015   7.181   6.489
   30DOPE   H2S 3767  -0.021   7.010   6.545
   30DOPE    C3 3768   0.200   7.439   6.853
   30DOPE    HX 3769   0.202   7.470   6.960
   30DOPE    HY 3770   0.138   7.513   6.799
   30DOPE   O31 3771   0.336   7.432   6.806
   30DOPE   C31 3772   0.353   7.462   6.678
   30DOPE   O32 3773   0.270   7.515   6.606
   30DOPE   C32 3774   0.495   7.423   6.637
   30DOPE   H2X 3775   0.564   7.478   6.704
   30DOPE   H2Y 3776   0.507   7.314   6.656
   30DOPE   C23 3777   0.177   7.081   6.483
   30DOPE   H3R 3778   0.232   7.001   6.538
   30DOPE   H3S 3779   0.237   7.174   6.489
   30DOPE   C24 3780   0.161   7.041   6.335
   30DOPE   H4R 3781   0.097   7.116   6.285
   30DOPE   H4S 3782   0.109   6.943   6.330
   30DOPE   C25 3783   0.295   7.031   6.259
   30DOPE   H5R 3784   0.361   6.959   6.312
   30DOPE   H5S 3785   0.344   7.130   6.262
   30DOPE   C26 3786   0.280   6.987   6.112
   30DOPE   H6R 3787   0.240   6.884   6.107
   30DOPE   H6S 3788   0.382   6.985   6.067
   30DOPE   C27 3789   0.191   7.080   6.027
   30DOPE   H7R 3790   0.206   7.184   6.062
   30DOPE   H7S 3791   0.084   7.054   6.046
   30DOPE   C28 3792   0.220   7.076   5.876
   30DOPE   H8R 3793   0.318   7.126   5.859
   30DOPE   H8S 3794   0.143   7.138   5.826
   30DOPE   C29 3795   0.220   6.938   5.814
   30DOPE   H9R 3796   0.155   6.865   5.864
   30DOPE  C210 3797   0.290   6.901   5.705
   30DOPE  H10R 3798   0.282   6.797   5.671
   30DOPE  C211 3799   0.383   6.987   5.623
   30DOPE  H11R 3800   0.354   7.094   5.628
   30DOPE  H11S 3801   0.376   6.957   5.516
   30DOPE  C212 3802   0.530   6.975   5.668
   30DOPE  H12R 3803   0.556   6.868   5.681
   30DOPE  H12S 3804   0.539   7.023   5.768
   30DOPE  C213 3805   0.634   7.037   5.572
   30DOPE  H13R 3806   0.647   6.972   5.483
   30DOPE  H13S 3807   0.731   7.036   5.626
   30DOPE  C214 3808   0.608   7.182   5.527
   30DOPE  H14R 3809   0.706   7.233   5.517
   30DOPE  H14S 3810   0.552   7.235   5.606
   30DOPE  C215 3811   0.533   7.199   5.393
   30DOPE  H15R 3812   0.529   7.307   5.369
   30DOPE  H15S 3813   0.428   7.164   5.407
   30DOPE  C216 3814   0.592   7.124   5.272
   30DOPE  H16R 3815   0.536   7.154   5.181
   30DOPE  H16S 3816   0.576   7.015   5.285
   30DOPE  C217 3817   0.742   7.148   5.247
   30DOPE  H17R 3818   0.799   7.126   5.340
   30DOPE  H17S 3819   0.758   7.255   5.222
   30DOPE  C218 3820   0.797   7.059   5.135
   30DOPE  H18R 3821   0.789   6.952   5.163
   30DOPE  H18S 3822   0.904   7.082   5.116
   30DOPE  H18T 3823   0.740   7.075   5.042
   30DOPE   C33 3824   0.525   7.456   6.490
   30DOPE   H3X 3825   0.635   7.447   6.474
   30DOPE   H3Y 3826   0.497   7.561   6.467
   30DOPE   C34 3827   0.455   7.363   6.390
   30DOPE   H4X 3828   0.492   7.258   6.404
   30DOPE   H4Y 3829   0.346   7.363   6.412
   30DOPE   C35 3830   0.473   7.408   6.245
   30DOPE   H5X 3831   0.448   7.516   6.239
   30DOPE   H5Y 3832   0.399   7.354   6.181
   30DOPE   C36 3833   0.615   7.386   6.189
   30DOPE   H6X 3834   0.689   7.419   6.266
   30DOPE   H6Y 3835   0.629   7.452   6.101
   30DOPE   C37 3836   0.645   7.242   6.146
   30DOPE   H7X 3837   0.754   7.233   6.123
   30DOPE   H7Y 3838   0.625   7.174   6.232
   30DOPE   C38 3839   0.564   7.194   6.024
   30DOPE   H8X 3840   0.456   7.202   6.048
   30DOPE   H8Y 3841   0.584   7.086   6.009
   30DOPE   C39 3842   0.596   7.267   5.896
   30DOPE   H9X 3843   0.685   7.230   5.843
   30DOPE  C310 3844   0.529   7.371   5.843
   30DOPE  H10X 3845   0.565   7.413   5.747
   30DOPE  C311 3846   0.406   7.440   5.898
   30DOPE  H11X 3847   0.345   7.372   5.960
   30DOPE  H11Y 3848   0.438   7.524   5.963
   30DOPE  C312 3849   0.317   7.500   5.787
   30DOPE  H12X 3850   0.379   7.553   5.712
   30DOPE  H12Y 3851   0.250   7.576   5.833
   30DOPE  C313 3852   0.228   7.395   5.719
   30DOPE  H13X 3853   0.289   7.307   5.690
   30DOPE  H13Y 3854   0.152   7.362   5.792
   30DOPE  C314 3855   0.157   7.449   5.594
   30DOPE  H14X 3856   0.126   7.555   5.611
   30DOPE  H14Y 3857   0.065   7.389   5.577
   30DOPE  C315 3858   0.244   7.438   5.468
   30DOPE  H15X 3859   0.268   7.330   5.454
   30DOPE  H15Y 3860   0.340   7.492   5.484
   30DOPE  C316 3861   0.176   7.493   5.343
   30DOPE  H16X 3862   0.166   7.603   5.354
   30DOPE  H16Y 3863   0.073   7.451   5.334
   30DOPE  C317 3864   0.252   7.462   5.213
   30DOPE  H17X 3865   0.208   7.523   5.131
   30DOPE  H17Y 3866   0.358   7.494   5.226
   30DOPE  C318 3867   0.248   7.314   5.171
   30DOPE  H18X 3868   0.290   7.249   5.250
   30DOPE  H18Y 3869   0.143   7.282   5.152
   30DOPE  H18Z 3870   0.307   7.299   5.078
   31DOPE     N 3871   3.334   3.249   2.803
   31DOPE   HN1 3872   3.357   3.286   2.709
   31DOPE   HN2 3873   3.237   3.277   2.827
   31DOPE   HN3 3874   3.398   3.293   2.873
   31DOPE   C12 3875   3.350   3.099   2.803
   31DOPE  H12A 3876   3.452   3.077   2.842
   31DOPE  H12B 3877   3.346   3.066   2.697
   31DOPE   C11 3878   3.243   3.027   2.886
   31DOPE  H11A 3879   3.254   3.055   2.992
   31DOPE  H11B 3880   3.264   2.918   2.881
   31DOPE     P 3881   3.015   3.155   2.902
   31DOPE   O13 3882   2.874   3.129   2.867
   31DOPE   O14 3883   3.069   3.289   2.868
   31DOPE   O11 3884   3.039   3.129   3.055
   31DOPE   O12 3885   3.110   3.049   2.834
   31DOPE    C1 3886   2.945   3.054   3.132
   31DOPE    HA 3887   2.896   2.974   3.072
   31DOPE    HB 3888   2.867   3.122   3.170
   31DOPE    C2 3889   3.016   2.989   3.253
   31DOPE    HS 3890   3.085   2.910   3.216
   31DOPE   O21 3891   2.917   2.935   3.342
   31DOPE   C21 3892   2.854   2.829   3.295
   31DOPE   O22 3893   2.894   2.755   3.207
   31DOPE   C22 3894   2.715   2.819   3.358
   31DOPE   H2R 3895   2.667   2.731   3.310
   31DOPE   H2S 3896   2.657   2.910   3.330
   31DOPE    C3 3897   3.105   3.092   3.330
   31DOPE    HX 3898   3.174   3.138   3.256
   31DOPE    HY 3899   3.168   3.037   3.402
   31DOPE   O31 3900   3.024   3.196   3.389
   31DOPE   C31 3901   2.999   3.182   3.519
   31DOPE   O32 3902   3.053   3.102   3.594
   31DOPE   C32 3903   2.889   3.279   3.561
   31DOPE   H2X 3904   2.815   3.286   3.479
   31DOPE   H2Y 3905   2.840   3.232   3.649
   31DOPE   C23 3906   2.711   2.798   3.511
   31DOPE   H3R 3907   2.778   2.715   3.541
   31DOPE   H3S 3908   2.607   2.768   3.536
   31DOPE   C24 3909   2.742   2.923   3.595
   31DOPE   H4R 3910   2.703   3.014   3.545
   31DOPE   H4S 3911   2.853   2.933   3.603
   31DOPE   C25 3912   2.680   2.913   3.735
   31DOPE   H5R 3913   2.693   2.809   3.772
   31DOPE   H5S 3914   2.571   2.930   3.728
   31DOPE   C26 3915   2.742   3.008   3.838
   31DOPE   H6R 3916   2.718   3.113   3.810
   31DOPE   H6S 3917   2.853   2.997   3.834
   31DOPE   C27 3918   2.696   2.980   3.983
   31DOPE   H7R 3919   2.745   3.053   4.051
   31DOPE   H7S 3920   2.730   2.879   4.012
   31DOPE   C28 3921   2.544   2.987   4.006
   31DOPE   H8R 3922   2.524   2.967   4.114
   31DOPE   H8S 3923   2.495   2.904   3.950
   31DOPE   C29 3924   2.487   3.119   3.962
   31DOPE   H9R 3925   2.476   3.129   3.853
   31DOPE  C210 3926   2.450   3.222   4.040
   31DOPE  H10R 3927   2.411   3.312   3.990
   31DOPE  C211 3928   2.457   3.234   4.190
   31DOPE  H11R 3929   2.510   3.149   4.238
   31DOPE  H11S 3930   2.353   3.233   4.231
   31DOPE  C212 3931   2.524   3.366   4.233
   31DOPE  H12R 3932   2.504   3.444   4.157
   31DOPE  H12S 3933   2.634   3.351   4.239
   31DOPE  C213 3934   2.473   3.423   4.367
   31DOPE  H13R 3935   2.362   3.435   4.359
   31DOPE  H13S 3936   2.516   3.525   4.381
   31DOPE  C214 3937   2.505   3.339   4.491
   31DOPE  H14R 3938   2.466   3.236   4.477
   31DOPE  H14S 3939   2.452   3.384   4.577
   31DOPE  C215 3940   2.655   3.332   4.526
   31DOPE  H15R 3941   2.698   3.434   4.521
   31DOPE  H15S 3942   2.707   3.269   4.450
   31DOPE  C216 3943   2.678   3.275   4.666
   31DOPE  H16R 3944   2.627   3.176   4.675
   31DOPE  H16S 3945   2.631   3.342   4.741
   31DOPE  C217 3946   2.827   3.258   4.701
   31DOPE  H17R 3947   2.877   3.356   4.693
   31DOPE  H17S 3948   2.873   3.190   4.625
   31DOPE  C218 3949   2.850   3.200   4.841
   31DOPE  H18R 3950   2.801   3.101   4.850
   31DOPE  H18S 3951   2.808   3.268   4.918
   31DOPE  H18T 3952   2.959   3.187   4.860
   31DOPE   C33 3953   2.944   3.418   3.598
   31DOPE   H3X 3954   2.982   3.468   3.506
   31DOPE   H3Y 3955   3.030   3.407   3.668
   31DOPE   C34 3956   2.839   3.509   3.664
   31DOPE   H4X 3957   2.885   3.607   3.686
   31DOPE   H4Y 3958   2.756   3.527   3.592
   31DOPE   C35 3959   2.779   3.453   3.795
   31DOPE   H5X 3960   2.720   3.362   3.773
   31DOPE   H5Y 3961   2.708   3.528   3.837
   31DOPE   C36 3962   2.883   3.420   3.903
   31DOPE   H6X 3963   2.945   3.511   3.923
   31DOPE   H6Y 3964   2.951   3.340   3.866
   31DOPE   C37 3965   2.818   3.376   4.034
   31DOPE   H7X 3966   2.757   3.460   4.073
   31DOPE   H7Y 3967   2.748   3.292   4.014
   31DOPE   C38 3968   2.919   3.334   4.143
   31DOPE   H8X 3969   2.862   3.313   4.237
   31DOPE   H8Y 3970   2.986   3.420   4.164
   31DOPE   C39 3971   2.997   3.211   4.104
   31DOPE   H9X 3972   2.949   3.147   4.029
   31DOPE  C310 3973   3.119   3.177   4.151
   31DOPE  H10X 3974   3.166   3.084   4.115
   31DOPE  C311 3975   3.199   3.253   4.252
   31DOPE  H11X 3976   3.282   3.306   4.199
   31DOPE  H11Y 3977   3.139   3.331   4.304
   31DOPE  C312 3978   3.264   3.164   4.360
   31DOPE  H12X 3979   3.329   3.229   4.422
   31DOPE  H12Y 3980   3.331   3.089   4.312
   31DOPE  C313 3981   3.167   3.092   4.454
   31DOPE  H13X 3982   3.093   3.166   4.493
   31DOPE  H13Y 3983   3.111   3.013   4.399
   31DOPE  C314 3984   3.243   3.031   4.572
   31DOPE  H14X 3985   3.296   3.114   4.625
   31DOPE  H14Y 3986   3.321   2.961   4.533
   31DOPE  C315 3987   3.157   2.958   4.676
   31DOPE  H15X 3988   3.117   2.865   4.630
   31DOPE  H15Y 3989   3.070   3.022   4.703
   31DOPE  C316 3990   3.239   2.926   4.802
   31DOPE  H16X 3991   3.255   3.020   4.858
   31DOPE  H16Y 3992   3.339   2.888   4.771
   31DOPE  C317 3993   3.176   2.821   4.895
   31DOPE  H17X 3994   3.187   2.721   4.847
   31DOPE  H17Y 3995   3.234   2.818   4.989
   31DOPE  C318 3996   3.028   2.844   4.926
   31DOPE  H18X 3997   2.967   2.834   4.834
   31DOPE  H18Y 3998   2.992   2.768   5.000
   31DOPE  H18Z 3999   3.012   2.945   4.969
   32DOPE     N 4000   4.725   2.957   3.204
   32DOPE   HN1 4001   4.762   3.019   3.278
   32DOPE   HN2 4002   4.785   2.873   3.192
   32DOPE   HN3 4003   4.731   3.009   3.114
   32DOPE   C12 4004   4.579   2.923   3.225
   32DOPE  H12A 4005   4.540   2.989   3.304
   32DOPE  H12B 4006   4.573   2.817   3.259
   32DOPE   C11 4007   4.497   2.944   3.096
   32DOPE  H11A 4008   4.391   2.923   3.118
   32DOPE  H11B 4009   4.527   2.871   3.018
   32DOPE     P 4010   4.600   3.120   2.930
   32DOPE   O13 4011   4.536   3.073   2.805
   32DOPE   O14 4012   4.734   3.069   2.967
   32DOPE   O11 4013   4.595   3.278   2.935
   32DOPE   O12 4014   4.507   3.080   3.051
   32DOPE    C1 4015   4.703   3.358   2.886
   32DOPE    HA 4016   4.660   3.442   2.827
   32DOPE    HB 4017   4.769   3.302   2.816
   32DOPE    C2 4018   4.790   3.423   2.999
   32DOPE    HS 4019   4.863   3.491   2.950
   32DOPE   O21 4020   4.858   3.322   3.076
   32DOPE   C21 4021   4.967   3.272   3.021
   32DOPE   O22 4022   5.005   3.287   2.906
   32DOPE   C22 4023   5.045   3.198   3.130
   32DOPE   H2R 4024   5.135   3.153   3.083
   32DOPE   H2S 4025   4.980   3.118   3.171
   32DOPE    C3 4026   4.706   3.513   3.096
   32DOPE    HX 4027   4.659   3.592   3.034
   32DOPE    HY 4028   4.776   3.564   3.165
   32DOPE   O31 4029   4.602   3.440   3.165
   32DOPE   C31 4030   4.637   3.384   3.279
   32DOPE   O32 4031   4.742   3.399   3.339
   32DOPE   C32 4032   4.525   3.290   3.324
   32DOPE   H2X 4033   4.428   3.341   3.306
   32DOPE   H2Y 4034   4.528   3.201   3.257
   32DOPE   C23 4035   5.088   3.296   3.242
   32DOPE   H3R 4036   5.000   3.350   3.283
   32DOPE   H3S 4037   5.155   3.373   3.198
   32DOPE   C24 4038   5.164   3.230   3.358
   32DOPE   H4R 4039   5.202   3.311   3.424
   32DOPE   H4S 4040   5.253   3.176   3.318
   32DOPE   C25 4041   5.083   3.133   3.447
   32DOPE   H5R 4042   5.145   3.111   3.536
   32DOPE   H5S 4043   5.067   3.037   3.393
   32DOPE   C26 4044   4.948   3.189   3.493
   32DOPE   H6R 4045   4.873   3.175   3.412
   32DOPE   H6S 4046   4.956   3.299   3.508
   32DOPE   C27 4047   4.898   3.127   3.625
   32DOPE   H7R 4048   4.942   3.026   3.637
   32DOPE   H7S 4049   4.787   3.116   3.620
   32DOPE   C28 4050   4.932   3.217   3.745
   32DOPE   H8R 4051   4.884   3.316   3.728
   32DOPE   H8S 4052   5.041   3.234   3.745
   32DOPE   C29 4053   4.888   3.161   3.878
   32DOPE   H9R 4054   4.831   3.067   3.874
   32DOPE  C210 4055   4.913   3.218   3.997
   32DOPE  H10R 4056   4.876   3.170   4.089
   32DOPE  C211 4057   4.989   3.347   4.018
   32DOPE  H11R 4058   5.036   3.383   3.924
   32DOPE  H11S 4059   5.073   3.330   4.090
   32DOPE  C212 4060   4.902   3.462   4.072
   32DOPE  H12R 4061   4.820   3.482   4.000
   32DOPE  H12S 4062   4.964   3.553   4.078
   32DOPE  C213 4063   4.841   3.437   4.212
   32DOPE  H13R 4064   4.768   3.354   4.206
   32DOPE  H13S 4065   4.785   3.528   4.242
   32DOPE  C214 4066   4.944   3.406   4.321
   32DOPE  H14R 4067   5.022   3.485   4.321
   32DOPE  H14S 4068   4.994   3.309   4.298
   32DOPE  C215 4069   4.879   3.397   4.460
   32DOPE  H15R 4070   4.794   3.327   4.454
   32DOPE  H15S 4071   4.839   3.497   4.486
   32DOPE  C216 4072   4.974   3.349   4.570
   32DOPE  H16R 4073   5.023   3.254   4.539
   32DOPE  H16S 4074   4.914   3.327   4.661
   32DOPE  C217 4075   5.082   3.451   4.609
   32DOPE  H17R 4076   5.032   3.546   4.636
   32DOPE  H17S 4077   5.147   3.470   4.522
   32DOPE  C218 4078   5.168   3.404   4.727
   32DOPE  H18R 4079   5.105   3.385   4.816
   32DOPE  H18S 4080   5.243   3.482   4.754
   32DOPE  H18T 4081   5.223   3.311   4.702
   32DOPE   C33 4082   4.537   3.248   3.472
   32DOPE   H3X 4083   4.547   3.339   3.534
   32DOPE   H3Y 4084   4.628   3.187   3.490
   32DOPE   C34 4085   4.412   3.171   3.521
   32DOPE   H4X 4086   4.327   3.200   3.455
   32DOPE   H4Y 4087   4.427   3.062   3.511
   32DOPE   C35 4088   4.370   3.207   3.664
   32DOPE   H5X 4089   4.268   3.166   3.685
   32DOPE   H5Y 4090   4.360   3.317   3.669
   32DOPE   C36 4091   4.466   3.160   3.775
   32DOPE   H6X 4092   4.454   3.230   3.861
   32DOPE   H6Y 4093   4.572   3.168   3.742
   32DOPE   C37 4094   4.436   3.020   3.829
   32DOPE   H7X 4095   4.326   3.014   3.849
   32DOPE   H7Y 4096   4.461   2.943   3.752
   32DOPE   C38 4097   4.512   2.991   3.960
   32DOPE   H8X 4098   4.493   3.076   4.030
   32DOPE   H8Y 4099   4.621   2.992   3.938
   32DOPE   C39 4100   4.468   2.863   4.026
   32DOPE   H9X 4101   4.359   2.849   4.031
   32DOPE  C310 4102   4.546   2.767   4.080
   32DOPE  H10X 4103   4.498   2.680   4.127
   32DOPE  C311 4104   4.697   2.766   4.087
   32DOPE  H11X 4105   4.735   2.676   4.035
   32DOPE  H11Y 4106   4.743   2.854   4.037
   32DOPE  C312 4107   4.750   2.762   4.232
   32DOPE  H12X 4108   4.860   2.749   4.228
   32DOPE  H12Y 4109   4.708   2.675   4.286
   32DOPE  C313 4110   4.724   2.890   4.312
   32DOPE  H13X 4111   4.764   2.978   4.256
   32DOPE  H13Y 4112   4.615   2.905   4.325
   32DOPE  C314 4113   4.792   2.884   4.450
   32DOPE  H14X 4114   4.901   2.867   4.436
   32DOPE  H14Y 4115   4.751   2.798   4.506
   32DOPE  C315 4116   4.772   3.013   4.532
   32DOPE  H15X 4117   4.663   3.030   4.547
   32DOPE  H15Y 4118   4.811   3.098   4.473
   32DOPE  C316 4119   4.844   3.010   4.668
   32DOPE  H16X 4120   4.825   3.107   4.720
   32DOPE  H16Y 4121   4.953   3.003   4.651
   32DOPE  C317 4122   4.801   2.896   4.762
   32DOPE  H17X 4123   4.830   2.798   4.717
   32DOPE  H17Y 4124   4.858   2.906   4.856
   32DOPE  C318 4125   4.651   2.893   4.794
   32DOPE  H18X 4126   4.592   2.872   4.702
   32DOPE  H18Y 4127   4.628   2.815   4.869
   32DOPE  H18Z 4128   4.618   2.992   4.834
   33DOPE     N 4129   3.495   2.233   2.904
   33DOPE   HN1 4130   3.576   2.247   2.840
   33DOPE   HN2 4131   3.461   2.135   2.896
   33DOPE   HN3 4132   3.418   2.299   2.879
   33DOPE   C12 4133   3.530   2.259   3.048
   33DOPE  H12A 4134   3.543   2.369   3.061
   33DOPE  H12B 4135   3.627   2.209   3.070
   33DOPE   C11 4136   3.418   2.205   3.141
   33DOPE  H11A 4137   3.435   2.241   3.245
   33DOPE  H11B 4138   3.427   2.094   3.146
   33DOPE     P 4139   3.238   2.385   3.094
   33DOPE   O13 4140   3.090   2.387   3.093
   33DOPE   O14 4141   3.307   2.453   2.982
   33DOPE   O11 4142   3.293   2.438   3.231
   33DOPE   O12 4143   3.287   2.235   3.093
   33DOPE    C1 4144   3.222   2.411   3.353
   33DOPE    HA 4145   3.294   2.396   3.436
   33DOPE    HB 4146   3.162   2.317   3.347
   33DOPE    C2 4147   3.128   2.528   3.391
   33DOPE    HS 4148   3.083   2.569   3.298
   33DOPE   O21 4149   3.202   2.629   3.461
   33DOPE   C21 4150   3.272   2.713   3.388
   33DOPE   O22 4151   3.264   2.726   3.267
   33DOPE   C22 4152   3.368   2.793   3.476
   33DOPE   H2R 4153   3.405   2.876   3.411
   33DOPE   H2S 4154   3.454   2.728   3.501
   33DOPE    C3 4155   3.008   2.482   3.479
   33DOPE    HX 4156   2.950   2.405   3.424
   33DOPE    HY 4157   2.942   2.570   3.492
   33DOPE   O31 4158   3.049   2.438   3.611
   33DOPE   C31 4159   3.048   2.308   3.637
   33DOPE   O32 4160   3.027   2.219   3.557
   33DOPE   C32 4161   3.079   2.290   3.786
   33DOPE   H2X 4162   3.189   2.278   3.799
   33DOPE   H2Y 4163   3.048   2.383   3.838
   33DOPE   C23 4164   3.305   2.855   3.603
   33DOPE   H3R 4165   3.203   2.892   3.581
   33DOPE   H3S 4166   3.365   2.943   3.634
   33DOPE   C24 4167   3.297   2.759   3.724
   33DOPE   H4R 4168   3.244   2.666   3.696
   33DOPE   H4S 4169   3.236   2.809   3.803
   33DOPE   C25 4170   3.434   2.723   3.786
   33DOPE   H5R 4171   3.482   2.816   3.823
   33DOPE   H5S 4172   3.500   2.680   3.708
   33DOPE   C26 4173   3.420   2.623   3.901
   33DOPE   H6R 4174   3.376   2.529   3.860
   33DOPE   H6S 4175   3.349   2.664   3.976
   33DOPE   C27 4176   3.553   2.590   3.970
   33DOPE   H7R 4177   3.588   2.680   4.025
   33DOPE   H7S 4178   3.629   2.568   3.892
   33DOPE   C28 4179   3.545   2.470   4.066
   33DOPE   H8R 4180   3.647   2.451   4.107
   33DOPE   H8S 4181   3.519   2.380   4.006
   33DOPE   C29 4182   3.443   2.489   4.176
   33DOPE   H9R 4183   3.339   2.478   4.143
   33DOPE  C210 4184   3.467   2.518   4.305
   33DOPE  H10R 4185   3.381   2.529   4.373
   33DOPE  C211 4186   3.601   2.539   4.372
   33DOPE  H11R 4187   3.684   2.532   4.299
   33DOPE  H11S 4188   3.618   2.459   4.447
   33DOPE  C212 4189   3.613   2.676   4.441
   33DOPE  H12R 4190   3.600   2.756   4.365
   33DOPE  H12S 4191   3.716   2.687   4.481
   33DOPE  C213 4192   3.514   2.702   4.556
   33DOPE  H13R 4193   3.412   2.712   4.512
   33DOPE  H13S 4194   3.538   2.800   4.603
   33DOPE  C214 4195   3.508   2.595   4.667
   33DOPE  H14R 4196   3.484   2.495   4.625
   33DOPE  H14S 4197   3.423   2.623   4.733
   33DOPE  C215 4198   3.633   2.586   4.757
   33DOPE  H15R 4199   3.599   2.546   4.856
   33DOPE  H15S 4200   3.674   2.687   4.776
   33DOPE  C216 4201   3.742   2.492   4.704
   33DOPE  H16R 4202   3.787   2.536   4.613
   33DOPE  H16S 4203   3.696   2.395   4.676
   33DOPE  C217 4204   3.855   2.465   4.805
   33DOPE  H17R 4205   3.895   2.562   4.841
   33DOPE  H17S 4206   3.938   2.413   4.752
   33DOPE  C218 4207   3.814   2.379   4.925
   33DOPE  H18R 4208   3.778   2.279   4.891
   33DOPE  H18S 4209   3.732   2.428   4.983
   33DOPE  H18T 4210   3.900   2.363   4.993
   33DOPE   C33 4211   3.005   2.171   3.853
   33DOPE   H3X 4212   3.071   2.081   3.850
   33DOPE   H3Y 4213   2.912   2.146   3.797
   33DOPE   C34 4214   2.965   2.197   3.999
   33DOPE   H4X 4215   2.887   2.276   4.000
   33DOPE   H4Y 4216   2.917   2.106   4.042
   33DOPE   C35 4217   3.080   2.243   4.090
   33DOPE   H5X 4218   3.036   2.299   4.176
   33DOPE   H5Y 4219   3.145   2.315   4.037
   33DOPE   C36 4220   3.166   2.129   4.146
   33DOPE   H6X 4221   3.251   2.176   4.200
   33DOPE   H6Y 4222   3.209   2.071   4.061
   33DOPE   C37 4223   3.094   2.032   4.241
   33DOPE   H7X 4224   3.025   1.968   4.183
   33DOPE   H7Y 4225   3.171   1.966   4.287
   33DOPE   C38 4226   3.014   2.099   4.355
   33DOPE   H8X 4227   2.972   2.018   4.420
   33DOPE   H8Y 4228   2.926   2.151   4.312
   33DOPE   C39 4229   3.097   2.196   4.435
   33DOPE   H9X 4230   3.098   2.299   4.396
   33DOPE  C310 4231   3.168   2.168   4.545
   33DOPE  H10X 4232   3.226   2.250   4.592
   33DOPE  C311 4233   3.182   2.035   4.614
   33DOPE  H11X 4234   3.135   1.954   4.554
   33DOPE  H11Y 4235   3.289   2.009   4.625
   33DOPE  C312 4236   3.121   2.032   4.756
   33DOPE  H12X 4237   3.130   1.930   4.796
   33DOPE  H12Y 4238   3.012   2.053   4.749
   33DOPE  C313 4239   3.187   2.130   4.854
   33DOPE  H13X 4240   3.238   2.071   4.934
   33DOPE  H13Y 4241   3.267   2.189   4.803
   33DOPE  C314 4242   3.088   2.226   4.922
   33DOPE  H14X 4243   3.140   2.285   5.000
   33DOPE  H14Y 4244   3.012   2.163   4.973
   33DOPE  C315 4245   3.016   2.325   4.828
   33DOPE  H15X 4246   2.931   2.372   4.882
   33DOPE  H15Y 4247   2.972   2.268   4.742
   33DOPE  C316 4248   3.107   2.436   4.775
   33DOPE  H16X 4249   3.203   2.391   4.741
   33DOPE  H16Y 4250   3.132   2.506   4.857
   33DOPE  C317 4251   3.046   2.512   4.657
   33DOPE  H17X 4252   2.992   2.440   4.591
   33DOPE  H17Y 4253   2.970   2.584   4.695
   33DOPE  C318 4254   3.151   2.585   4.573
   33DOPE  H18X 4255   3.207   2.658   4.635
   33DOPE  H18Y 4256   3.223   2.513   4.530
   33DOPE  H18Z 4257   3.103   2.641   4.490
   34DOPE     N 4258   2.426   4.428   2.906
   34DOPE   HN1 4259   2.527   4.429   2.880
   34DOPE   HN2 4260   2.383   4.341   2.869
   34DOPE   HN3 4261   2.378   4.509   2.862
   34DOPE   C12 4262   2.406   4.440   3.054
   34DOPE  H12A 4263   2.440   4.542   3.084
   34DOPE  H12B 4264   2.470   4.365   3.105
   34DOPE   C11 4265   2.258   4.421   3.089
   34DOPE  H11A 4266   2.245   4.446   3.197
   34DOPE  H11B 4267   2.230   4.314   3.076
   34DOPE     P 4268   2.047   4.576   3.057
   34DOPE   O13 4269   1.938   4.571   2.957
   34DOPE   O14 4270   2.087   4.711   3.103
   34DOPE   O11 4271   2.005   4.489   3.182
   34DOPE   O12 4272   2.175   4.501   3.003
   34DOPE    C1 4273   1.930   4.549   3.288
   34DOPE    HA 4274   1.839   4.488   3.307
   34DOPE    HB 4275   1.893   4.650   3.263
   34DOPE    C2 4276   2.009   4.563   3.423
   34DOPE    HS 4277   1.970   4.653   3.475
   34DOPE   O21 4278   2.151   4.568   3.402
   34DOPE   C21 4279   2.204   4.688   3.406
   34DOPE   O22 4280   2.143   4.794   3.398
   34DOPE   C22 4281   2.353   4.674   3.436
   34DOPE   H2R 4282   2.401   4.773   3.421
   34DOPE   H2S 4283   2.397   4.601   3.365
   34DOPE    C3 4284   1.983   4.446   3.520
   34DOPE    HX 4285   2.046   4.360   3.490
   34DOPE    HY 4286   1.876   4.415   3.512
   34DOPE   O31 4287   2.013   4.490   3.653
   34DOPE   C31 4288   1.994   4.397   3.746
   34DOPE   O32 4289   1.959   4.282   3.723
   34DOPE   C32 4290   2.019   4.459   3.883
   34DOPE   H2X 4291   2.115   4.513   3.881
   34DOPE   H2Y 4292   1.937   4.531   3.902
   34DOPE   C23 4293   2.374   4.626   3.582
   34DOPE   H3R 4294   2.322   4.529   3.596
   34DOPE   H3S 4295   2.328   4.699   3.652
   34DOPE   C24 4296   2.522   4.608   3.619
   34DOPE   H4R 4297   2.576   4.702   3.595
   34DOPE   H4S 4298   2.566   4.527   3.558
   34DOPE   C25 4299   2.543   4.577   3.769
   34DOPE   H5R 4300   2.503   4.662   3.829
   34DOPE   H5S 4301   2.652   4.569   3.788
   34DOPE   C26 4302   2.476   4.446   3.816
   34DOPE   H6R 4303   2.513   4.363   3.752
   34DOPE   H6S 4304   2.366   4.453   3.802
   34DOPE   C27 4305   2.505   4.413   3.963
   34DOPE   H7R 4306   2.615   4.403   3.978
   34DOPE   H7S 4307   2.460   4.314   3.984
   34DOPE   C28 4308   2.449   4.517   4.062
   34DOPE   H8R 4309   2.346   4.544   4.028
   34DOPE   H8S 4310   2.510   4.610   4.056
   34DOPE   C29 4311   2.444   4.466   4.204
   34DOPE   H9R 4312   2.497   4.372   4.222
   34DOPE  C210 4313   2.380   4.526   4.306
   34DOPE  H10R 4314   2.380   4.478   4.405
   34DOPE  C211 4315   2.303   4.655   4.298
   34DOPE  H11R 4316   2.329   4.711   4.205
   34DOPE  H11S 4317   2.331   4.722   4.382
   34DOPE  C212 4318   2.149   4.639   4.295
   34DOPE  H12R 4319   2.120   4.579   4.206
   34DOPE  H12S 4320   2.105   4.740   4.281
   34DOPE  C213 4321   2.085   4.577   4.420
   34DOPE  H13R 4322   2.101   4.467   4.419
   34DOPE  H13S 4323   1.975   4.594   4.413
   34DOPE  C214 4324   2.135   4.633   4.554
   34DOPE  H14R 4325   2.154   4.742   4.543
   34DOPE  H14S 4326   2.232   4.584   4.580
   34DOPE  C215 4327   2.034   4.613   4.668
   34DOPE  H15R 4328   2.000   4.507   4.670
   34DOPE  H15S 4329   1.946   4.677   4.646
   34DOPE  C216 4330   2.087   4.652   4.806
   34DOPE  H16R 4331   2.139   4.750   4.796
   34DOPE  H16S 4332   2.162   4.578   4.841
   34DOPE  C217 4333   1.976   4.669   4.912
   34DOPE  H17R 4334   1.896   4.732   4.868
   34DOPE  H17S 4335   2.018   4.725   4.998
   34DOPE  C218 4336   1.915   4.538   4.963
   34DOPE  H18R 4337   1.827   4.559   5.028
   34DOPE  H18S 4338   1.989   4.481   5.023
   34DOPE  H18T 4339   1.882   4.474   4.879
   34DOPE   C33 4340   2.020   4.353   3.995
   34DOPE   H3X 4341   1.929   4.289   3.990
   34DOPE   H3Y 4342   2.019   4.404   4.094
   34DOPE   C34 4343   2.145   4.265   3.987
   34DOPE   H4X 4344   2.150   4.219   3.886
   34DOPE   H4Y 4345   2.236   4.328   4.000
   34DOPE   C35 4346   2.146   4.152   4.090
   34DOPE   H5X 4347   2.226   4.081   4.058
   34DOPE   H5Y 4348   2.050   4.097   4.087
   34DOPE   C36 4349   2.180   4.196   4.233
   34DOPE   H6X 4350   2.227   4.297   4.233
   34DOPE   H6Y 4351   2.257   4.124   4.270
   34DOPE   C37 4352   2.060   4.195   4.329
   34DOPE   H7X 4353   1.997   4.284   4.308
   34DOPE   H7Y 4354   1.997   4.106   4.307
   34DOPE   C38 4355   2.101   4.193   4.478
   34DOPE   H8X 4356   2.009   4.202   4.540
   34DOPE   H8Y 4357   2.162   4.284   4.499
   34DOPE   C39 4358   2.175   4.067   4.515
   34DOPE   H9X 4359   2.112   3.977   4.521
   34DOPE  C310 4360   2.308   4.054   4.538
   34DOPE  H10X 4361   2.347   3.955   4.565
   34DOPE  C311 4362   2.412   4.163   4.530
   34DOPE  H11X 4363   2.490   4.135   4.456
   34DOPE  H11Y 4364   2.369   4.259   4.495
   34DOPE  C312 4365   2.480   4.186   4.666
   34DOPE  H12X 4366   2.531   4.092   4.698
   34DOPE  H12Y 4367   2.404   4.209   4.744
   34DOPE  C313 4368   2.585   4.298   4.664
   34DOPE  H13X 4369   2.646   4.293   4.756
   34DOPE  H13Y 4370   2.653   4.279   4.578
   34DOPE  C314 4371   2.525   4.440   4.651
   34DOPE  H14X 4372   2.420   4.434   4.618
   34DOPE  H14Y 4373   2.582   4.494   4.573
   34DOPE  C315 4374   2.533   4.521   4.781
   34DOPE  H15X 4375   2.637   4.519   4.819
   34DOPE  H15Y 4376   2.468   4.475   4.858
   34DOPE  C316 4377   2.492   4.668   4.760
   34DOPE  H16X 4378   2.387   4.675   4.724
   34DOPE  H16Y 4379   2.557   4.710   4.680
   34DOPE  C317 4380   2.510   4.753   4.886
   34DOPE  H17X 4381   2.601   4.720   4.940
   34DOPE  H17Y 4382   2.526   4.859   4.856
   34DOPE  C318 4383   2.390   4.749   4.981
   34DOPE  H18X 4384   2.365   4.644   5.008
   34DOPE  H18Y 4385   2.413   4.805   5.074
   34DOPE  H18Z 4386   2.301   4.796   4.934
   35DOPE     N 4387   5.830   2.971   3.020
   35DOPE   HN1 4388   5.812   3.058   2.966
   35DOPE   HN2 4389   5.838   3.002   3.119
   35DOPE   HN3 4390   5.918   2.927   2.988
   35DOPE   C12 4391   5.709   2.881   3.005
   35DOPE  H12A 4392   5.723   2.794   3.071
   35DOPE  H12B 4393   5.706   2.848   2.899
   35DOPE   C11 4394   5.579   2.955   3.040
   35DOPE  H11A 4395   5.581   2.989   3.146
   35DOPE  H11B 4396   5.496   2.882   3.033
   35DOPE     P 4397   5.600   3.210   2.971
   35DOPE   O13 4398   5.508   3.304   2.903
   35DOPE   O14 4399   5.744   3.211   2.933
   35DOPE   O11 4400   5.589   3.226   3.127
   35DOPE   O12 4401   5.551   3.061   2.949
   35DOPE    C1 4402   5.683   3.310   3.195
   35DOPE    HA 4403   5.671   3.414   3.161
   35DOPE    HB 4404   5.789   3.281   3.176
   35DOPE    C2 4405   5.656   3.312   3.349
   35DOPE    HS 4406   5.724   3.387   3.395
   35DOPE   O21 4407   5.675   3.186   3.417
   35DOPE   C21 4408   5.761   3.093   3.382
   35DOPE   O22 4409   5.802   3.066   3.271
   35DOPE   C22 4410   5.806   3.020   3.509
   35DOPE   H2R 4411   5.728   2.948   3.539
   35DOPE   H2S 4412   5.814   3.097   3.589
   35DOPE    C3 4413   5.509   3.357   3.373
   35DOPE    HX 4414   5.445   3.281   3.324
   35DOPE    HY 4415   5.491   3.453   3.320
   35DOPE   O31 4416   5.472   3.364   3.513
   35DOPE   C31 4417   5.517   3.473   3.575
   35DOPE   O32 4418   5.580   3.563   3.522
   35DOPE   C32 4419   5.474   3.475   3.722
   35DOPE   H2X 4420   5.549   3.537   3.774
   35DOPE   H2Y 4421   5.376   3.527   3.728
   35DOPE   C23 4422   5.943   2.951   3.492
   35DOPE   H3R 4423   5.996   2.993   3.404
   35DOPE   H3S 4424   5.930   2.842   3.474
   35DOPE   C24 4425   6.041   2.974   3.609
   35DOPE   H4R 4426   6.032   3.079   3.645
   35DOPE   H4S 4427   6.144   2.964   3.568
   35DOPE   C25 4428   6.028   2.876   3.726
   35DOPE   H5R 4429   6.035   2.772   3.688
   35DOPE   H5S 4430   5.928   2.886   3.772
   35DOPE   C26 4431   6.138   2.895   3.833
   35DOPE   H6R 4432   6.236   2.865   3.792
   35DOPE   H6S 4433   6.115   2.825   3.917
   35DOPE   C27 4434   6.150   3.038   3.891
   35DOPE   H7R 4435   6.050   3.087   3.888
   35DOPE   H7S 4436   6.218   3.098   3.829
   35DOPE   C28 4437   6.195   3.037   4.039
   35DOPE   H8R 4438   6.293   2.983   4.044
   35DOPE   H8S 4439   6.121   2.974   4.093
   35DOPE   C29 4440   6.210   3.172   4.103
   35DOPE   H9R 4441   6.290   3.234   4.060
   35DOPE  C210 4442   6.138   3.224   4.205
   35DOPE  H10R 4443   6.162   3.326   4.239
   35DOPE  C211 4444   6.023   3.159   4.279
   35DOPE  H11R 4445   5.944   3.134   4.205
   35DOPE  H11S 4446   5.976   3.231   4.350
   35DOPE  C212 4447   6.053   3.030   4.358
   35DOPE  H12R 4448   6.127   2.971   4.300
   35DOPE  H12S 4449   5.961   2.969   4.366
   35DOPE  C213 4450   6.111   3.051   4.498
   35DOPE  H13R 4451   6.172   3.143   4.501
   35DOPE  H13S 4452   6.179   2.965   4.517
   35DOPE  C214 4453   6.005   3.049   4.609
   35DOPE  H14R 4454   5.941   2.960   4.595
   35DOPE  H14S 4455   5.940   3.139   4.601
   35DOPE  C215 4456   6.069   3.041   4.749
   35DOPE  H15R 4457   6.121   3.137   4.771
   35DOPE  H15S 4458   6.146   2.961   4.747
   35DOPE  C216 4459   5.968   3.007   4.860
   35DOPE  H16R 4460   5.913   2.915   4.830
   35DOPE  H16S 4461   5.894   3.089   4.870
   35DOPE  C217 4462   6.036   2.980   4.995
   35DOPE  H17R 4463   6.116   2.905   4.981
   35DOPE  H17S 4464   5.961   2.935   5.064
   35DOPE  C218 4465   6.094   3.106   5.061
   35DOPE  H18R 4466   6.015   3.182   5.077
   35DOPE  H18S 4467   6.173   3.151   4.996
   35DOPE  H18T 4468   6.140   3.081   5.159
   35DOPE   C33 4469   5.466   3.337   3.792
   35DOPE   H3X 4470   5.511   3.347   3.892
   35DOPE   H3Y 4471   5.525   3.261   3.737
   35DOPE   C34 4472   5.322   3.285   3.810
   35DOPE   H4X 4473   5.260   3.363   3.860
   35DOPE   H4Y 4474   5.278   3.268   3.709
   35DOPE   C35 4475   5.312   3.154   3.890
   35DOPE   H5X 4476   5.385   3.082   3.848
   35DOPE   H5Y 4477   5.211   3.111   3.878
   35DOPE   C36 4478   5.338   3.172   4.041
   35DOPE   H6X 4479   5.257   3.231   4.088
   35DOPE   H6Y 4480   5.431   3.231   4.054
   35DOPE   C37 4481   5.357   3.039   4.117
   35DOPE   H7X 4482   5.415   2.969   4.054
   35DOPE   H7Y 4483   5.416   3.061   4.208
   35DOPE   C38 4484   5.224   2.973   4.161
   35DOPE   H8X 4485   5.164   2.951   4.070
   35DOPE   H8Y 4486   5.166   3.047   4.220
   35DOPE   C39 4487   5.250   2.847   4.239
   35DOPE   H9X 4488   5.254   2.755   4.179
   35DOPE  C310 4489   5.272   2.838   4.372
   35DOPE  H10X 4490   5.292   2.739   4.416
   35DOPE  C311 4491   5.276   2.953   4.471
   35DOPE  H11X 4492   5.236   3.046   4.426
   35DOPE  H11Y 4493   5.212   2.930   4.559
   35DOPE  C312 4494   5.419   2.982   4.519
   35DOPE  H12X 4495   5.485   2.997   4.431
   35DOPE  H12Y 4496   5.459   2.895   4.576
   35DOPE  C313 4497   5.427   3.108   4.606
   35DOPE  H13X 4498   5.377   3.191   4.551
   35DOPE  H13Y 4499   5.371   3.092   4.701
   35DOPE  C314 4500   5.572   3.151   4.636
   35DOPE  H14X 4501   5.628   3.151   4.540
   35DOPE  H14Y 4502   5.620   3.078   4.704
   35DOPE  C315 4503   5.581   3.293   4.695
   35DOPE  H15X 4504   5.516   3.361   4.635
   35DOPE  H15Y 4505   5.685   3.329   4.685
   35DOPE  C316 4506   5.541   3.302   4.843
   35DOPE  H16X 4507   5.615   3.247   4.904
   35DOPE  H16Y 4508   5.442   3.254   4.858
   35DOPE  C317 4509   5.534   3.448   4.892
   35DOPE  H17X 4510   5.632   3.497   4.876
   35DOPE  H17Y 4511   5.459   3.501   4.830
   35DOPE  C318 4512   5.495   3.462   5.040
   35DOPE  H18X 4513   5.398   3.411   5.060
   35DOPE  H18Y 4514   5.573   3.416   5.105
   35DOPE  H18Z 4515   5.485   3.569   5.067
   36DOPE     N 4516   5.859   4.581   3.058
   36DOPE   HN1 4517   5.826   4.661   3.001
   36DOPE   HN2 4518   5.947   4.607   3.107
   36DOPE   HN3 4519   5.875   4.509   2.985
   36DOPE   C12 4520   5.741   4.549   3.148
   36DOPE  H12A 4521   5.709   4.644   3.194
   36DOPE  H12B 4522   5.775   4.479   3.227
   36DOPE   C11 4523   5.622   4.489   3.068
   36DOPE  H11A 4524   5.528   4.506   3.123
   36DOPE  H11B 4525   5.636   4.379   3.063
   36DOPE     P 4526   5.588   4.690   2.901
   36DOPE   O13 4527   5.515   4.703   2.773
   36DOPE   O14 4528   5.723   4.753   2.908
   36DOPE   O11 4529   5.504   4.739   3.024
   36DOPE   O12 4530   5.612   4.537   2.934
   36DOPE    C1 4531   5.457   4.875   3.026
   36DOPE    HA 4532   5.358   4.882   2.977
   36DOPE    HB 4533   5.525   4.944   2.972
   36DOPE    C2 4534   5.444   4.934   3.171
   36DOPE    HS 4535   5.443   5.045   3.162
   36DOPE   O21 4536   5.551   4.891   3.256
   36DOPE   C21 4537   5.670   4.941   3.232
   36DOPE   O22 4538   5.701   5.011   3.137
   36DOPE   C22 4539   5.768   4.899   3.343
   36DOPE   H2R 4540   5.815   4.992   3.381
   36DOPE   H2S 4541   5.848   4.837   3.296
   36DOPE    C3 4542   5.308   4.895   3.238
   36DOPE    HX 4543   5.227   4.917   3.165
   36DOPE    HY 4544   5.291   4.963   3.324
   36DOPE   O31 4545   5.300   4.755   3.275
   36DOPE   C31 4546   5.343   4.729   3.398
   36DOPE   O32 4547   5.381   4.811   3.479
   36DOPE   C32 4548   5.337   4.578   3.421
   36DOPE   H2X 4549   5.229   4.549   3.423
   36DOPE   H2Y 4550   5.385   4.528   3.334
   36DOPE   C23 4551   5.702   4.824   3.461
   36DOPE   H3R 4552   5.653   4.731   3.423
   36DOPE   H3S 4553   5.621   4.887   3.503
   36DOPE   C24 4554   5.795   4.786   3.577
   36DOPE   H4R 4555   5.835   4.878   3.624
   36DOPE   H4S 4556   5.882   4.727   3.539
   36DOPE   C25 4557   5.719   4.703   3.682
   36DOPE   H5R 4558   5.704   4.602   3.640
   36DOPE   H5S 4559   5.619   4.748   3.698
   36DOPE   C26 4560   5.788   4.689   3.819
   36DOPE   H6R 4561   5.898   4.689   3.807
   36DOPE   H6S 4562   5.758   4.591   3.861
   36DOPE   C27 4563   5.746   4.796   3.921
   36DOPE   H7R 4564   5.636   4.790   3.935
   36DOPE   H7S 4565   5.770   4.896   3.881
   36DOPE   C28 4566   5.816   4.775   4.057
   36DOPE   H8R 4567   5.925   4.786   4.038
   36DOPE   H8S 4568   5.799   4.670   4.090
   36DOPE   C29 4569   5.774   4.874   4.162
   36DOPE   H9R 4570   5.764   4.977   4.124
   36DOPE  C210 4571   5.748   4.852   4.293
   36DOPE  H10R 4572   5.721   4.938   4.355
   36DOPE  C211 4573   5.755   4.722   4.370
   36DOPE  H11R 4574   5.746   4.634   4.304
   36DOPE  H11S 4575   5.669   4.719   4.440
   36DOPE  C212 4576   5.884   4.709   4.454
   36DOPE  H12R 4577   5.916   4.808   4.492
   36DOPE  H12S 4578   5.965   4.670   4.388
   36DOPE  C213 4579   5.869   4.617   4.577
   36DOPE  H13R 4580   5.826   4.520   4.545
   36DOPE  H13S 4581   5.796   4.663   4.647
   36DOPE  C214 4582   6.003   4.593   4.649
   36DOPE  H14R 4583   6.047   4.692   4.676
   36DOPE  H14S 4584   6.072   4.544   4.577
   36DOPE  C215 4585   5.997   4.505   4.775
   36DOPE  H15R 4586   6.101   4.488   4.811
   36DOPE  H15S 4587   5.955   4.406   4.748
   36DOPE  C216 4588   5.916   4.567   4.890
   36DOPE  H16R 4589   5.812   4.587   4.856
   36DOPE  H16S 4590   5.963   4.664   4.917
   36DOPE  C217 4591   5.910   4.479   5.016
   36DOPE  H17R 4592   5.859   4.537   5.096
   36DOPE  H17S 4593   6.013   4.459   5.051
   36DOPE  C218 4594   5.835   4.347   4.997
   36DOPE  H18R 4595   5.732   4.365   4.959
   36DOPE  H18S 4596   5.828   4.292   5.093
   36DOPE  H18T 4597   5.888   4.282   4.924
   36DOPE   C33 4598   5.405   4.533   3.553
   36DOPE   H3X 4599   5.506   4.578   3.560
   36DOPE   H3Y 4600   5.417   4.422   3.552
   36DOPE   C34 4601   5.323   4.570   3.677
   36DOPE   H4X 4602   5.299   4.679   3.672
   36DOPE   H4Y 4603   5.226   4.515   3.675
   36DOPE   C35 4604   5.393   4.544   3.811
   36DOPE   H5X 4605   5.485   4.606   3.816
   36DOPE   H5Y 4606   5.425   4.437   3.815
   36DOPE   C36 4607   5.306   4.574   3.934
   36DOPE   H6X 4608   5.368   4.563   4.025
   36DOPE   H6Y 4609   5.225   4.498   3.939
   36DOPE   C37 4610   5.240   4.714   3.934
   36DOPE   H7X 4611   5.183   4.725   3.840
   36DOPE   H7Y 4612   5.163   4.722   4.015
   36DOPE   C38 4613   5.338   4.833   3.945
   36DOPE   H8X 4614   5.283   4.921   3.907
   36DOPE   H8Y 4615   5.418   4.815   3.870
   36DOPE   C39 4616   5.402   4.875   4.076
   36DOPE   H9X 4617   5.470   4.959   4.061
   36DOPE  C310 4618   5.392   4.829   4.203
   36DOPE  H10X 4619   5.452   4.880   4.279
   36DOPE  C311 4620   5.311   4.716   4.262
   36DOPE  H11X 4621   5.246   4.755   4.343
   36DOPE  H11Y 4622   5.243   4.667   4.189
   36DOPE  C312 4623   5.403   4.607   4.320
   36DOPE  H12X 4624   5.464   4.654   4.400
   36DOPE  H12Y 4625   5.472   4.569   4.242
   36DOPE  C313 4626   5.323   4.490   4.379
   36DOPE  H13X 4627   5.249   4.531   4.451
   36DOPE  H13Y 4628   5.266   4.440   4.297
   36DOPE  C314 4629   5.408   4.387   4.454
   36DOPE  H14X 4630   5.475   4.334   4.383
   36DOPE  H14Y 4631   5.340   4.311   4.498
   36DOPE  C315 4632   5.491   4.452   4.566
   36DOPE  H15X 4633   5.438   4.543   4.600
   36DOPE  H15Y 4634   5.589   4.485   4.524
   36DOPE  C316 4635   5.515   4.362   4.688
   36DOPE  H16X 4636   5.594   4.409   4.751
   36DOPE  H16Y 4637   5.551   4.262   4.656
   36DOPE  C317 4638   5.389   4.345   4.775
   36DOPE  H17X 4639   5.344   4.445   4.793
   36DOPE  H17Y 4640   5.314   4.285   4.720
   36DOPE  C318 4641   5.418   4.280   4.910
   36DOPE  H18X 4642   5.490   4.341   4.969
   36DOPE  H18Y 4643   5.324   4.269   4.968
   36DOPE  H18Z 4644   5.462   4.178   4.895
   37DOPE     N 4645   2.876   2.531   3.044
   37DOPE   HN1 4646   2.891   2.633   3.033
   37DOPE   HN2 4647   2.802   2.518   3.116
   37DOPE   HN3 4648   2.963   2.485   3.078
   37DOPE   C12 4649   2.830   2.458   2.921
   37DOPE  H12A 4650   2.817   2.351   2.949
   37DOPE  H12B 4651   2.912   2.463   2.845
   37DOPE   C11 4652   2.698   2.513   2.862
   37DOPE  H11A 4653   2.658   2.441   2.788
   37DOPE  H11B 4654   2.723   2.606   2.806
   37DOPE     P 4655   2.556   2.446   3.074
   37DOPE   O13 4656   2.654   2.473   3.182
   37DOPE   O14 4657   2.555   2.310   3.017
   37DOPE   O11 4658   2.411   2.496   3.112
   37DOPE   O12 4659   2.596   2.546   2.958
   37DOPE    C1 4660   2.391   2.615   3.190
   37DOPE    HA 4661   2.314   2.678   3.142
   37DOPE    HB 4662   2.483   2.677   3.198
   37DOPE    C2 4663   2.344   2.583   3.335
   37DOPE    HS 4664   2.344   2.680   3.389
   37DOPE   O21 4665   2.433   2.486   3.394
   37DOPE   C21 4666   2.459   2.503   3.522
   37DOPE   O22 4667   2.425   2.598   3.590
   37DOPE   C22 4668   2.541   2.383   3.570
   37DOPE   H2R 4669   2.626   2.368   3.500
   37DOPE   H2S 4670   2.474   2.294   3.564
   37DOPE    C3 4671   2.199   2.526   3.336
   37DOPE    HX 4672   2.205   2.423   3.296
   37DOPE    HY 4673   2.136   2.584   3.266
   37DOPE   O31 4674   2.141   2.523   3.469
   37DOPE   C31 4675   2.097   2.641   3.512
   37DOPE   O32 4676   2.098   2.744   3.446
   37DOPE   C32 4677   2.039   2.630   3.653
   37DOPE   H2X 4678   1.986   2.726   3.672
   37DOPE   H2Y 4679   1.965   2.548   3.656
   37DOPE   C23 4680   2.593   2.398   3.715
   37DOPE   H3R 4681   2.634   2.301   3.748
   37DOPE   H3S 4682   2.509   2.423   3.784
   37DOPE   C24 4683   2.703   2.504   3.729
   37DOPE   H4R 4684   2.663   2.603   3.695
   37DOPE   H4S 4685   2.788   2.477   3.663
   37DOPE   C25 4686   2.752   2.519   3.873
   37DOPE   H5R 4687   2.777   2.417   3.910
   37DOPE   H5S 4688   2.671   2.559   3.937
   37DOPE   C26 4689   2.876   2.608   3.887
   37DOPE   H6R 4690   2.847   2.715   3.877
   37DOPE   H6S 4691   2.949   2.586   3.806
   37DOPE   C27 4692   2.945   2.587   4.022
   37DOPE   H7R 4693   2.987   2.484   4.024
   37DOPE   H7S 4694   2.870   2.592   4.103
   37DOPE   C28 4695   3.060   2.686   4.050
   37DOPE   H8R 4696   3.126   2.689   3.960
   37DOPE   H8S 4697   3.122   2.646   4.133
   37DOPE   C29 4698   3.010   2.824   4.084
   37DOPE   H9R 4699   3.021   2.899   4.004
   37DOPE  C210 4700   2.952   2.859   4.200
   37DOPE  H10R 4701   2.917   2.962   4.213
   37DOPE  C211 4702   2.925   2.768   4.317
   37DOPE  H11R 4703   2.968   2.812   4.409
   37DOPE  H11S 4704   2.974   2.669   4.304
   37DOPE  C212 4705   2.774   2.741   4.339
   37DOPE  H12R 4706   2.764   2.666   4.420
   37DOPE  H12S 4707   2.730   2.696   4.248
   37DOPE  C213 4708   2.691   2.865   4.378
   37DOPE  H13R 4709   2.587   2.832   4.399
   37DOPE  H13S 4710   2.685   2.934   4.290
   37DOPE  C214 4711   2.745   2.945   4.498
   37DOPE  H14R 4712   2.671   3.024   4.523
   37DOPE  H14S 4713   2.839   2.996   4.467
   37DOPE  C215 4714   2.774   2.862   4.624
   37DOPE  H15R 4715   2.823   2.928   4.699
   37DOPE  H15S 4716   2.846   2.781   4.599
   37DOPE  C216 4717   2.649   2.800   4.689
   37DOPE  H16R 4718   2.588   2.748   4.612
   37DOPE  H16S 4719   2.587   2.881   4.732
   37DOPE  C217 4720   2.684   2.698   4.798
   37DOPE  H17R 4721   2.756   2.745   4.869
   37DOPE  H17S 4722   2.735   2.612   4.751
   37DOPE  C218 4723   2.562   2.650   4.877
   37DOPE  H18R 4724   2.486   2.606   4.808
   37DOPE  H18S 4725   2.516   2.735   4.931
   37DOPE  H18T 4726   2.592   2.572   4.951
   37DOPE   C33 4727   2.147   2.609   3.763
   37DOPE   H3X 4728   2.105   2.647   3.859
   37DOPE   H3Y 4729   2.236   2.672   3.741
   37DOPE   C34 4730   2.189   2.463   3.783
   37DOPE   H4X 4731   2.158   2.403   3.694
   37DOPE   H4Y 4732   2.300   2.459   3.786
   37DOPE   C35 4733   2.134   2.396   3.910
   37DOPE   H5X 4734   2.160   2.288   3.907
   37DOPE   H5Y 4735   2.024   2.404   3.909
   37DOPE   C36 4736   2.186   2.454   4.043
   37DOPE   H6X 4737   2.133   2.404   4.127
   37DOPE   H6Y 4738   2.160   2.562   4.047
   37DOPE   C37 4739   2.338   2.442   4.068
   37DOPE   H7X 4740   2.393   2.489   3.984
   37DOPE   H7Y 4741   2.361   2.500   4.160
   37DOPE   C38 4742   2.386   2.296   4.089
   37DOPE   H8X 4743   2.362   2.238   3.998
   37DOPE   H8Y 4744   2.327   2.252   4.172
   37DOPE   C39 4745   2.534   2.292   4.115
   37DOPE   H9X 4746   2.595   2.334   4.033
   37DOPE  C310 4747   2.598   2.244   4.223
   37DOPE  H10X 4748   2.708   2.249   4.225
   37DOPE  C311 4749   2.538   2.182   4.347
   37DOPE  H11X 4750   2.428   2.194   4.352
   37DOPE  H11Y 4751   2.558   2.073   4.346
   37DOPE  C312 4752   2.599   2.238   4.477
   37DOPE  H12X 4753   2.710   2.243   4.467
   37DOPE  H12Y 4754   2.579   2.168   4.561
   37DOPE  C313 4755   2.547   2.378   4.516
   37DOPE  H13X 4756   2.622   2.428   4.582
   37DOPE  H13Y 4757   2.538   2.440   4.425
   37DOPE  C314 4758   2.413   2.377   4.592
   37DOPE  H14X 4759   2.337   2.320   4.533
   37DOPE  H14Y 4760   2.377   2.482   4.600
   37DOPE  C315 4761   2.423   2.319   4.734
   37DOPE  H15X 4762   2.508   2.367   4.786
   37DOPE  H15Y 4763   2.445   2.210   4.728
   37DOPE  C316 4764   2.295   2.340   4.817
   37DOPE  H16X 4765   2.207   2.295   4.766
   37DOPE  H16Y 4766   2.278   2.450   4.824
   37DOPE  C317 4767   2.307   2.284   4.960
   37DOPE  H17X 4768   2.410   2.301   4.996
   37DOPE  H17Y 4769   2.239   2.341   5.027
   37DOPE  C318 4770   2.272   2.136   4.973
   37DOPE  H18X 4771   2.285   2.101   5.077
   37DOPE  H18Y 4772   2.166   2.118   4.943
   37DOPE  H18Z 4773   2.337   2.074   4.907
   38DOPE     N 4774   5.338   5.483   2.857
   38DOPE   HN1 4775   5.345   5.531   2.765
   38DOPE   HN2 4776   5.242   5.498   2.894
   38DOPE   HN3 4777   5.405   5.522   2.925
   38DOPE   C12 4778   5.365   5.336   2.838
   38DOPE  H12A 4779   5.423   5.323   2.744
   38DOPE  H12B 4780   5.267   5.285   2.828
   38DOPE   C11 4781   5.443   5.280   2.959
   38DOPE  H11A 4782   5.548   5.317   2.955
   38DOPE  H11B 4783   5.449   5.169   2.951
   38DOPE     P 4784   5.241   5.270   3.124
   38DOPE   O13 4785   5.215   5.145   3.049
   38DOPE   O14 4786   5.151   5.384   3.099
   38DOPE   O11 4787   5.257   5.240   3.278
   38DOPE   O12 4788   5.387   5.320   3.084
   38DOPE    C1 4789   5.275   5.349   3.369
   38DOPE    HA 4790   5.189   5.419   3.364
   38DOPE    HB 4791   5.368   5.405   3.345
   38DOPE    C2 4792   5.285   5.299   3.515
   38DOPE    HS 4793   5.370   5.228   3.518
   38DOPE   O21 4794   5.160   5.235   3.550
   38DOPE   C21 4795   5.170   5.142   3.643
   38DOPE   O22 4796   5.274   5.101   3.693
   38DOPE   C22 4797   5.031   5.099   3.687
   38DOPE   H2R 4798   4.983   5.041   3.605
   38DOPE   H2S 4799   4.972   5.192   3.705
   38DOPE    C3 4800   5.315   5.418   3.612
   38DOPE    HX 4801   5.226   5.484   3.615
   38DOPE    HY 4802   5.397   5.477   3.565
   38DOPE   O31 4803   5.361   5.376   3.743
   38DOPE   C31 4804   5.269   5.370   3.838
   38DOPE   O32 4805   5.152   5.402   3.826
   38DOPE   C32 4806   5.328   5.315   3.968
   38DOPE   H2X 4807   5.262   5.231   3.998
   38DOPE   H2Y 4808   5.429   5.273   3.948
   38DOPE   C23 4809   5.037   5.016   3.817
   38DOPE   H3R 4810   5.101   5.069   3.891
   38DOPE   H3S 4811   5.086   4.918   3.795
   38DOPE   C24 4812   4.900   4.991   3.882
   38DOPE   H4R 4813   4.835   4.938   3.809
   38DOPE   H4S 4814   4.853   5.089   3.904
   38DOPE   C25 4815   4.909   4.909   4.012
   38DOPE   H5R 4816   4.948   4.807   3.989
   38DOPE   H5S 4817   4.806   4.896   4.051
   38DOPE   C26 4818   4.996   4.973   4.120
   38DOPE   H6R 4819   4.972   5.081   4.127
   38DOPE   H6S 4820   5.103   4.965   4.092
   38DOPE   C27 4821   4.976   4.910   4.259
   38DOPE   H7R 4822   5.013   4.805   4.255
   38DOPE   H7S 4823   4.867   4.907   4.281
   38DOPE   C28 4824   5.048   4.987   4.371
   38DOPE   H8R 4825   5.010   5.091   4.370
   38DOPE   H8S 4826   5.156   4.992   4.344
   38DOPE   C29 4827   5.025   4.925   4.506
   38DOPE   H9R 4828   4.921   4.893   4.523
   38DOPE  C210 4829   5.115   4.907   4.605
   38DOPE  H10R 4830   5.080   4.860   4.699
   38DOPE  C211 4831   5.261   4.945   4.605
   38DOPE  H11R 4832   5.277   5.032   4.671
   38DOPE  H11S 4833   5.295   4.975   4.503
   38DOPE  C212 4834   5.353   4.831   4.653
   38DOPE  H12R 4835   5.458   4.865   4.635
   38DOPE  H12S 4836   5.337   4.741   4.590
   38DOPE  C213 4837   5.336   4.795   4.801
   38DOPE  H13R 4838   5.240   4.740   4.812
   38DOPE  H13S 4839   5.328   4.887   4.863
   38DOPE  C214 4840   5.449   4.706   4.859
   38DOPE  H14R 4841   5.484   4.635   4.781
   38DOPE  H14S 4842   5.405   4.645   4.941
   38DOPE  C215 4843   5.571   4.779   4.917
   38DOPE  H15R 4844   5.638   4.701   4.960
   38DOPE  H15S 4845   5.537   4.844   5.001
   38DOPE  C216 4846   5.652   4.861   4.816
   38DOPE  H16R 4847   5.602   4.959   4.796
   38DOPE  H16S 4848   5.653   4.806   4.719
   38DOPE  C217 4849   5.799   4.885   4.857
   38DOPE  H17R 4850   5.864   4.839   4.779
   38DOPE  H17S 4851   5.820   4.832   4.952
   38DOPE  C218 4852   5.842   5.032   4.873
   38DOPE  H18R 4853   5.794   5.079   4.961
   38DOPE  H18S 4854   5.815   5.091   4.783
   38DOPE  H18T 4855   5.951   5.038   4.888
   38DOPE   C33 4856   5.333   5.423   4.079
   38DOPE   H3X 4857   5.243   5.488   4.073
   38DOPE   H3Y 4858   5.421   5.488   4.061
   38DOPE   C34 4859   5.339   5.366   4.222
   38DOPE   H4X 4860   5.428   5.301   4.230
   38DOPE   H4Y 4861   5.353   5.451   4.292
   38DOPE   C35 4862   5.214   5.287   4.269
   38DOPE   H5X 4863   5.237   5.250   4.371
   38DOPE   H5Y 4864   5.199   5.198   4.205
   38DOPE   C36 4865   5.082   5.367   4.277
   38DOPE   H6X 4866   5.100   5.466   4.324
   38DOPE   H6Y 4867   5.014   5.311   4.345
   38DOPE   C37 4868   5.009   5.384   4.143
   38DOPE   H7X 4869   5.023   5.488   4.105
   38DOPE   H7Y 4870   5.056   5.316   4.068
   38DOPE   C38 4871   4.859   5.348   4.145
   38DOPE   H8X 4872   4.850   5.242   4.176
   38DOPE   H8Y 4873   4.822   5.354   4.040
   38DOPE   C39 4874   4.774   5.436   4.232
   38DOPE   H9X 4875   4.807   5.541   4.241
   38DOPE  C310 4876   4.663   5.396   4.298
   38DOPE  H10X 4877   4.608   5.468   4.360
   38DOPE  C311 4878   4.606   5.256   4.296
   38DOPE  H11X 4879   4.495   5.261   4.295
   38DOPE  H11Y 4880   4.636   5.202   4.204
   38DOPE  C312 4881   4.649   5.172   4.418
   38DOPE  H12X 4882   4.760   5.174   4.426
   38DOPE  H12Y 4883   4.620   5.066   4.400
   38DOPE  C313 4884   4.585   5.217   4.550
   38DOPE  H13X 4885   4.610   5.324   4.568
   38DOPE  H13Y 4886   4.474   5.211   4.539
   38DOPE  C314 4887   4.627   5.134   4.671
   38DOPE  H14X 4888   4.599   5.027   4.653
   38DOPE  H14Y 4889   4.570   5.168   4.760
   38DOPE  C315 4890   4.777   5.141   4.705
   38DOPE  H15X 4891   4.837   5.098   4.621
   38DOPE  H15Y 4892   4.796   5.078   4.794
   38DOPE  C316 4893   4.828   5.283   4.733
   38DOPE  H16X 4894   4.757   5.331   4.804
   38DOPE  H16Y 4895   4.827   5.343   4.639
   38DOPE  C317 4896   4.969   5.286   4.794
   38DOPE  H17X 4897   4.981   5.381   4.850
   38DOPE  H17Y 4898   4.979   5.203   4.867
   38DOPE  C318 4899   5.081   5.276   4.690
   38DOPE  H18X 4900   5.180   5.278   4.740
   38DOPE  H18Y 4901   5.072   5.182   4.631
   38DOPE  H18Z 4902   5.076   5.362   4.619
   39DOPE     N 4903   1.833   3.643   3.141
   39DOPE   HN1 4904   1.830   3.649   3.245
   39DOPE   HN2 4905   1.736   3.646   3.105
   39DOPE   HN3 4906   1.880   3.554   3.116
   39DOPE   C12 4907   1.904   3.761   3.081
   39DOPE  H12A 4908   2.011   3.756   3.110
   39DOPE  H12B 4909   1.859   3.852   3.125
   39DOPE   C11 4910   1.889   3.764   2.927
   39DOPE  H11A 4911   1.958   3.687   2.884
   39DOPE  H11B 4912   1.925   3.862   2.888
   39DOPE     P 4913   1.633   3.819   2.927
   39DOPE   O13 4914   1.598   3.759   3.057
   39DOPE   O14 4915   1.532   3.821   2.818
   39DOPE   O11 4916   1.695   3.963   2.945
   39DOPE   O12 4917   1.757   3.735   2.879
   39DOPE    C1 4918   1.619   4.075   2.991
   39DOPE    HA 4919   1.509   4.057   2.990
   39DOPE    HB 4920   1.636   4.160   2.922
   39DOPE    C2 4921   1.661   4.123   3.133
   39DOPE    HS 4922   1.626   4.228   3.143
   39DOPE   O21 4923   1.805   4.118   3.142
   39DOPE   C21 4924   1.856   4.184   3.246
   39DOPE   O22 4925   1.793   4.249   3.327
   39DOPE   C22 4926   2.008   4.166   3.246
   39DOPE   H2R 4927   2.053   4.257   3.291
   39DOPE   H2S 4928   2.040   4.160   3.140
   39DOPE    C3 4929   1.587   4.040   3.244
   39DOPE    HX 4930   1.527   3.960   3.195
   39DOPE    HY 4931   1.514   4.112   3.289
   39DOPE   O31 4932   1.675   3.981   3.342
   39DOPE   C31 4933   1.621   3.969   3.463
   39DOPE   O32 4934   1.509   4.003   3.494
   39DOPE   C32 4935   1.722   3.900   3.555
   39DOPE   H2X 4936   1.771   3.819   3.497
   39DOPE   H2Y 4937   1.798   3.975   3.584
   39DOPE   C23 4938   2.053   4.039   3.321
   39DOPE   H3R 4939   2.154   4.011   3.285
   39DOPE   H3S 4940   1.985   3.954   3.298
   39DOPE   C24 4941   2.063   4.057   3.474
   39DOPE   H4R 4942   1.966   4.094   3.515
   39DOPE   H4S 4943   2.140   4.134   3.496
   39DOPE   C25 4944   2.103   3.925   3.542
   39DOPE   H5R 4945   2.193   3.888   3.489
   39DOPE   H5S 4946   2.024   3.848   3.528
   39DOPE   C26 4947   2.138   3.937   3.691
   39DOPE   H6R 4948   2.194   4.031   3.711
   39DOPE   H6S 4949   2.208   3.853   3.711
   39DOPE   C27 4950   2.021   3.921   3.789
   39DOPE   H7R 4951   1.942   3.861   3.739
   39DOPE   H7S 4952   1.978   4.021   3.813
   39DOPE   C28 4953   2.066   3.847   3.916
   39DOPE   H8R 4954   2.146   3.905   3.965
   39DOPE   H8S 4955   2.114   3.753   3.880
   39DOPE   C29 4956   1.955   3.810   4.012
   39DOPE   H9R 4957   1.860   3.785   3.963
   39DOPE  C210 4958   1.962   3.804   4.146
   39DOPE  H10R 4959   1.871   3.774   4.202
   39DOPE  C211 4960   2.081   3.833   4.235
   39DOPE  H11R 4961   2.048   3.896   4.320
   39DOPE  H11S 4962   2.158   3.892   4.180
   39DOPE  C212 4963   2.154   3.709   4.293
   39DOPE  H12R 4964   2.238   3.745   4.356
   39DOPE  H12S 4965   2.198   3.652   4.209
   39DOPE  C213 4966   2.066   3.615   4.377
   39DOPE  H13R 4967   2.125   3.524   4.402
   39DOPE  H13S 4968   1.980   3.582   4.314
   39DOPE  C214 4969   2.010   3.674   4.507
   39DOPE  H14R 4970   1.933   3.603   4.545
   39DOPE  H14S 4971   1.959   3.770   4.487
   39DOPE  C215 4972   2.114   3.690   4.619
   39DOPE  H15R 4973   2.192   3.763   4.589
   39DOPE  H15S 4974   2.164   3.592   4.634
   39DOPE  C216 4975   2.051   3.732   4.753
   39DOPE  H16R 4976   2.124   3.716   4.835
   39DOPE  H16S 4977   1.963   3.668   4.774
   39DOPE  C217 4978   2.007   3.879   4.756
   39DOPE  H17R 4979   1.940   3.900   4.670
   39DOPE  H17S 4980   2.097   3.943   4.746
   39DOPE  C218 4981   1.934   3.918   4.885
   39DOPE  H18R 4982   1.902   4.024   4.882
   39DOPE  H18S 4983   2.001   3.904   4.973
   39DOPE  H18T 4984   1.844   3.855   4.898
   39DOPE   C33 4985   1.656   3.841   3.682
   39DOPE   H3X 4986   1.725   3.765   3.725
   39DOPE   H3Y 4987   1.561   3.790   3.658
   39DOPE   C34 4988   1.632   3.948   3.790
   39DOPE   H4X 4989   1.729   3.996   3.814
   39DOPE   H4Y 4990   1.565   4.027   3.750
   39DOPE   C35 4991   1.572   3.890   3.918
   39DOPE   H5X 4992   1.631   3.801   3.950
   39DOPE   H5Y 4993   1.468   3.856   3.898
   39DOPE   C36 4994   1.572   3.993   4.031
   39DOPE   H6X 4995   1.511   4.081   4.001
   39DOPE   H6Y 4996   1.677   4.028   4.046
   39DOPE   C37 4997   1.518   3.937   4.163
   39DOPE   H7X 4998   1.412   3.905   4.147
   39DOPE   H7Y 4999   1.575   3.846   4.192
   39DOPE   C38 5000   1.521   4.039   4.278
   39DOPE   H8X 5001   1.460   3.999   4.362
   39DOPE   H8Y 5002   1.470   4.132   4.244
   39DOPE   C39 5003   1.662   4.072   4.321
   39DOPE   H9X 5004   1.723   4.122   4.244
   39DOPE  C310 5005   1.720   4.047   4.440
   39DOPE  H10X 5006   1.824   4.078   4.456
   39DOPE  C311 5007   1.657   3.980   4.559
   39DOPE  H11X 5008   1.552   3.950   4.540
   39DOPE  H11Y 5009   1.712   3.888   4.584
   39DOPE  C312 5010   1.657   4.072   4.683
   39DOPE  H12X 5011   1.602   4.166   4.661
   39DOPE  H12Y 5012   1.762   4.100   4.707
   39DOPE  C313 5013   1.595   4.004   4.806
   39DOPE  H13X 5014   1.629   3.898   4.810
   39DOPE  H13Y 5015   1.634   4.054   4.898
   39DOPE  C314 5016   1.442   4.010   4.810
   39DOPE  H14X 5017   1.399   3.975   4.714
   39DOPE  H14Y 5018   1.413   4.117   4.822
   39DOPE  C315 5019   1.383   3.929   4.926
   39DOPE  H15X 5020   1.281   3.966   4.950
   39DOPE  H15Y 5021   1.446   3.945   5.016
   39DOPE  C316 5022   1.373   3.779   4.893
   39DOPE  H16X 5023   1.465   3.746   4.841
   39DOPE  H16Y 5024   1.288   3.763   4.824
   39DOPE  C317 5025   1.357   3.690   5.017
   39DOPE  H17X 5026   1.277   3.731   5.082
   39DOPE  H17Y 5027   1.323   3.589   4.983
   39DOPE  C318 5028   1.487   3.673   5.095
   39DOPE  H18X 5029   1.472   3.605   5.182
   39DOPE  H18Y 5030   1.566   3.630   5.030
   39DOPE  H18Z 5031   1.523   3.771   5.134
   40DOPE     N 5032   4.373   6.021   3.157
   40DOPE   HN1 5033   4.389   5.953   3.080
   40DOPE   HN2 5034   4.445   6.004   3.230
   40DOPE   HN3 5035   4.276   6.010   3.193
   40DOPE   C12 5036   4.391   6.160   3.101
   40DOPE  H12A 5037   4.461   6.152   3.015
   40DOPE  H12B 5038   4.437   6.223   3.180
   40DOPE   C11 5039   4.257   6.221   3.055
   40DOPE  H11A 5040   4.279   6.318   3.005
   40DOPE  H11B 5041   4.194   6.246   3.144
   40DOPE     P 5042   4.076   6.035   3.001
   40DOPE   O13 5043   4.114   5.903   2.950
   40DOPE   O14 5044   3.945   6.090   2.959
   40DOPE   O11 5045   4.091   6.032   3.159
   40DOPE   O12 5046   4.189   6.137   2.962
   40DOPE    C1 5047   3.987   5.977   3.241
   40DOPE    HA 5048   4.032   5.942   3.336
   40DOPE    HB 5049   3.937   5.890   3.194
   40DOPE    C2 5050   3.879   6.083   3.280
   40DOPE    HS 5051   3.823   6.109   3.188
   40DOPE   O21 5052   3.946   6.200   3.330
   40DOPE   C21 5053   3.869   6.306   3.352
   40DOPE   O22 5054   3.750   6.313   3.332
   40DOPE   C22 5055   3.955   6.423   3.402
   40DOPE   H2R 5056   3.887   6.499   3.446
   40DOPE   H2S 5057   4.001   6.467   3.311
   40DOPE    C3 5058   3.776   6.022   3.382
   40DOPE    HX 5059   3.732   5.932   3.333
   40DOPE    HY 5060   3.691   6.093   3.397
   40DOPE   O31 5061   3.838   5.995   3.509
   40DOPE   C31 5062   3.829   5.873   3.558
   40DOPE   O32 5063   3.771   5.779   3.507
   40DOPE   C32 5064   3.908   5.870   3.690
   40DOPE   H2X 5065   4.015   5.881   3.663
   40DOPE   H2Y 5066   3.878   5.957   3.751
   40DOPE   C23 5067   4.067   6.386   3.502
   40DOPE   H3R 5068   4.146   6.465   3.496
   40DOPE   H3S 5069   4.116   6.291   3.474
   40DOPE   C24 5070   4.022   6.380   3.649
   40DOPE   H4R 5071   3.986   6.480   3.681
   40DOPE   H4S 5072   4.111   6.355   3.711
   40DOPE   C25 5073   3.913   6.276   3.677
   40DOPE   H5R 5074   3.937   6.184   3.620
   40DOPE   H5S 5075   3.815   6.314   3.639
   40DOPE   C26 5076   3.899   6.239   3.825
   40DOPE   H6R 5077   3.989   6.182   3.856
   40DOPE   H6S 5078   3.811   6.171   3.837
   40DOPE   C27 5079   3.881   6.359   3.919
   40DOPE   H7R 5080   3.800   6.423   3.879
   40DOPE   H7S 5081   3.974   6.420   3.920
   40DOPE   C28 5082   3.844   6.319   4.063
   40DOPE   H8R 5083   3.749   6.260   4.058
   40DOPE   H8S 5084   3.820   6.412   4.120
   40DOPE   C29 5085   3.948   6.237   4.134
   40DOPE   H9R 5086   3.955   6.133   4.098
   40DOPE  C210 5087   4.029   6.277   4.233
   40DOPE  H10R 5088   4.098   6.203   4.278
   40DOPE  C211 5089   4.034   6.414   4.296
   40DOPE  H11R 5090   3.969   6.418   4.386
   40DOPE  H11S 5091   3.994   6.491   4.226
   40DOPE  C212 5092   4.177   6.458   4.335
   40DOPE  H12R 5093   4.172   6.563   4.370
   40DOPE  H12S 5094   4.242   6.456   4.245
   40DOPE  C213 5095   4.243   6.374   4.446
   40DOPE  H13R 5096   4.345   6.414   4.464
   40DOPE  H13S 5097   4.255   6.269   4.412
   40DOPE  C214 5098   4.167   6.376   4.579
   40DOPE  H14R 5099   4.064   6.335   4.564
   40DOPE  H14S 5100   4.156   6.481   4.614
   40DOPE  C215 5101   4.236   6.293   4.689
   40DOPE  H15R 5102   4.340   6.329   4.702
   40DOPE  H15S 5103   4.240   6.187   4.656
   40DOPE  C216 5104   4.163   6.303   4.824
   40DOPE  H16R 5105   4.056   6.276   4.809
   40DOPE  H16S 5106   4.166   6.408   4.858
   40DOPE  C217 5107   4.222   6.213   4.934
   40DOPE  H17R 5108   4.174   6.239   5.030
   40DOPE  H17S 5109   4.330   6.236   4.944
   40DOPE  C218 5110   4.205   6.063   4.910
   40DOPE  H18R 5111   4.243   6.004   4.996
   40DOPE  H18S 5112   4.259   6.030   4.818
   40DOPE  H18T 5113   4.097   6.037   4.898
   40DOPE   C33 5114   3.888   5.739   3.770
   40DOPE   H3X 5115   3.966   5.734   3.849
   40DOPE   H3Y 5116   3.904   5.651   3.704
   40DOPE   C34 5117   3.750   5.731   3.838
   40DOPE   H4X 5118   3.684   5.813   3.803
   40DOPE   H4Y 5119   3.702   5.636   3.806
   40DOPE   C35 5120   3.757   5.732   3.991
   40DOPE   H5X 5121   3.834   5.658   4.024
   40DOPE   H5Y 5122   3.659   5.697   4.031
   40DOPE   C36 5123   3.786   5.870   4.052
   40DOPE   H6X 5124   3.707   5.940   4.017
   40DOPE   H6Y 5125   3.884   5.908   4.014
   40DOPE   C37 5126   3.786   5.868   4.206
   40DOPE   H7X 5127   3.776   5.972   4.245
   40DOPE   H7Y 5128   3.695   5.813   4.238
   40DOPE   C38 5129   3.910   5.800   4.268
   40DOPE   H8X 5130   3.933   5.708   4.211
   40DOPE   H8Y 5131   3.882   5.767   4.370
   40DOPE   C39 5132   4.030   5.892   4.273
   40DOPE   H9X 5133   4.044   5.954   4.182
   40DOPE  C310 5134   4.119   5.903   4.373
   40DOPE  H10X 5135   4.201   5.976   4.363
   40DOPE  C311 5136   4.120   5.826   4.502
   40DOPE  H11X 5137   4.076   5.724   4.488
   40DOPE  H11Y 5138   4.226   5.808   4.531
   40DOPE  C312 5139   4.051   5.892   4.622
   40DOPE  H12X 5140   4.078   6.000   4.629
   40DOPE  H12Y 5141   4.089   5.843   4.714
   40DOPE  C313 5142   3.898   5.875   4.622
   40DOPE  H13X 5143   3.853   5.939   4.543
   40DOPE  H13Y 5144   3.875   5.770   4.597
   40DOPE  C314 5145   3.833   5.905   4.758
   40DOPE  H14X 5146   3.887   5.848   4.837
   40DOPE  H14Y 5147   3.728   5.868   4.757
   40DOPE  C315 5148   3.831   6.054   4.795
   40DOPE  H15X 5149   3.765   6.109   4.725
   40DOPE  H15Y 5150   3.933   6.096   4.783
   40DOPE  C316 5151   3.784   6.077   4.940
   40DOPE  H16X 5152   3.848   6.019   5.009
   40DOPE  H16Y 5153   3.680   6.040   4.951
   40DOPE  C317 5154   3.789   6.225   4.981
   40DOPE  H17X 5155   3.895   6.260   4.978
   40DOPE  H17Y 5156   3.732   6.285   4.907
   40DOPE  C318 5157   3.732   6.251   5.121
   40DOPE  H18X 5158   3.737   6.359   5.146
   40DOPE  H18Y 5159   3.626   6.219   5.126
   40DOPE  H18Z 5160   3.789   6.194   5.197
   41DOPE     N 5161   2.018   4.950   3.199
   41DOPE   HN1 5162   2.072   5.002   3.271
   41DOPE   HN2 5163   2.059   4.856   3.180
   41DOPE   HN3 5164   2.019   5.005   3.110
   41DOPE   C12 5165   1.874   4.940   3.238
   41DOPE  H12A 5166   1.845   5.036   3.285
   41DOPE  H12B 5167   1.863   4.859   3.313
   41DOPE   C11 5168   1.793   4.915   3.110
   41DOPE  H11A 5169   1.684   4.923   3.132
   41DOPE  H11B 5170   1.811   4.811   3.077
   41DOPE     P 5171   1.779   5.152   3.000
   41DOPE   O13 5172   1.634   5.148   3.024
   41DOPE   O14 5173   1.828   5.214   2.875
   41DOPE   O11 5174   1.857   5.214   3.125
   41DOPE   O12 5175   1.833   5.003   3.004
   41DOPE    C1 5176   1.974   5.295   3.107
   41DOPE    HA 5177   1.976   5.346   3.009
   41DOPE    HB 5178   2.065   5.231   3.111
   41DOPE    C2 5179   1.990   5.411   3.211
   41DOPE    HS 5180   2.087   5.463   3.192
   41DOPE   O21 5181   1.987   5.370   3.348
   41DOPE   C21 5182   2.037   5.263   3.399
   41DOPE   O22 5183   2.086   5.167   3.341
   41DOPE   C22 5184   2.032   5.278   3.551
   41DOPE   H2R 5185   1.961   5.360   3.577
   41DOPE   H2S 5186   2.133   5.310   3.584
   41DOPE    C3 5187   1.878   5.518   3.196
   41DOPE    HX 5188   1.888   5.563   3.095
   41DOPE    HY 5189   1.895   5.600   3.269
   41DOPE   O31 5190   1.745   5.462   3.207
   41DOPE   C31 5191   1.698   5.448   3.330
   41DOPE   O32 5192   1.752   5.487   3.432
   41DOPE   C32 5193   1.561   5.380   3.327
   41DOPE   H2X 5194   1.488   5.459   3.353
   41DOPE   H2Y 5195   1.539   5.344   3.224
   41DOPE   C23 5196   1.990   5.150   3.627
   41DOPE   H3R 5197   2.060   5.067   3.602
   41DOPE   H3S 5198   1.888   5.120   3.597
   41DOPE   C24 5199   1.993   5.175   3.778
   41DOPE   H4R 5200   1.921   5.256   3.803
   41DOPE   H4S 5201   2.094   5.212   3.806
   41DOPE   C25 5202   1.961   5.051   3.863
   41DOPE   H5R 5203   2.036   4.972   3.840
   41DOPE   H5S 5204   1.861   5.013   3.836
   41DOPE   C26 5205   1.966   5.084   4.013
   41DOPE   H6R 5206   1.888   5.159   4.036
   41DOPE   H6S 5207   2.065   5.130   4.036
   41DOPE   C27 5208   1.946   4.961   4.102
   41DOPE   H7R 5209   2.023   4.884   4.078
   41DOPE   H7S 5210   1.847   4.917   4.079
   41DOPE   C28 5211   1.950   4.995   4.253
   41DOPE   H8R 5212   1.915   4.906   4.309
   41DOPE   H8S 5213   1.877   5.075   4.272
   41DOPE   C29 5214   2.088   5.032   4.301
   41DOPE   H9R 5215   2.156   4.947   4.315
   41DOPE  C210 5216   2.135   5.156   4.326
   41DOPE  H10R 5217   2.240   5.166   4.359
   41DOPE  C211 5218   2.062   5.286   4.311
   41DOPE  H11R 5219   1.961   5.273   4.267
   41DOPE  H11S 5220   2.118   5.353   4.242
   41DOPE  C212 5221   2.046   5.359   4.446
   41DOPE  H12R 5222   1.994   5.292   4.517
   41DOPE  H12S 5223   1.982   5.449   4.432
   41DOPE  C213 5224   2.181   5.406   4.505
   41DOPE  H13R 5225   2.233   5.471   4.431
   41DOPE  H13S 5226   2.245   5.317   4.523
   41DOPE  C214 5227   2.167   5.482   4.638
   41DOPE  H14R 5228   2.119   5.580   4.621
   41DOPE  H14S 5229   2.269   5.501   4.678
   41DOPE  C215 5230   2.086   5.404   4.742
   41DOPE  H15R 5231   2.118   5.297   4.740
   41DOPE  H15S 5232   1.979   5.407   4.712
   41DOPE  C216 5233   2.103   5.456   4.886
   41DOPE  H16R 5234   2.076   5.564   4.887
   41DOPE  H16S 5235   2.210   5.447   4.915
   41DOPE  C217 5236   2.017   5.380   4.988
   41DOPE  H17R 5237   2.036   5.422   5.089
   41DOPE  H17S 5238   2.050   5.274   4.990
   41DOPE  C218 5239   1.866   5.383   4.961
   41DOPE  H18R 5240   1.828   5.487   4.964
   41DOPE  H18S 5241   1.811   5.324   5.037
   41DOPE  H18T 5242   1.842   5.339   4.862
   41DOPE   C33 5243   1.550   5.263   3.428
   41DOPE   H3X 5244   1.627   5.272   3.508
   41DOPE   H3Y 5245   1.569   5.167   3.375
   41DOPE   C34 5246   1.413   5.258   3.498
   41DOPE   H4X 5247   1.405   5.345   3.567
   41DOPE   H4Y 5248   1.334   5.270   3.420
   41DOPE   C35 5249   1.385   5.128   3.575
   41DOPE   H5X 5250   1.379   5.045   3.502
   41DOPE   H5Y 5251   1.285   5.135   3.623
   41DOPE   C36 5252   1.487   5.089   3.682
   41DOPE   H6X 5253   1.586   5.068   3.636
   41DOPE   H6Y 5254   1.452   4.995   3.728
   41DOPE   C37 5255   1.505   5.195   3.793
   41DOPE   H7X 5256   1.578   5.271   3.758
   41DOPE   H7Y 5257   1.409   5.248   3.810
   41DOPE   C38 5258   1.555   5.134   3.926
   41DOPE   H8X 5259   1.596   5.215   3.989
   41DOPE   H8Y 5260   1.639   5.064   3.904
   41DOPE   C39 5261   1.444   5.062   4.000
   41DOPE   H9X 5262   1.353   5.045   3.941
   41DOPE  C310 5263   1.450   5.019   4.127
   41DOPE  H10X 5264   1.362   4.969   4.170
   41DOPE  C311 5265   1.567   5.034   4.220
   41DOPE  H11X 5266   1.642   4.955   4.199
   41DOPE  H11Y 5267   1.618   5.132   4.205
   41DOPE  C312 5268   1.526   5.023   4.368
   41DOPE  H12X 5269   1.484   4.922   4.387
   41DOPE  H12Y 5270   1.448   5.098   4.393
   41DOPE  C313 5271   1.646   5.044   4.462
   41DOPE  H13X 5272   1.729   4.979   4.427
   41DOPE  H13Y 5273   1.680   5.150   4.453
   41DOPE  C314 5274   1.616   5.011   4.609
   41DOPE  H14X 5275   1.599   4.902   4.617
   41DOPE  H14Y 5276   1.523   5.062   4.640
   41DOPE  C315 5277   1.729   5.053   4.705
   41DOPE  H15X 5278   1.709   5.010   4.805
   41DOPE  H15Y 5279   1.729   5.163   4.715
   41DOPE  C316 5280   1.870   5.009   4.659
   41DOPE  H16X 5281   1.896   5.064   4.566
   41DOPE  H16Y 5282   1.869   4.900   4.635
   41DOPE  C317 5283   1.978   5.037   4.763
   41DOPE  H17X 5284   1.965   5.141   4.801
   41DOPE  H17Y 5285   1.964   4.969   4.850
   41DOPE  C318 5286   2.120   5.022   4.708
   41DOPE  H18X 5287   2.135   4.921   4.665
   41DOPE  H18Y 5288   2.138   5.096   4.627
   41DOPE  H18Z 5289   2.195   5.039   4.788
   42DOPE     N 5290   1.676   4.543   2.880
   42DOPE   HN1 5291   1.624   4.475   2.938
   42DOPE   HN2 5292   1.667   4.517   2.779
   42DOPE   HN3 5293   1.776   4.546   2.909
   42DOPE   C12 5294   1.607   4.674   2.904
   42DOPE  H12A 5295   1.668   4.756   2.861
   42DOPE  H12B 5296   1.602   4.687   3.015
   42DOPE   C11 5297   1.464   4.677   2.844
   42DOPE  H11A 5298   1.474   4.702   2.736
   42DOPE  H11B 5299   1.408   4.761   2.889
   42DOPE     P 5300   1.348   4.494   2.995
   42DOPE   O13 5301   1.475   4.460   3.063
   42DOPE   O14 5302   1.250   4.385   2.970
   42DOPE   O11 5303   1.276   4.619   3.062
   42DOPE   O12 5304   1.392   4.553   2.855
   42DOPE    C1 5305   1.161   4.676   2.996
   42DOPE    HA 5306   1.089   4.598   2.965
   42DOPE    HB 5307   1.193   4.729   2.904
   42DOPE    C2 5308   1.083   4.779   3.083
   42DOPE    HS 5309   1.027   4.847   3.015
   42DOPE   O21 5310   1.170   4.855   3.168
   42DOPE   C21 5311   1.267   4.922   3.111
   42DOPE   O22 5312   1.275   4.954   2.994
   42DOPE   C22 5313   1.373   4.949   3.217
   42DOPE   H2R 5314   1.322   4.997   3.303
   42DOPE   H2S 5315   1.448   5.020   3.175
   42DOPE    C3 5316   0.978   4.708   3.174
   42DOPE    HX 5317   0.912   4.649   3.107
   42DOPE    HY 5318   0.912   4.784   3.222
   42DOPE   O31 5319   1.039   4.620   3.269
   42DOPE   C31 5320   1.069   4.674   3.387
   42DOPE   O32 5321   1.042   4.788   3.422
   42DOPE   C32 5322   1.137   4.568   3.475
   42DOPE   H2X 5323   1.058   4.516   3.534
   42DOPE   H2Y 5324   1.184   4.494   3.407
   42DOPE   C23 5325   1.440   4.817   3.260
   42DOPE   H3R 5326   1.497   4.776   3.174
   42DOPE   H3S 5327   1.361   4.742   3.285
   42DOPE   C24 5328   1.533   4.828   3.381
   42DOPE   H4R 5329   1.472   4.854   3.471
   42DOPE   H4S 5330   1.607   4.909   3.366
   42DOPE   C25 5331   1.604   4.694   3.405
   42DOPE   H5R 5332   1.669   4.673   3.318
   42DOPE   H5S 5333   1.528   4.613   3.408
   42DOPE   C26 5334   1.686   4.687   3.535
   42DOPE   H6R 5335   1.761   4.770   3.539
   42DOPE   H6S 5336   1.741   4.591   3.531
   42DOPE   C27 5337   1.600   4.688   3.662
   42DOPE   H7R 5338   1.504   4.637   3.642
   42DOPE   H7S 5339   1.576   4.793   3.689
   42DOPE   C28 5340   1.667   4.619   3.783
   42DOPE   H8R 5341   1.610   4.647   3.874
   42DOPE   H8S 5342   1.769   4.661   3.794
   42DOPE   C29 5343   1.673   4.469   3.766
   42DOPE   H9R 5344   1.715   4.434   3.671
   42DOPE  C210 5345   1.631   4.375   3.853
   42DOPE  H10R 5346   1.645   4.269   3.826
   42DOPE  C211 5347   1.567   4.399   3.987
   42DOPE  H11R 5348   1.494   4.319   4.009
   42DOPE  H11S 5349   1.510   4.494   3.987
   42DOPE  C212 5350   1.670   4.406   4.101
   42DOPE  H12R 5351   1.744   4.487   4.081
   42DOPE  H12S 5352   1.725   4.310   4.109
   42DOPE  C213 5353   1.600   4.436   4.234
   42DOPE  H13R 5354   1.526   4.356   4.255
   42DOPE  H13S 5355   1.543   4.531   4.224
   42DOPE  C214 5356   1.695   4.448   4.354
   42DOPE  H14R 5357   1.764   4.533   4.336
   42DOPE  H14S 5358   1.755   4.356   4.364
   42DOPE  C215 5359   1.615   4.473   4.482
   42DOPE  H15R 5360   1.550   4.385   4.501
   42DOPE  H15S 5361   1.550   4.561   4.466
   42DOPE  C216 5362   1.703   4.501   4.604
   42DOPE  H16R 5363   1.769   4.587   4.579
   42DOPE  H16S 5364   1.768   4.413   4.626
   42DOPE  C217 5365   1.621   4.538   4.728
   42DOPE  H17R 5366   1.554   4.623   4.703
   42DOPE  H17S 5367   1.689   4.574   4.808
   42DOPE  C218 5368   1.537   4.422   4.783
   42DOPE  H18R 5369   1.603   4.338   4.813
   42DOPE  H18S 5370   1.465   4.385   4.707
   42DOPE  H18T 5371   1.480   4.455   4.872
   42DOPE   C33 5372   1.246   4.626   3.568
   42DOPE   H3X 5373   1.309   4.697   3.511
   42DOPE   H3Y 5374   1.311   4.543   3.601
   42DOPE   C34 5375   1.193   4.697   3.695
   42DOPE   H4X 5376   1.275   4.760   3.736
   42DOPE   H4Y 5377   1.110   4.765   3.667
   42DOPE   C35 5378   1.148   4.599   3.804
   42DOPE   H5X 5379   1.235   4.540   3.839
   42DOPE   H5Y 5380   1.077   4.527   3.759
   42DOPE   C36 5381   1.080   4.668   3.923
   42DOPE   H6X 5382   1.032   4.590   3.987
   42DOPE   H6Y 5383   0.998   4.733   3.884
   42DOPE   C37 5384   1.171   4.755   4.012
   42DOPE   H7X 5385   1.209   4.840   3.952
   42DOPE   H7Y 5386   1.110   4.797   4.095
   42DOPE   C38 5387   1.292   4.680   4.073
   42DOPE   H8X 5388   1.349   4.752   4.137
   42DOPE   H8Y 5389   1.361   4.652   3.990
   42DOPE   C39 5390   1.252   4.557   4.151
   42DOPE   H9X 5391   1.225   4.471   4.088
   42DOPE  C310 5392   1.247   4.544   4.285
   42DOPE  H10X 5393   1.214   4.447   4.326
   42DOPE  C311 5394   1.279   4.647   4.390
   42DOPE  H11X 5395   1.341   4.600   4.469
   42DOPE  H11Y 5396   1.337   4.733   4.351
   42DOPE  C312 5397   1.150   4.700   4.456
   42DOPE  H12X 5398   1.077   4.617   4.467
   42DOPE  H12Y 5399   1.103   4.774   4.388
   42DOPE  C313 5400   1.169   4.765   4.596
   42DOPE  H13X 5401   1.230   4.857   4.585
   42DOPE  H13Y 5402   1.068   4.797   4.630
   42DOPE  C314 5403   1.230   4.676   4.706
   42DOPE  H14X 5404   1.201   4.719   4.805
   42DOPE  H14Y 5405   1.341   4.680   4.700
   42DOPE  C315 5406   1.187   4.528   4.701
   42DOPE  H15X 5407   1.257   4.472   4.635
   42DOPE  H15Y 5408   1.086   4.522   4.655
   42DOPE  C316 5409   1.176   4.457   4.837
   42DOPE  H16X 5410   1.087   4.497   4.891
   42DOPE  H16Y 5411   1.265   4.478   4.900
   42DOPE  C317 5412   1.160   4.305   4.819
   42DOPE  H17X 5413   1.091   4.286   4.734
   42DOPE  H17Y 5414   1.259   4.263   4.790
   42DOPE  C318 5415   1.106   4.232   4.941
   42DOPE  H18X 5416   1.101   4.122   4.922
   42DOPE  H18Y 5417   1.171   4.249   5.030
   42DOPE  H18Z 5418   1.004   4.267   4.966
   43DOPE     N 5419   1.391   3.388   3.211
   43DOPE   HN1 5420   1.328   3.470   3.204
   43DOPE   HN2 5421   1.344   3.310   3.262
   43DOPE   HN3 5422   1.478   3.414   3.261
   43DOPE   C12 5423   1.421   3.345   3.070
   43DOPE  H12A 5424   1.509   3.277   3.073
   43DOPE  H12B 5425   1.449   3.437   3.014
   43DOPE   C11 5426   1.298   3.278   3.006
   43DOPE  H11A 5427   1.321   3.251   2.901
   43DOPE  H11B 5428   1.216   3.353   3.001
   43DOPE     P 5429   1.328   3.027   3.067
   43DOPE   O13 5430   1.466   3.042   3.115
   43DOPE   O14 5431   1.307   2.978   2.928
   43DOPE   O11 5432   1.249   2.930   3.162
   43DOPE   O12 5433   1.251   3.165   3.081
   43DOPE    C1 5434   1.111   2.944   3.197
   43DOPE    HA 5435   1.073   2.842   3.221
   43DOPE    HB 5436   1.050   2.984   3.114
   43DOPE    C2 5437   1.089   3.030   3.324
   43DOPE    HS 5438   1.092   3.137   3.293
   43DOPE   O21 5439   1.188   2.999   3.423
   43DOPE   C21 5440   1.287   3.085   3.436
   43DOPE   O22 5441   1.300   3.189   3.374
   43DOPE   C22 5442   1.387   3.036   3.541
   43DOPE   H2R 5443   1.419   3.124   3.600
   43DOPE   H2S 5444   1.474   2.997   3.484
   43DOPE    C3 5445   0.949   3.005   3.387
   43DOPE    HX 5446   0.945   2.897   3.411
   43DOPE    HY 5447   0.870   3.028   3.312
   43DOPE   O31 5448   0.931   3.087   3.504
   43DOPE   C31 5449   0.842   3.039   3.591
   43DOPE   O32 5450   0.772   2.941   3.572
   43DOPE   C32 5451   0.851   3.116   3.723
   43DOPE   H2X 5452   0.934   3.069   3.780
   43DOPE   H2Y 5453   0.880   3.222   3.702
   43DOPE   C23 5454   1.336   2.925   3.636
   43DOPE   H3R 5455   1.424   2.888   3.693
   43DOPE   H3S 5456   1.296   2.839   3.578
   43DOPE   C24 5457   1.231   2.975   3.737
   43DOPE   H4R 5458   1.134   2.988   3.685
   43DOPE   H4S 5459   1.263   3.074   3.775
   43DOPE   C25 5460   1.215   2.879   3.855
   43DOPE   H5R 5461   1.315   2.869   3.903
   43DOPE   H5S 5462   1.185   2.778   3.820
   43DOPE   C26 5463   1.113   2.927   3.959
   43DOPE   H6R 5464   1.011   2.910   3.919
   43DOPE   H6S 5465   1.125   3.037   3.974
   43DOPE   C27 5466   1.127   2.858   4.096
   43DOPE   H7R 5467   1.121   2.748   4.083
   43DOPE   H7S 5468   1.040   2.889   4.158
   43DOPE   C28 5469   1.257   2.897   4.169
   43DOPE   H8R 5470   1.267   3.007   4.163
   43DOPE   H8S 5471   1.343   2.853   4.114
   43DOPE   C29 5472   1.260   2.848   4.312
   43DOPE   H9R 5473   1.217   2.748   4.328
   43DOPE  C210 5474   1.310   2.915   4.418
   43DOPE  H10R 5475   1.305   2.866   4.516
   43DOPE  C211 5476   1.374   3.052   4.418
   43DOPE  H11R 5477   1.352   3.108   4.324
   43DOPE  H11S 5478   1.484   3.041   4.422
   43DOPE  C212 5479   1.330   3.141   4.536
   43DOPE  H12R 5480   1.219   3.154   4.535
   43DOPE  H12S 5481   1.376   3.241   4.523
   43DOPE  C213 5482   1.372   3.086   4.673
   43DOPE  H13R 5483   1.482   3.071   4.671
   43DOPE  H13S 5484   1.324   2.988   4.689
   43DOPE  C214 5485   1.335   3.177   4.790
   43DOPE  H14R 5486   1.230   3.210   4.781
   43DOPE  H14S 5487   1.399   3.268   4.787
   43DOPE  C215 5488   1.354   3.107   4.926
   43DOPE  H15R 5489   1.275   3.029   4.937
   43DOPE  H15S 5490   1.340   3.181   5.008
   43DOPE  C216 5491   1.491   3.040   4.940
   43DOPE  H16R 5492   1.568   3.117   4.919
   43DOPE  H16S 5493   1.503   2.959   4.865
   43DOPE  C217 5494   1.518   2.980   5.078
   43DOPE  H17R 5495   1.484   3.051   5.156
   43DOPE  H17S 5496   1.628   2.968   5.089
   43DOPE  C218 5497   1.454   2.843   5.099
   43DOPE  H18R 5498   1.345   2.846   5.075
   43DOPE  H18S 5499   1.465   2.810   5.204
   43DOPE  H18T 5500   1.502   2.768   5.033
   43DOPE   C33 5501   0.722   3.113   3.808
   43DOPE   H3X 5502   0.658   3.026   3.779
   43DOPE   H3Y 5503   0.662   3.205   3.787
   43DOPE   C34 5504   0.750   3.100   3.958
   43DOPE   H4X 5505   0.653   3.099   4.014
   43DOPE   H4Y 5506   0.799   3.002   3.976
   43DOPE   C35 5507   0.839   3.211   4.016
   43DOPE   H5X 5508   0.788   3.310   4.006
   43DOPE   H5Y 5509   0.933   3.216   3.957
   43DOPE   C36 5510   0.876   3.185   4.162
   43DOPE   H6X 5511   0.913   3.080   4.171
   43DOPE   H6Y 5512   0.785   3.193   4.226
   43DOPE   C37 5513   0.985   3.279   4.213
   43DOPE   H7X 5514   1.068   3.278   4.140
   43DOPE   H7Y 5515   0.947   3.383   4.218
   43DOPE   C38 5516   1.044   3.235   4.349
   43DOPE   H8X 5517   1.136   3.295   4.367
   43DOPE   H8Y 5518   1.077   3.130   4.339
   43DOPE   C39 5519   0.947   3.255   4.464
   43DOPE   H9X 5520   0.909   3.357   4.473
   43DOPE  C310 5521   0.905   3.162   4.551
   43DOPE  H10X 5522   0.833   3.192   4.629
   43DOPE  C311 5523   0.944   3.016   4.555
   43DOPE  H11X 5524   1.030   2.993   4.489
   43DOPE  H11Y 5525   0.975   2.989   4.658
   43DOPE  C312 5526   0.826   2.927   4.513
   43DOPE  H12X 5527   0.794   2.955   4.411
   43DOPE  H12Y 5528   0.739   2.944   4.581
   43DOPE  C313 5529   0.858   2.776   4.513
   43DOPE  H13X 5530   0.769   2.723   4.475
   43DOPE  H13Y 5531   0.941   2.756   4.442
   43DOPE  C314 5532   0.894   2.720   4.651
   43DOPE  H14X 5533   0.838   2.625   4.666
   43DOPE  H14Y 5534   0.859   2.790   4.730
   43DOPE  C315 5535   1.044   2.691   4.669
   43DOPE  H15X 5536   1.100   2.783   4.645
   43DOPE  H15Y 5537   1.074   2.612   4.597
   43DOPE  C316 5538   1.078   2.645   4.811
   43DOPE  H16X 5539   1.014   2.558   4.838
   43DOPE  H16Y 5540   1.053   2.727   4.882
   43DOPE  C317 5541   1.225   2.606   4.832
   43DOPE  H17X 5542   1.240   2.581   4.939
   43DOPE  H17Y 5543   1.247   2.514   4.773
   43DOPE  C318 5544   1.326   2.714   4.791
   43DOPE  H18X 5545   1.429   2.685   4.822
   43DOPE  H18Y 5546   1.326   2.728   4.681
   43DOPE  H18Z 5547   1.301   2.810   4.840
   44DOPE     N 5548   3.175   1.316   2.974
   44DOPE   HN1 5549   3.218   1.327   2.880
   44DOPE   HN2 5550   3.075   1.343   2.970
   44DOPE   HN3 5551   3.221   1.384   3.039
   44DOPE   C12 5552   3.186   1.175   3.027
   44DOPE  H12A 5553   3.132   1.172   3.124
   44DOPE  H12B 5554   3.293   1.152   3.044
   44DOPE   C11 5555   3.126   1.074   2.928
   44DOPE  H11A 5556   3.187   1.075   2.835
   44DOPE  H11B 5557   3.023   1.104   2.898
   44DOPE     P 5558   3.017   0.890   3.080
   44DOPE   O13 5559   3.018   0.743   3.086
   44DOPE   O14 5560   2.889   0.953   3.039
   44DOPE   O11 5561   3.065   0.952   3.218
   44DOPE   O12 5562   3.130   0.942   2.981
   44DOPE    C1 5563   3.158   0.879   3.300
   44DOPE    HA 5564   3.219   0.951   3.358
   44DOPE    HB 5565   3.228   0.817   3.240
   44DOPE    C2 5566   3.087   0.787   3.404
   44DOPE    HS 5567   3.022   0.717   3.346
   44DOPE   O21 5568   3.008   0.870   3.491
   44DOPE   C21 5569   2.924   0.806   3.568
   44DOPE   O22 5570   2.886   0.691   3.553
   44DOPE   C22 5571   2.879   0.897   3.682
   44DOPE   H2R 5572   2.822   0.836   3.755
   44DOPE   H2S 5573   2.811   0.974   3.639
   44DOPE    C3 5574   3.189   0.701   3.486
   44DOPE    HX 5575   3.255   0.647   3.416
   44DOPE    HY 5576   3.131   0.626   3.544
   44DOPE   O31 5577   3.268   0.787   3.573
   44DOPE   C31 5578   3.323   0.726   3.677
   44DOPE   O32 5579   3.325   0.606   3.697
   44DOPE   C32 5580   3.381   0.832   3.770
   44DOPE   H2X 5581   3.453   0.894   3.713
   44DOPE   H2Y 5582   3.296   0.897   3.802
   44DOPE   C23 5583   2.998   0.967   3.753
   44DOPE   H3R 5584   3.061   1.017   3.676
   44DOPE   H3S 5585   3.061   0.893   3.806
   44DOPE   C24 5586   2.952   1.076   3.852
   44DOPE   H4R 5587   2.925   1.029   3.950
   44DOPE   H4S 5588   2.861   1.124   3.812
   44DOPE   C25 5589   3.057   1.187   3.873
   44DOPE   H5R 5590   3.009   1.275   3.921
   44DOPE   H5S 5591   3.090   1.220   3.772
   44DOPE   C26 5592   3.181   1.147   3.953
   44DOPE   H6R 5593   3.265   1.211   3.917
   44DOPE   H6S 5594   3.211   1.042   3.932
   44DOPE   C27 5595   3.169   1.171   4.104
   44DOPE   H7R 5596   3.111   1.264   4.121
   44DOPE   H7S 5597   3.272   1.191   4.142
   44DOPE   C28 5598   3.115   1.051   4.185
   44DOPE   H8R 5599   3.176   1.044   4.277
   44DOPE   H8S 5600   3.136   0.958   4.128
   44DOPE   C29 5601   2.969   1.057   4.223
   44DOPE   H9R 5602   2.904   0.981   4.175
   44DOPE  C210 5603   2.913   1.144   4.310
   44DOPE  H10R 5604   2.805   1.137   4.331
   44DOPE  C211 5605   2.987   1.253   4.384
   44DOPE  H11R 5606   2.914   1.326   4.424
   44DOPE  H11S 5607   3.051   1.310   4.313
   44DOPE  C212 5608   3.076   1.205   4.500
   44DOPE  H12R 5609   3.164   1.272   4.507
   44DOPE  H12S 5610   3.114   1.102   4.480
   44DOPE  C213 5611   3.003   1.208   4.634
   44DOPE  H13R 5612   2.912   1.145   4.627
   44DOPE  H13S 5613   2.970   1.312   4.654
   44DOPE  C214 5614   3.091   1.161   4.751
   44DOPE  H14R 5615   3.101   1.243   4.824
   44DOPE  H14S 5616   3.193   1.139   4.713
   44DOPE  C215 5617   3.038   1.036   4.824
   44DOPE  H15R 5618   2.947   1.064   4.881
   44DOPE  H15S 5619   3.114   1.005   4.899
   44DOPE  C216 5620   3.007   0.915   4.734
   44DOPE  H16R 5621   3.070   0.830   4.766
   44DOPE  H16S 5622   3.035   0.939   4.629
   44DOPE  C217 5623   2.860   0.869   4.737
   44DOPE  H17R 5624   2.848   0.789   4.661
   44DOPE  H17S 5625   2.795   0.954   4.707
   44DOPE  C218 5626   2.816   0.815   4.873
   44DOPE  H18R 5627   2.888   0.740   4.911
   44DOPE  H18S 5628   2.716   0.767   4.865
   44DOPE  H18T 5629   2.808   0.897   4.948
   44DOPE   C33 5630   3.448   0.771   3.896
   44DOPE   H3X 5631   3.539   0.715   3.865
   44DOPE   H3Y 5632   3.379   0.698   3.943
   44DOPE   C34 5633   3.487   0.875   4.002
   44DOPE   H4X 5634   3.395   0.923   4.042
   44DOPE   H4Y 5635   3.536   0.821   4.086
   44DOPE   C35 5636   3.583   0.983   3.951
   44DOPE   H5X 5637   3.530   1.050   3.881
   44DOPE   H5Y 5638   3.666   0.935   3.894
   44DOPE   C36 5639   3.647   1.066   4.063
   44DOPE   H6X 5640   3.722   1.135   4.018
   44DOPE   H6Y 5641   3.701   0.999   4.133
   44DOPE   C37 5642   3.545   1.149   4.141
   44DOPE   H7X 5643   3.491   1.214   4.069
   44DOPE   H7Y 5644   3.470   1.081   4.188
   44DOPE   C38 5645   3.609   1.235   4.252
   44DOPE   H8X 5646   3.689   1.298   4.207
   44DOPE   H8Y 5647   3.658   1.167   4.324
   44DOPE   C39 5648   3.504   1.322   4.316
   44DOPE   H9X 5649   3.458   1.397   4.249
   44DOPE  C310 5650   3.462   1.316   4.443
   44DOPE  H10X 5651   3.382   1.385   4.476
   44DOPE  C311 5652   3.511   1.221   4.549
   44DOPE  H11X 5653   3.621   1.204   4.540
   44DOPE  H11Y 5654   3.496   1.267   4.649
   44DOPE  C312 5655   3.439   1.085   4.547
   44DOPE  H12X 5656   3.466   1.028   4.455
   44DOPE  H12Y 5657   3.330   1.103   4.544
   44DOPE  C313 5658   3.471   1.000   4.671
   44DOPE  H13X 5659   3.571   0.954   4.662
   44DOPE  H13Y 5660   3.473   1.069   4.758
   44DOPE  C314 5661   3.366   0.892   4.702
   44DOPE  H14X 5662   3.265   0.929   4.673
   44DOPE  H14Y 5663   3.366   0.877   4.812
   44DOPE  C315 5664   3.392   0.757   4.635
   44DOPE  H15X 5665   3.493   0.721   4.664
   44DOPE  H15Y 5666   3.393   0.771   4.524
   44DOPE  C316 5667   3.287   0.650   4.671
   44DOPE  H16X 5668   3.314   0.555   4.619
   44DOPE  H16Y 5669   3.188   0.681   4.632
   44DOPE  C317 5670   3.277   0.620   4.821
   44DOPE  H17X 5671   3.379   0.601   4.860
   44DOPE  H17Y 5672   3.237   0.709   4.874
   44DOPE  C318 5673   3.189   0.499   4.854
   44DOPE  H18X 5674   3.085   0.516   4.821
   44DOPE  H18Y 5675   3.228   0.408   4.803
   44DOPE  H18Z 5676   3.190   0.480   4.963
   45DOPE     N 5677   4.316   0.991   2.792
   45DOPE   HN1 5678   4.357   1.067   2.734
   45DOPE   HN2 5679   4.299   1.024   2.890
   45DOPE   HN3 5680   4.382   0.910   2.797
   45DOPE   C12 5681   4.182   0.947   2.738
   45DOPE  H12A 5682   4.200   0.909   2.635
   45DOPE  H12B 5683   4.117   1.036   2.731
   45DOPE   C11 5684   4.117   0.838   2.827
   45DOPE  H11A 5685   4.194   0.778   2.880
   45DOPE  H11B 5686   4.064   0.769   2.758
   45DOPE     P 5687   4.061   0.988   3.038
   45DOPE   O13 5688   3.971   1.104   3.028
   45DOPE   O14 5689   4.207   1.012   3.031
   45DOPE   O11 5690   4.027   0.901   3.164
   45DOPE   O12 5691   4.021   0.890   2.919
   45DOPE    C1 5692   3.895   0.895   3.217
   45DOPE    HA 5693   3.885   0.801   3.275
   45DOPE    HB 5694   3.818   0.892   3.137
   45DOPE    C2 5695   3.864   1.013   3.314
   45DOPE    HS 5696   3.867   1.106   3.254
   45DOPE   O21 5697   3.965   1.016   3.417
   45DOPE   C21 5698   3.983   1.133   3.475
   45DOPE   O22 5699   3.914   1.233   3.457
   45DOPE   C22 5700   4.110   1.126   3.560
   45DOPE   H2R 5701   4.195   1.121   3.489
   45DOPE   H2S 5702   4.109   1.032   3.620
   45DOPE    C3 5703   3.721   0.999   3.374
   45DOPE    HX 5704   3.649   1.004   3.289
   45DOPE    HY 5705   3.699   1.087   3.438
   45DOPE   O31 5706   3.706   0.871   3.439
   45DOPE   C31 5707   3.708   0.873   3.571
   45DOPE   O32 5708   3.693   0.972   3.641
   45DOPE   C32 5709   3.737   0.732   3.623
   45DOPE   H2X 5710   3.640   0.684   3.649
   45DOPE   H2Y 5711   3.783   0.674   3.540
   45DOPE   C23 5712   4.130   1.248   3.654
   45DOPE   H3R 5713   4.060   1.243   3.739
   45DOPE   H3S 5714   4.107   1.341   3.598
   45DOPE   C24 5715   4.276   1.263   3.704
   45DOPE   H4R 5716   4.289   1.365   3.745
   45DOPE   H4S 5717   4.343   1.254   3.616
   45DOPE   C25 5718   4.319   1.159   3.809
   45DOPE   H5R 5719   4.429   1.166   3.823
   45DOPE   H5S 5720   4.296   1.057   3.771
   45DOPE   C26 5721   4.252   1.176   3.947
   45DOPE   H6R 5722   4.278   1.088   4.010
   45DOPE   H6S 5723   4.141   1.175   3.934
   45DOPE   C27 5724   4.295   1.302   4.023
   45DOPE   H7R 5725   4.278   1.393   3.961
   45DOPE   H7S 5726   4.405   1.296   4.041
   45DOPE   C28 5727   4.224   1.320   4.159
   45DOPE   H8R 5728   4.276   1.400   4.215
   45DOPE   H8S 5729   4.237   1.226   4.217
   45DOPE   C29 5730   4.078   1.352   4.144
   45DOPE   H9R 5731   4.035   1.331   4.045
   45DOPE  C210 5732   3.998   1.403   4.239
   45DOPE  H10R 5733   3.892   1.421   4.216
   45DOPE  C211 5734   4.039   1.439   4.380
   45DOPE  H11R 5735   3.964   1.508   4.424
   45DOPE  H11S 5736   4.136   1.494   4.380
   45DOPE  C212 5737   4.054   1.318   4.474
   45DOPE  H12R 5738   4.066   1.356   4.578
   45DOPE  H12S 5739   4.146   1.262   4.449
   45DOPE  C213 5740   3.935   1.221   4.470
   45DOPE  H13R 5741   3.939   1.164   4.375
   45DOPE  H13S 5742   3.839   1.277   4.471
   45DOPE  C214 5743   3.936   1.122   4.588
   45DOPE  H14R 5744   3.900   1.175   4.679
   45DOPE  H14S 5745   4.040   1.089   4.608
   45DOPE  C215 5746   3.851   0.997   4.561
   45DOPE  H15R 5747   3.888   0.947   4.469
   45DOPE  H15S 5748   3.746   1.028   4.540
   45DOPE  C216 5749   3.851   0.895   4.676
   45DOPE  H16R 5750   3.951   0.848   4.685
   45DOPE  H16S 5751   3.779   0.814   4.651
   45DOPE  C217 5752   3.812   0.955   4.812
   45DOPE  H17R 5753   3.728   1.026   4.797
   45DOPE  H17S 5754   3.898   1.014   4.851
   45DOPE  C218 5755   3.770   0.850   4.915
   45DOPE  H18R 5756   3.855   0.782   4.939
   45DOPE  H18S 5757   3.687   0.789   4.875
   45DOPE  H18T 5758   3.736   0.898   5.009
   45DOPE   C33 5759   3.833   0.732   3.745
   45DOPE   H3X 5760   3.862   0.628   3.768
   45DOPE   H3Y 5761   3.780   0.772   3.834
   45DOPE   C34 5762   3.960   0.815   3.720
   45DOPE   H4X 5763   4.003   0.783   3.622
   45DOPE   H4Y 5764   3.933   0.923   3.710
   45DOPE   C35 5765   4.068   0.802   3.827
   45DOPE   H5X 5766   4.162   0.843   3.783
   45DOPE   H5Y 5767   4.087   0.695   3.850
   45DOPE   C36 5768   4.042   0.880   3.957
   45DOPE   H6X 5769   3.990   0.975   3.933
   45DOPE   H6Y 5770   4.141   0.908   3.999
   45DOPE   C37 5771   3.967   0.805   4.069
   45DOPE   H7X 5772   3.967   0.870   4.159
   45DOPE   H7Y 5773   3.860   0.794   4.039
   45DOPE   C38 5774   4.022   0.666   4.107
   45DOPE   H8X 5775   3.977   0.594   4.035
   45DOPE   H8Y 5776   3.981   0.639   4.206
   45DOPE   C39 5777   4.172   0.643   4.106
   45DOPE   H9X 5778   4.205   0.568   4.033
   45DOPE  C310 5779   4.267   0.704   4.180
   45DOPE  H10X 5780   4.371   0.673   4.167
   45DOPE  C311 5781   4.246   0.811   4.284
   45DOPE  H11X 5782   4.331   0.884   4.280
   45DOPE  H11Y 5783   4.154   0.870   4.264
   45DOPE  C312 5784   4.236   0.752   4.425
   45DOPE  H12X 5785   4.326   0.691   4.450
   45DOPE  H12Y 5786   4.148   0.684   4.427
   45DOPE  C313 5787   4.215   0.859   4.532
   45DOPE  H13X 5788   4.139   0.932   4.496
   45DOPE  H13Y 5789   4.174   0.810   4.623
   45DOPE  C314 5790   4.344   0.934   4.572
   45DOPE  H14X 5791   4.389   0.979   4.482
   45DOPE  H14Y 5792   4.416   0.860   4.613
   45DOPE  C315 5793   4.322   1.044   4.677
   45DOPE  H15X 5794   4.255   1.122   4.635
   45DOPE  H15Y 5795   4.419   1.092   4.700
   45DOPE  C316 5796   4.260   0.991   4.808
   45DOPE  H16X 5797   4.328   0.915   4.852
   45DOPE  H16Y 5798   4.163   0.942   4.787
   45DOPE  C317 5799   4.235   1.101   4.911
   45DOPE  H17X 5800   4.330   1.155   4.931
   45DOPE  H17Y 5801   4.164   1.175   4.868
   45DOPE  C318 5802   4.178   1.047   5.042
   45DOPE  H18X 5803   4.151   1.131   5.110
   45DOPE  H18Y 5804   4.088   0.986   5.023
   45DOPE  H18Z 5805   4.253   0.983   5.094
   46DOPE     N 5806   4.282   6.783   3.066
   46DOPE   HN1 5807   4.186   6.792   3.026
   46DOPE   HN2 5808   4.281   6.808   3.167
   46DOPE   HN3 5809   4.347   6.847   3.017
   46DOPE   C12 5810   4.336   6.643   3.047
   46DOPE  H12A 5811   4.352   6.629   2.938
   46DOPE  H12B 5812   4.259   6.571   3.081
   46DOPE   C11 5813   4.469   6.625   3.123
   46DOPE  H11A 5814   4.523   6.537   3.083
   46DOPE  H11B 5815   4.446   6.602   3.229
   46DOPE     P 5816   4.608   6.798   2.984
   46DOPE   O13 5817   4.505   6.896   2.940
   46DOPE   O14 5818   4.634   6.684   2.895
   46DOPE   O11 5819   4.742   6.869   3.028
   46DOPE   O12 5820   4.552   6.742   3.120
   46DOPE    C1 5821   4.862   6.790   3.036
   46DOPE    HA 5822   4.949   6.859   3.046
   46DOPE    HB 5823   4.881   6.735   2.942
   46DOPE    C2 5824   4.863   6.691   3.157
   46DOPE    HS 5825   4.770   6.704   3.216
   46DOPE   O21 5826   4.977   6.714   3.243
   46DOPE   C21 5827   4.972   6.826   3.312
   46DOPE   O22 5828   4.889   6.915   3.302
   46DOPE   C22 5829   5.089   6.831   3.411
   46DOPE   H2R 5830   5.130   6.934   3.405
   46DOPE   H2S 5831   5.167   6.760   3.379
   46DOPE    C3 5832   4.866   6.543   3.109
   46DOPE    HX 5833   4.948   6.535   3.034
   46DOPE    HY 5834   4.771   6.519   3.057
   46DOPE   O31 5835   4.896   6.449   3.215
   46DOPE   C31 5836   4.793   6.412   3.291
   46DOPE   O32 5837   4.676   6.441   3.271
   46DOPE   C32 5838   4.846   6.331   3.408
   46DOPE   H2X 5839   4.871   6.230   3.370
   46DOPE   H2Y 5840   4.940   6.379   3.444
   46DOPE   C23 5841   5.044   6.802   3.556
   46DOPE   H3R 5842   5.131   6.822   3.624
   46DOPE   H3S 5843   5.018   6.694   3.568
   46DOPE   C24 5844   4.926   6.888   3.603
   46DOPE   H4R 5845   4.833   6.847   3.557
   46DOPE   H4S 5846   4.938   6.992   3.567
   46DOPE   C25 5847   4.907   6.892   3.756
   46DOPE   H5R 5848   4.913   6.789   3.798
   46DOPE   H5S 5849   4.804   6.930   3.775
   46DOPE   C26 5850   5.006   6.985   3.827
   46DOPE   H6R 5851   5.015   7.078   3.767
   46DOPE   H6S 5852   5.106   6.938   3.831
   46DOPE   C27 5853   4.961   7.025   3.968
   46DOPE   H7R 5854   4.857   7.064   3.961
   46DOPE   H7S 5855   5.025   7.108   4.005
   46DOPE   C28 5856   4.968   6.909   4.070
   46DOPE   H8R 5857   5.074   6.879   4.082
   46DOPE   H8S 5858   4.914   6.821   4.028
   46DOPE   C29 5859   4.904   6.949   4.201
   46DOPE   H9R 5860   4.795   6.960   4.197
   46DOPE  C210 5861   4.967   6.972   4.318
   46DOPE  H10R 5862   4.906   7.001   4.405
   46DOPE  C211 5863   5.115   6.964   4.343
   46DOPE  H11R 5864   5.170   7.004   4.255
   46DOPE  H11S 5865   5.148   6.858   4.354
   46DOPE  C212 5866   5.163   7.043   4.467
   46DOPE  H12R 5867   5.110   7.141   4.474
   46DOPE  H12S 5868   5.270   7.066   4.452
   46DOPE  C213 5869   5.152   6.968   4.601
   46DOPE  H13R 5870   5.200   7.030   4.680
   46DOPE  H13S 5871   5.210   6.873   4.595
   46DOPE  C214 5872   5.009   6.934   4.646
   46DOPE  H14R 5873   4.966   6.861   4.574
   46DOPE  H14S 5874   4.946   7.025   4.645
   46DOPE  C215 5875   5.003   6.869   4.786
   46DOPE  H15R 5876   5.083   6.792   4.793
   46DOPE  H15S 5877   4.905   6.818   4.797
   46DOPE  C216 5878   5.018   6.970   4.901
   46DOPE  H16R 5879   4.938   7.046   4.891
   46DOPE  H16S 5880   5.116   7.022   4.894
   46DOPE  C217 5881   5.006   6.903   5.039
   46DOPE  H17R 5882   4.914   6.841   5.042
   46DOPE  H17S 5883   4.994   6.983   5.116
   46DOPE  C218 5884   5.127   6.817   5.077
   46DOPE  H18R 5885   5.112   6.771   5.177
   46DOPE  H18S 5886   5.220   6.879   5.080
   46DOPE  H18T 5887   5.142   6.736   5.002
   46DOPE   C33 5888   4.748   6.317   3.526
   46DOPE   H3X 5889   4.787   6.237   3.593
   46DOPE   H3Y 5890   4.648   6.284   3.491
   46DOPE   C34 5891   4.736   6.445   3.611
   46DOPE   H4X 5892   4.838   6.476   3.643
   46DOPE   H4Y 5893   4.694   6.526   3.547
   46DOPE   C35 5894   4.648   6.425   3.735
   46DOPE   H5X 5895   4.686   6.338   3.792
   46DOPE   H5Y 5896   4.545   6.400   3.702
   46DOPE   C36 5897   4.643   6.546   3.829
   46DOPE   H6X 5898   4.744   6.565   3.870
   46DOPE   H6Y 5899   4.577   6.521   3.915
   46DOPE   C37 5900   4.591   6.674   3.762
   46DOPE   H7X 5901   4.667   6.708   3.688
   46DOPE   H7Y 5902   4.499   6.651   3.705
   46DOPE   C38 5903   4.565   6.789   3.861
   46DOPE   H8X 5904   4.548   6.882   3.802
   46DOPE   H8Y 5905   4.657   6.805   3.921
   46DOPE   C39 5906   4.443   6.763   3.946
   46DOPE   H9X 5907   4.350   6.752   3.889
   46DOPE  C310 5908   4.437   6.750   4.080
   46DOPE  H10X 5909   4.340   6.729   4.127
   46DOPE  C311 5910   4.552   6.757   4.177
   46DOPE  H11X 5911   4.649   6.772   4.125
   46DOPE  H11Y 5912   4.540   6.845   4.245
   46DOPE  C312 5913   4.562   6.630   4.264
   46DOPE  H12X 5914   4.561   6.540   4.200
   46DOPE  H12Y 5915   4.473   6.625   4.330
   46DOPE  C313 5916   4.689   6.628   4.350
   46DOPE  H13X 5917   4.704   6.727   4.398
   46DOPE  H13Y 5918   4.676   6.553   4.430
   46DOPE  C314 5919   4.814   6.590   4.269
   46DOPE  H14X 5920   4.825   6.660   4.183
   46DOPE  H14Y 5921   4.801   6.488   4.227
   46DOPE  C315 5922   4.944   6.594   4.350
   46DOPE  H15X 5923   4.965   6.697   4.386
   46DOPE  H15Y 5924   5.028   6.565   4.283
   46DOPE  C316 5925   4.942   6.498   4.470
   46DOPE  H16X 5926   4.890   6.406   4.439
   46DOPE  H16Y 5927   4.885   6.543   4.554
   46DOPE  C317 5928   5.083   6.459   4.518
   46DOPE  H17X 5929   5.074   6.375   4.589
   46DOPE  H17Y 5930   5.139   6.422   4.429
   46DOPE  C318 5931   5.161   6.573   4.583
   46DOPE  H18X 5932   5.107   6.609   4.674
   46DOPE  H18Y 5933   5.262   6.538   4.615
   46DOPE  H18Z 5934   5.173   6.658   4.513
   47DOPE     N 5935   1.408   6.303   3.214
   47DOPE   HN1 5936   1.484   6.302   3.285
   47DOPE   HN2 5937   1.342   6.380   3.237
   47DOPE   HN3 5938   1.352   6.216   3.224
   47DOPE   C12 5939   1.460   6.306   3.073
   47DOPE  H12A 5940   1.555   6.363   3.076
   47DOPE  H12B 5941   1.386   6.361   3.011
   47DOPE   C11 5942   1.483   6.163   3.018
   47DOPE  H11A 5943   1.536   6.100   3.092
   47DOPE  H11B 5944   1.552   6.173   2.931
   47DOPE     P 5945   1.267   6.017   3.065
   47DOPE   O13 5946   1.135   6.015   3.000
   47DOPE   O14 5947   1.277   6.077   3.199
   47DOPE   O11 5948   1.333   5.874   3.066
   47DOPE   O12 5949   1.362   6.103   2.970
   47DOPE    C1 5950   1.329   5.791   2.950
   47DOPE    HA 5951   1.387   5.838   2.868
   47DOPE    HB 5952   1.224   5.778   2.915
   47DOPE    C2 5953   1.389   5.648   2.975
   47DOPE    HS 5954   1.373   5.588   2.884
   47DOPE   O21 5955   1.327   5.585   3.088
   47DOPE   C21 5956   1.201   5.556   3.083
   47DOPE   O22 5957   1.129   5.554   2.984
   47DOPE   C22 5958   1.159   5.515   3.224
   47DOPE   H2R 5959   1.240   5.452   3.266
   47DOPE   H2S 5960   1.066   5.454   3.216
   47DOPE    C3 5961   1.542   5.649   3.004
   47DOPE    HX 5962   1.594   5.707   2.924
   47DOPE    HY 5963   1.577   5.544   2.997
   47DOPE   O31 5964   1.569   5.697   3.138
   47DOPE   C31 5965   1.618   5.818   3.150
   47DOPE   O32 5966   1.669   5.884   3.061
   47DOPE   C32 5967   1.599   5.869   3.294
   47DOPE   H2X 5968   1.700   5.900   3.329
   47DOPE   H2Y 5969   1.533   5.957   3.286
   47DOPE   C23 5970   1.134   5.635   3.319
   47DOPE   H3R 5971   1.033   5.678   3.297
   47DOPE   H3S 5972   1.209   5.715   3.301
   47DOPE   C24 5973   1.142   5.593   3.466
   47DOPE   H4R 5974   1.246   5.564   3.490
   47DOPE   H4S 5975   1.079   5.503   3.481
   47DOPE   C25 5976   1.096   5.704   3.563
   47DOPE   H5R 5977   0.995   5.738   3.532
   47DOPE   H5S 5978   1.165   5.790   3.553
   47DOPE   C26 5979   1.090   5.659   3.710
   47DOPE   H6R 5980   1.189   5.618   3.741
   47DOPE   H6S 5981   1.015   5.578   3.719
   47DOPE   C27 5982   1.049   5.774   3.803
   47DOPE   H7R 5983   0.956   5.817   3.760
   47DOPE   H7S 5984   1.127   5.853   3.802
   47DOPE   C28 5985   1.018   5.733   3.949
   47DOPE   H8R 5986   0.948   5.647   3.946
   47DOPE   H8S 5987   0.962   5.817   3.994
   47DOPE   C29 5988   1.142   5.699   4.029
   47DOPE   H9R 5989   1.211   5.630   3.978
   47DOPE  C210 5990   1.174   5.744   4.152
   47DOPE  H10R 5991   1.269   5.711   4.197
   47DOPE  C211 5992   1.094   5.839   4.238
   47DOPE  H11R 5993   1.060   5.786   4.330
   47DOPE  H11S 5994   1.002   5.873   4.187
   47DOPE  C212 5995   1.171   5.966   4.281
   47DOPE  H12R 5996   1.095   6.039   4.315
   47DOPE  H12S 5997   1.225   6.011   4.195
   47DOPE  C213 5998   1.269   5.943   4.397
   47DOPE  H13R 5999   1.362   5.895   4.360
   47DOPE  H13S 6000   1.222   5.874   4.470
   47DOPE  C214 6001   1.302   6.074   4.471
   47DOPE  H14R 6002   1.206   6.125   4.494
   47DOPE  H14S 6003   1.360   6.142   4.406
   47DOPE  C215 6004   1.377   6.050   4.603
   47DOPE  H15R 6005   1.484   6.029   4.581
   47DOPE  H15S 6006   1.335   5.959   4.653
   47DOPE  C216 6007   1.366   6.165   4.704
   47DOPE  H16R 6008   1.386   6.262   4.653
   47DOPE  H16S 6009   1.445   6.152   4.781
   47DOPE  C217 6010   1.230   6.170   4.774
   47DOPE  H17R 6011   1.203   6.067   4.806
   47DOPE  H17S 6012   1.153   6.203   4.702
   47DOPE  C218 6013   1.227   6.261   4.897
   47DOPE  H18R 6014   1.258   6.364   4.869
   47DOPE  H18S 6015   1.296   6.223   4.975
   47DOPE  H18T 6016   1.125   6.266   4.940
   47DOPE   C33 6017   1.537   5.772   3.397
   47DOPE   H3X 6018   1.604   5.686   3.413
   47DOPE   H3Y 6019   1.439   5.734   3.360
   47DOPE   C34 6020   1.515   5.842   3.533
   47DOPE   H4X 6021   1.611   5.887   3.565
   47DOPE   H4Y 6022   1.441   5.924   3.520
   47DOPE   C35 6023   1.466   5.747   3.644
   47DOPE   H5X 6024   1.544   5.671   3.665
   47DOPE   H5Y 6025   1.377   5.693   3.606
   47DOPE   C36 6026   1.427   5.820   3.774
   47DOPE   H6X 6027   1.371   5.750   3.840
   47DOPE   H6Y 6028   1.356   5.902   3.746
   47DOPE   C37 6029   1.543   5.881   3.854
   47DOPE   H7X 6030   1.626   5.912   3.786
   47DOPE   H7Y 6031   1.506   5.974   3.902
   47DOPE   C38 6032   1.597   5.792   3.968
   47DOPE   H8X 6033   1.513   5.771   4.038
   47DOPE   H8Y 6034   1.671   5.852   4.025
   47DOPE   C39 6035   1.664   5.667   3.917
   47DOPE   H9X 6036   1.744   5.685   3.844
   47DOPE  C310 6037   1.632   5.540   3.949
   47DOPE  H10X 6038   1.691   5.458   3.903
   47DOPE  C311 6039   1.524   5.496   4.043
   47DOPE  H11X 6040   1.441   5.570   4.047
   47DOPE  H11Y 6041   1.478   5.401   4.007
   47DOPE  C312 6042   1.577   5.475   4.186
   47DOPE  H12X 6043   1.609   5.573   4.227
   47DOPE  H12Y 6044   1.665   5.407   4.185
   47DOPE  C313 6045   1.469   5.414   4.277
   47DOPE  H13X 6046   1.374   5.468   4.260
   47DOPE  H13Y 6047   1.453   5.308   4.246
   47DOPE  C314 6048   1.503   5.420   4.427
   47DOPE  H14X 6049   1.605   5.382   4.445
   47DOPE  H14Y 6050   1.432   5.353   4.480
   47DOPE  C315 6051   1.486   5.561   4.484
   47DOPE  H15X 6052   1.390   5.603   4.446
   47DOPE  H15Y 6053   1.568   5.627   4.446
   47DOPE  C316 6054   1.483   5.565   4.637
   47DOPE  H16X 6055   1.581   5.533   4.678
   47DOPE  H16Y 6056   1.406   5.493   4.672
   47DOPE  C317 6057   1.447   5.704   4.689
   47DOPE  H17X 6058   1.528   5.775   4.663
   47DOPE  H17Y 6059   1.355   5.738   4.636
   47DOPE  C318 6060   1.422   5.709   4.840
   47DOPE  H18X 6061   1.393   5.812   4.872
   47DOPE  H18Y 6062   1.340   5.640   4.867
   47DOPE  H18Z 6063   1.513   5.679   4.896
   48DOPE     N 6064   6.520   1.580   2.796
   48DOPE   HN1 6065   6.485   1.482   2.802
   48DOPE   HN2 6066   6.441   1.645   2.817
   48DOPE   HN3 6067   6.559   1.598   2.702
   48DOPE   C12 6068   6.623   1.608   2.901
   48DOPE  H12A 6069   6.708   1.538   2.886
   48DOPE  H12B 6070   6.577   1.587   3.000
   48DOPE   C11 6071   6.672   1.756   2.894
   48DOPE  H11A 6072   6.739   1.764   2.806
   48DOPE  H11B 6073   6.734   1.779   2.983
   48DOPE     P 6074   6.444   1.857   2.978
   48DOPE   O13 6075   6.355   1.747   2.935
   48DOPE   O14 6076   6.390   1.994   2.978
   48DOPE   O11 6077   6.513   1.820   3.115
   48DOPE   O12 6078   6.567   1.853   2.879
   48DOPE    C1 6079   6.566   1.925   3.198
   48DOPE    HA 6080   6.482   1.968   3.257
   48DOPE    HB 6081   6.611   2.008   3.139
   48DOPE    C2 6082   6.675   1.875   3.297
   48DOPE    HS 6083   6.771   1.867   3.242
   48DOPE   O21 6084   6.638   1.749   3.355
   48DOPE   C21 6085   6.677   1.640   3.292
   48DOPE   O22 6086   6.749   1.637   3.193
   48DOPE   C22 6087   6.630   1.516   3.368
   48DOPE   H2R 6088   6.700   1.502   3.453
   48DOPE   H2S 6089   6.640   1.430   3.299
   48DOPE    C3 6090   6.696   1.977   3.413
   48DOPE    HX 6091   6.736   2.071   3.369
   48DOPE    HY 6092   6.774   1.938   3.482
   48DOPE   O31 6093   6.571   2.006   3.478
   48DOPE   C31 6094   6.539   1.927   3.581
   48DOPE   O32 6095   6.616   1.854   3.640
   48DOPE   C32 6096   6.388   1.936   3.605
   48DOPE   H2X 6097   6.342   1.993   3.521
   48DOPE   H2Y 6098   6.348   1.832   3.600
   48DOPE   C23 6099   6.485   1.525   3.420
   48DOPE   H3R 6100   6.416   1.538   3.333
   48DOPE   H3S 6101   6.473   1.614   3.485
   48DOPE   C24 6102   6.443   1.400   3.498
   48DOPE   H4R 6103   6.471   1.310   3.439
   48DOPE   H4S 6104   6.333   1.398   3.509
   48DOPE   C25 6105   6.506   1.389   3.639
   48DOPE   H5R 6106   6.615   1.406   3.634
   48DOPE   H5S 6107   6.490   1.285   3.674
   48DOPE   C26 6108   6.442   1.484   3.741
   48DOPE   H6R 6109   6.332   1.468   3.737
   48DOPE   H6S 6110   6.461   1.590   3.713
   48DOPE   C27 6111   6.488   1.457   3.886
   48DOPE   H7R 6112   6.487   1.347   3.901
   48DOPE   H7S 6113   6.412   1.499   3.956
   48DOPE   C28 6114   6.627   1.512   3.924
   48DOPE   H8R 6115   6.700   1.472   3.851
   48DOPE   H8S 6116   6.654   1.470   4.024
   48DOPE   C29 6117   6.632   1.663   3.925
   48DOPE   H9R 6118   6.591   1.708   3.834
   48DOPE  C210 6119   6.683   1.746   4.018
   48DOPE  H10R 6120   6.673   1.854   4.000
   48DOPE  C211 6121   6.750   1.713   4.149
   48DOPE  H11R 6122   6.860   1.725   4.137
   48DOPE  H11S 6123   6.732   1.607   4.177
   48DOPE  C212 6124   6.710   1.801   4.269
   48DOPE  H12R 6125   6.747   1.751   4.361
   48DOPE  H12S 6126   6.599   1.807   4.278
   48DOPE  C213 6127   6.767   1.944   4.265
   48DOPE  H13R 6128   6.743   1.991   4.168
   48DOPE  H13S 6129   6.877   1.938   4.275
   48DOPE  C214 6130   6.712   2.034   4.377
   48DOPE  H14R 6131   6.605   2.057   4.357
   48DOPE  H14S 6132   6.768   2.131   4.376
   48DOPE  C215 6133   6.724   1.972   4.517
   48DOPE  H15R 6134   6.827   1.935   4.532
   48DOPE  H15S 6135   6.656   1.884   4.522
   48DOPE  C216 6136   6.686   2.068   4.630
   48DOPE  H16R 6137   6.590   2.118   4.605
   48DOPE  H16S 6138   6.764   2.147   4.640
   48DOPE  C217 6139   6.668   1.996   4.765
   48DOPE  H17R 6140   6.588   1.920   4.752
   48DOPE  H17S 6141   6.633   2.069   4.841
   48DOPE  C218 6142   6.794   1.925   4.817
   48DOPE  H18R 6143   6.834   1.855   4.740
   48DOPE  H18S 6144   6.771   1.866   4.908
   48DOPE  H18T 6145   6.873   1.999   4.841
   48DOPE   C33 6146   6.349   2.001   3.739
   48DOPE   H3X 6147   6.240   2.021   3.737
   48DOPE   H3Y 6148   6.400   2.098   3.752
   48DOPE   C34 6149   6.377   1.910   3.860
   48DOPE   H4X 6150   6.330   1.811   3.843
   48DOPE   H4Y 6151   6.487   1.896   3.868
   48DOPE   C35 6152   6.326   1.970   3.992
   48DOPE   H5X 6153   6.217   1.988   3.984
   48DOPE   H5Y 6154   6.376   2.068   4.006
   48DOPE   C36 6155   6.354   1.885   4.117
   48DOPE   H6X 6156   6.316   1.939   4.206
   48DOPE   H6Y 6157   6.464   1.874   4.129
   48DOPE   C37 6158   6.289   1.746   4.112
   48DOPE   H7X 6159   6.182   1.760   4.085
   48DOPE   H7Y 6160   6.334   1.685   4.030
   48DOPE   C38 6161   6.294   1.670   4.246
   48DOPE   H8X 6162   6.214   1.594   4.245
   48DOPE   H8Y 6163   6.270   1.741   4.329
   48DOPE   C39 6164   6.428   1.605   4.269
   48DOPE   H9X 6165   6.493   1.600   4.180
   48DOPE  C310 6166   6.473   1.553   4.384
   48DOPE  H10X 6167   6.573   1.508   4.387
   48DOPE  C311 6168   6.398   1.548   4.515
   48DOPE  H11X 6169   6.289   1.562   4.500
   48DOPE  H11Y 6170   6.412   1.447   4.560
   48DOPE  C312 6171   6.442   1.652   4.620
   48DOPE  H12X 6172   6.412   1.753   4.585
   48DOPE  H12Y 6173   6.552   1.652   4.632
   48DOPE  C313 6174   6.376   1.622   4.755
   48DOPE  H13X 6175   6.266   1.608   4.741
   48DOPE  H13Y 6176   6.416   1.525   4.792
   48DOPE  C314 6177   6.399   1.728   4.863
   48DOPE  H14X 6178   6.509   1.746   4.873
   48DOPE  H14Y 6179   6.363   1.688   4.960
   48DOPE  C315 6180   6.329   1.863   4.837
   48DOPE  H15X 6181   6.366   1.908   4.743
   48DOPE  H15Y 6182   6.355   1.932   4.920
   48DOPE  C316 6183   6.175   1.852   4.829
   48DOPE  H16X 6184   6.140   1.789   4.914
   48DOPE  H16Y 6185   6.146   1.800   4.735
   48DOPE  C317 6186   6.105   1.988   4.836
   48DOPE  H17X 6187   5.996   1.971   4.844
   48DOPE  H17Y 6188   6.137   2.040   4.928
   48DOPE  C318 6189   6.132   2.078   4.715
   48DOPE  H18X 6190   6.102   2.027   4.620
   48DOPE  H18Y 6191   6.075   2.172   4.723
   48DOPE  H18Z 6192   6.240   2.103   4.708
   49DOPE     N 6193   1.861   6.286   2.792
   49DOPE   HN1 6194   1.836   6.198   2.842
   49DOPE   HN2 6195   1.814   6.288   2.699
   49DOPE   HN3 6196   1.964   6.284   2.776
   49DOPE   C12 6197   1.822   6.409   2.867
   49DOPE  H12A 6198   1.738   6.384   2.935
   49DOPE  H12B 6199   1.787   6.485   2.793
   49DOPE   C11 6200   1.942   6.465   2.945
   49DOPE  H11A 6201   2.029   6.475   2.877
   49DOPE  H11B 6202   1.972   6.392   3.024
   49DOPE     P 6203   1.838   6.609   3.138
   49DOPE   O13 6204   1.703   6.552   3.121
   49DOPE   O14 6205   1.850   6.750   3.181
   49DOPE   O11 6206   1.925   6.517   3.232
   49DOPE   O12 6207   1.912   6.595   2.997
   49DOPE    C1 6208   2.067   6.537   3.242
   49DOPE    HA 6209   2.091   6.642   3.270
   49DOPE    HB 6210   2.116   6.517   3.145
   49DOPE    C2 6211   2.138   6.444   3.347
   49DOPE    HS 6212   2.232   6.404   3.302
   49DOPE   O21 6213   2.053   6.335   3.387
   49DOPE   C21 6214   2.023   6.249   3.290
   49DOPE   O22 6215   2.077   6.243   3.181
   49DOPE   C22 6216   1.905   6.163   3.335
   49DOPE   H2R 6217   1.944   6.083   3.401
   49DOPE   H2S 6218   1.864   6.116   3.243
   49DOPE    C3 6219   2.179   6.523   3.474
   49DOPE    HX 6220   2.263   6.590   3.446
   49DOPE    HY 6221   2.218   6.452   3.551
   49DOPE   O31 6222   2.071   6.605   3.523
   49DOPE   C31 6223   1.989   6.548   3.609
   49DOPE   O32 6224   2.008   6.443   3.669
   49DOPE   C32 6225   1.866   6.636   3.628
   49DOPE   H2X 6226   1.869   6.676   3.731
   49DOPE   H2Y 6227   1.870   6.720   3.556
   49DOPE   C23 6228   1.795   6.244   3.407
   49DOPE   H3R 6229   1.775   6.339   3.352
   49DOPE   H3S 6230   1.831   6.272   3.508
   49DOPE   C24 6231   1.663   6.166   3.419
   49DOPE   H4R 6232   1.686   6.068   3.466
   49DOPE   H4S 6233   1.627   6.148   3.315
   49DOPE   C25 6234   1.554   6.235   3.502
   49DOPE   H5R 6235   1.454   6.197   3.471
   49DOPE   H5S 6236   1.557   6.345   3.484
   49DOPE   C26 6237   1.568   6.206   3.652
   49DOPE   H6R 6238   1.675   6.222   3.679
   49DOPE   H6S 6239   1.545   6.099   3.672
   49DOPE   C27 6240   1.478   6.295   3.738
   49DOPE   H7R 6241   1.372   6.279   3.708
   49DOPE   H7S 6242   1.502   6.401   3.715
   49DOPE   C28 6243   1.490   6.273   3.891
   49DOPE   H8R 6244   1.445   6.175   3.917
   49DOPE   H8S 6245   1.429   6.351   3.943
   49DOPE   C29 6246   1.633   6.281   3.937
   49DOPE   H9R 6247   1.704   6.317   3.861
   49DOPE  C210 6248   1.682   6.254   4.059
   49DOPE  H10R 6249   1.790   6.267   4.073
   49DOPE  C211 6250   1.609   6.211   4.183
   49DOPE  H11R 6251   1.640   6.108   4.211
   49DOPE  H11S 6252   1.499   6.211   4.171
   49DOPE  C212 6253   1.650   6.308   4.296
   49DOPE  H12R 6254   1.599   6.405   4.281
   49DOPE  H12S 6255   1.759   6.327   4.289
   49DOPE  C213 6256   1.626   6.258   4.440
   49DOPE  H13R 6257   1.611   6.148   4.438
   49DOPE  H13S 6258   1.534   6.304   4.481
   49DOPE  C214 6259   1.747   6.290   4.529
   49DOPE  H14R 6260   1.767   6.399   4.528
   49DOPE  H14S 6261   1.836   6.240   4.484
   49DOPE  C215 6262   1.735   6.245   4.676
   49DOPE  H15R 6263   1.676   6.152   4.681
   49DOPE  H15S 6264   1.680   6.323   4.732
   49DOPE  C216 6265   1.872   6.218   4.743
   49DOPE  H16R 6266   1.906   6.118   4.709
   49DOPE  H16S 6267   1.856   6.214   4.853
   49DOPE  C217 6268   1.986   6.318   4.713
   49DOPE  H17R 6269   2.012   6.312   4.605
   49DOPE  H17S 6270   2.076   6.283   4.769
   49DOPE  C218 6271   1.958   6.463   4.750
   49DOPE  H18R 6272   2.049   6.526   4.734
   49DOPE  H18S 6273   1.929   6.470   4.857
   49DOPE  H18T 6274   1.876   6.505   4.689
   49DOPE   C33 6275   1.735   6.556   3.605
   49DOPE   H3X 6276   1.727   6.475   3.680
   49DOPE   H3Y 6277   1.739   6.509   3.504
   49DOPE   C34 6278   1.610   6.645   3.610
   49DOPE   H4X 6279   1.619   6.720   3.528
   49DOPE   H4Y 6280   1.520   6.583   3.588
   49DOPE   C35 6281   1.589   6.720   3.742
   49DOPE   H5X 6282   1.499   6.785   3.731
   49DOPE   H5Y 6283   1.676   6.785   3.763
   49DOPE   C36 6284   1.565   6.629   3.863
   49DOPE   H6X 6285   1.649   6.559   3.876
   49DOPE   H6Y 6286   1.473   6.569   3.844
   49DOPE   C37 6287   1.542   6.707   3.994
   49DOPE   H7X 6288   1.463   6.783   3.976
   49DOPE   H7Y 6289   1.504   6.636   4.070
   49DOPE   C38 6290   1.667   6.779   4.050
   49DOPE   H8X 6291   1.635   6.839   4.138
   49DOPE   H8Y 6292   1.702   6.853   3.975
   49DOPE   C39 6293   1.779   6.685   4.085
   49DOPE   H9X 6294   1.840   6.657   3.997
   49DOPE  C310 6295   1.813   6.630   4.204
   49DOPE  H10X 6296   1.900   6.564   4.204
   49DOPE  C311 6297   1.750   6.643   4.341
   49DOPE  H11X 6298   1.745   6.540   4.383
   49DOPE  H11Y 6299   1.819   6.698   4.409
   49DOPE  C312 6300   1.609   6.702   4.361
   49DOPE  H12X 6301   1.547   6.678   4.272
   49DOPE  H12Y 6302   1.616   6.813   4.368
   49DOPE  C313 6303   1.533   6.645   4.481
   49DOPE  H13X 6304   1.432   6.691   4.485
   49DOPE  H13Y 6305   1.519   6.536   4.463
   49DOPE  C314 6306   1.600   6.661   4.618
   49DOPE  H14X 6307   1.608   6.769   4.645
   49DOPE  H14Y 6308   1.703   6.620   4.613
   49DOPE  C315 6309   1.522   6.584   4.725
   49DOPE  H15X 6310   1.501   6.482   4.686
   49DOPE  H15Y 6311   1.424   6.633   4.743
   49DOPE  C316 6312   1.596   6.568   4.859
   49DOPE  H16X 6313   1.611   6.667   4.907
   49DOPE  H16Y 6314   1.697   6.524   4.838
   49DOPE  C317 6315   1.521   6.474   4.954
   49DOPE  H17X 6316   1.427   6.524   4.986
   49DOPE  H17Y 6317   1.492   6.383   4.897
   49DOPE  C318 6318   1.601   6.431   5.076
   49DOPE  H18X 6319   1.540   6.368   5.144
   49DOPE  H18Y 6320   1.691   6.373   5.045
   49DOPE  H18Z 6321   1.636   6.520   5.134
   50DOPE     N 6322   0.250   4.380   2.918
   50DOPE   HN1 6323   0.319   4.304   2.905
   50DOPE   HN2 6324   0.156   4.346   2.890
   50DOPE   HN3 6325   0.274   4.458   2.853
   50DOPE   C12 6326   0.254   4.430   3.060
   50DOPE  H12A 6327   0.318   4.360   3.117
   50DOPE  H12B 6328   0.151   4.428   3.100
   50DOPE   C11 6329   0.312   4.573   3.066
   50DOPE  H11A 6330   0.336   4.600   3.171
   50DOPE  H11B 6331   0.232   4.644   3.034
   50DOPE     P 6332   0.567   4.533   3.014
   50DOPE   O13 6333   0.666   4.642   3.016
   50DOPE   O14 6334   0.590   4.423   2.917
   50DOPE   O11 6335   0.548   4.473   3.157
   50DOPE   O12 6336   0.425   4.592   2.980
   50DOPE    C1 6337   0.634   4.371   3.208
   50DOPE    HA 6338   0.733   4.368   3.156
   50DOPE    HB 6339   0.587   4.272   3.194
   50DOPE    C2 6340   0.664   4.394   3.360
   50DOPE    HS 6341   0.720   4.306   3.398
   50DOPE   O21 6342   0.544   4.414   3.436
   50DOPE   C21 6343   0.468   4.309   3.452
   50DOPE   O22 6344   0.484   4.200   3.399
   50DOPE   C22 6345   0.363   4.341   3.557
   50DOPE   H2R 6346   0.298   4.251   3.568
   50DOPE   H2S 6347   0.300   4.425   3.519
   50DOPE    C3 6348   0.753   4.519   3.381
   50DOPE    HX 6349   0.700   4.609   3.343
   50DOPE    HY 6350   0.842   4.504   3.317
   50DOPE   O31 6351   0.794   4.528   3.519
   50DOPE   C31 6352   0.725   4.613   3.595
   50DOPE   O32 6353   0.646   4.696   3.556
   50DOPE   C32 6354   0.757   4.582   3.741
   50DOPE   H2X 6355   0.706   4.485   3.765
   50DOPE   H2Y 6356   0.866   4.566   3.751
   50DOPE   C23 6357   0.425   4.379   3.694
   50DOPE   H3R 6358   0.343   4.387   3.768
   50DOPE   H3S 6359   0.473   4.479   3.687
   50DOPE   C24 6360   0.528   4.276   3.744
   50DOPE   H4R 6361   0.624   4.289   3.690
   50DOPE   H4S 6362   0.491   4.174   3.721
   50DOPE   C25 6363   0.553   4.282   3.896
   50DOPE   H5R 6364   0.456   4.274   3.949
   50DOPE   H5S 6365   0.597   4.380   3.923
   50DOPE   C26 6366   0.647   4.170   3.943
   50DOPE   H6R 6367   0.741   4.176   3.884
   50DOPE   H6S 6368   0.600   4.071   3.920
   50DOPE   C27 6369   0.682   4.175   4.092
   50DOPE   H7R 6370   0.732   4.272   4.114
   50DOPE   H7S 6371   0.756   4.095   4.112
   50DOPE   C28 6372   0.561   4.157   4.186
   50DOPE   H8R 6373   0.506   4.066   4.154
   50DOPE   H8S 6374   0.491   4.242   4.172
   50DOPE   C29 6375   0.603   4.143   4.330
   50DOPE   H9R 6376   0.676   4.063   4.349
   50DOPE  C210 6377   0.563   4.218   4.434
   50DOPE  H10R 6378   0.604   4.198   4.534
   50DOPE  C211 6379   0.465   4.333   4.427
   50DOPE  H11R 6380   0.366   4.295   4.395
   50DOPE  H11S 6381   0.497   4.407   4.350
   50DOPE  C212 6382   0.449   4.405   4.562
   50DOPE  H12R 6383   0.544   4.453   4.593
   50DOPE  H12S 6384   0.423   4.330   4.640
   50DOPE  C213 6385   0.337   4.511   4.559
   50DOPE  H13R 6386   0.299   4.528   4.662
   50DOPE  H13S 6387   0.253   4.470   4.499
   50DOPE  C214 6388   0.383   4.644   4.498
   50DOPE  H14R 6389   0.296   4.698   4.455
   50DOPE  H14S 6390   0.453   4.623   4.414
   50DOPE  C215 6391   0.450   4.740   4.598
   50DOPE  H15R 6392   0.490   4.825   4.540
   50DOPE  H15S 6393   0.534   4.689   4.649
   50DOPE  C216 6394   0.353   4.795   4.703
   50DOPE  H16R 6395   0.320   4.714   4.771
   50DOPE  H16S 6396   0.263   4.836   4.652
   50DOPE  C217 6397   0.416   4.907   4.787
   50DOPE  H17R 6398   0.453   4.987   4.719
   50DOPE  H17S 6399   0.504   4.866   4.841
   50DOPE  C218 6400   0.319   4.967   4.888
   50DOPE  H18R 6401   0.280   4.888   4.955
   50DOPE  H18S 6402   0.232   5.014   4.836
   50DOPE  H18T 6403   0.368   5.045   4.950
   50DOPE   C33 6404   0.709   4.690   3.841
   50DOPE   H3X 6405   0.608   4.727   3.814
   50DOPE   H3Y 6406   0.779   4.776   3.834
   50DOPE   C34 6407   0.707   4.641   3.986
   50DOPE   H4X 6408   0.617   4.578   4.003
   50DOPE   H4Y 6409   0.796   4.578   4.005
   50DOPE   C35 6410   0.705   4.758   4.085
   50DOPE   H5X 6411   0.617   4.821   4.062
   50DOPE   H5Y 6412   0.797   4.818   4.070
   50DOPE   C36 6413   0.696   4.717   4.233
   50DOPE   H6X 6414   0.601   4.661   4.248
   50DOPE   H6Y 6415   0.690   4.809   4.295
   50DOPE   C37 6416   0.814   4.632   4.283
   50DOPE   H7X 6417   0.890   4.620   4.202
   50DOPE   H7Y 6418   0.864   4.685   4.367
   50DOPE   C38 6419   0.766   4.494   4.331
   50DOPE   H8X 6420   0.712   4.445   4.247
   50DOPE   H8Y 6421   0.690   4.510   4.410
   50DOPE   C39 6422   0.876   4.403   4.380
   50DOPE   H9X 6423   0.936   4.357   4.300
   50DOPE  C310 6424   0.906   4.373   4.508
   50DOPE  H10X 6425   0.990   4.304   4.526
   50DOPE  C311 6426   0.840   4.423   4.635
   50DOPE  H11X 6427   0.743   4.371   4.651
   50DOPE  H11Y 6428   0.903   4.395   4.721
   50DOPE  C312 6429   0.817   4.576   4.644
   50DOPE  H12X 6430   0.717   4.600   4.603
   50DOPE  H12Y 6431   0.891   4.629   4.580
   50DOPE  C313 6432   0.831   4.635   4.785
   50DOPE  H13X 6433   0.939   4.637   4.813
   50DOPE  H13Y 6434   0.797   4.741   4.782
   50DOPE  C314 6435   0.752   4.562   4.894
   50DOPE  H14X 6436   0.799   4.464   4.917
   50DOPE  H14Y 6437   0.650   4.543   4.855
   50DOPE  C315 6438   0.738   4.645   5.024
   50DOPE  H15X 6439   0.667   4.594   5.092
   50DOPE  H15Y 6440   0.693   4.742   4.996
   50DOPE  C316 6441   0.870   4.672   5.099
   50DOPE  H16X 6442   0.866   4.777   5.135
   50DOPE  H16Y 6443   0.957   4.665   5.031
   50DOPE  C317 6444   0.891   4.583   5.223
   50DOPE  H17X 6445   0.970   4.631   5.286
   50DOPE  H17Y 6446   0.798   4.581   5.283
   50DOPE  C318 6447   0.936   4.441   5.192
   50DOPE  H18X 6448   0.859   4.387   5.132
   50DOPE  H18Y 6449   1.031   4.442   5.134
   50DOPE  H18Z 6450   0.953   4.384   5.286
   51DOPE     N 6451   2.841   7.245   2.740
   51DOPE   HN1 6452   2.919   7.312   2.727
   51DOPE   HN2 6453   2.838   7.183   2.656
   51DOPE   HN3 6454   2.753   7.300   2.747
   51DOPE   C12 6455   2.869   7.168   2.866
   51DOPE  H12A 6456   2.779   7.108   2.892
   51DOPE  H12B 6457   2.886   7.243   2.946
   51DOPE   C11 6458   2.992   7.077   2.846
   51DOPE  H11A 6459   3.062   7.117   2.770
   51DOPE  H11B 6460   2.957   6.979   2.807
   51DOPE     P 6461   3.150   7.171   3.032
   51DOPE   O13 6462   3.083   7.224   3.151
   51DOPE   O14 6463   3.188   7.268   2.927
   51DOPE   O11 6464   3.280   7.089   3.071
   51DOPE   O12 6465   3.060   7.057   2.969
   51DOPE    C1 6466   3.270   6.960   3.133
   51DOPE    HA 6467   3.374   6.920   3.144
   51DOPE    HB 6468   3.214   6.888   3.071
   51DOPE    C2 6469   3.209   6.963   3.276
   51DOPE    HS 6470   3.098   6.970   3.263
   51DOPE   O21 6471   3.261   7.078   3.345
   51DOPE   C21 6472   3.174   7.137   3.426
   51DOPE   O22 6473   3.073   7.087   3.470
   51DOPE   C22 6474   3.222   7.280   3.453
   51DOPE   H2R 6475   3.205   7.337   3.359
   51DOPE   H2S 6476   3.331   7.278   3.474
   51DOPE    C3 6477   3.242   6.831   3.351
   51DOPE    HX 6478   3.351   6.828   3.372
   51DOPE    HY 6479   3.220   6.750   3.278
   51DOPE   O31 6480   3.159   6.809   3.466
   51DOPE   C31 6481   3.211   6.844   3.583
   51DOPE   O32 6482   3.325   6.886   3.601
   51DOPE   C32 6483   3.108   6.820   3.692
   51DOPE   H2X 6484   3.017   6.878   3.667
   51DOPE   H2Y 6485   3.081   6.712   3.691
   51DOPE   C23 6486   3.143   7.346   3.567
   51DOPE   H3R 6487   3.170   7.299   3.664
   51DOPE   H3S 6488   3.034   7.329   3.552
   51DOPE   C24 6489   3.164   7.498   3.573
   51DOPE   H4R 6490   3.103   7.539   3.656
   51DOPE   H4S 6491   3.125   7.542   3.479
   51DOPE   C25 6492   3.310   7.545   3.590
   51DOPE   H5R 6493   3.309   7.653   3.613
   51DOPE   H5S 6494   3.362   7.532   3.492
   51DOPE   C26 6495   3.390   7.470   3.698
   51DOPE   H6R 6496   3.494   7.511   3.702
   51DOPE   H6S 6497   3.399   7.364   3.666
   51DOPE   C27 6498   3.328   7.474   3.838
   51DOPE   H7R 6499   3.217   7.480   3.830
   51DOPE   H7S 6500   3.362   7.564   3.893
   51DOPE   C28 6501   3.359   7.345   3.917
   51DOPE   H8R 6502   3.318   7.260   3.858
   51DOPE   H8S 6503   3.302   7.345   4.012
   51DOPE   C29 6504   3.507   7.331   3.944
   51DOPE   H9R 6505   3.561   7.424   3.966
   51DOPE  C210 6506   3.574   7.214   3.943
   51DOPE  H10R 6507   3.681   7.213   3.966
   51DOPE  C211 6508   3.510   7.080   3.916
   51DOPE  H11R 6509   3.585   7.005   3.882
   51DOPE  H11S 6510   3.437   7.087   3.833
   51DOPE  C212 6511   3.437   7.026   4.040
   51DOPE  H12R 6512   3.379   6.937   4.006
   51DOPE  H12S 6513   3.364   7.101   4.078
   51DOPE  C213 6514   3.526   6.980   4.156
   51DOPE  H13R 6515   3.622   6.941   4.115
   51DOPE  H13S 6516   3.475   6.896   4.207
   51DOPE  C214 6517   3.554   7.087   4.264
   51DOPE  H14R 6518   3.597   7.177   4.217
   51DOPE  H14S 6519   3.631   7.046   4.333
   51DOPE  C215 6520   3.432   7.127   4.349
   51DOPE  H15R 6521   3.359   7.181   4.285
   51DOPE  H15S 6522   3.466   7.199   4.427
   51DOPE  C216 6523   3.358   7.011   4.421
   51DOPE  H16R 6524   3.304   6.951   4.345
   51DOPE  H16S 6525   3.282   7.055   4.488
   51DOPE  C217 6526   3.448   6.917   4.503
   51DOPE  H17R 6527   3.514   6.860   4.434
   51DOPE  H17S 6528   3.383   6.843   4.553
   51DOPE  C218 6529   3.536   6.987   4.607
   51DOPE  H18R 6530   3.591   6.912   4.667
   51DOPE  H18S 6531   3.474   7.048   4.676
   51DOPE  H18T 6532   3.609   7.054   4.558
   51DOPE   C33 6533   3.160   6.860   3.831
   51DOPE   H3X 6534   3.178   6.970   3.830
   51DOPE   H3Y 6535   3.257   6.811   3.852
   51DOPE   C34 6536   3.061   6.824   3.943
   51DOPE   H4X 6537   2.960   6.862   3.914
   51DOPE   H4Y 6538   3.054   6.713   3.948
   51DOPE   C35 6539   3.099   6.879   4.081
   51DOPE   H5X 6540   3.200   6.840   4.108
   51DOPE   H5Y 6541   3.028   6.839   4.157
   51DOPE   C36 6542   3.102   7.032   4.091
   51DOPE   H6X 6543   3.169   7.073   4.012
   51DOPE   H6Y 6544   3.144   7.062   4.189
   51DOPE   C37 6545   2.965   7.100   4.071
   51DOPE   H7X 6546   2.980   7.208   4.053
   51DOPE   H7Y 6547   2.919   7.059   3.978
   51DOPE   C38 6548   2.868   7.080   4.189
   51DOPE   H8X 6549   2.861   6.971   4.212
   51DOPE   H8Y 6550   2.767   7.111   4.156
   51DOPE   C39 6551   2.910   7.161   4.308
   51DOPE   H9X 6552   2.968   7.252   4.285
   51DOPE  C310 6553   2.882   7.133   4.436
   51DOPE  H10X 6554   2.918   7.200   4.515
   51DOPE  C311 6555   2.802   7.014   4.485
   51DOPE  H11X 6556   2.729   7.047   4.562
   51DOPE  H11Y 6557   2.744   6.967   4.404
   51DOPE  C312 6558   2.894   6.908   4.548
   51DOPE  H12X 6559   2.959   6.862   4.471
   51DOPE  H12Y 6560   2.829   6.827   4.589
   51DOPE  C313 6561   2.981   6.964   4.661
   51DOPE  H13X 6562   3.061   7.027   4.617
   51DOPE  H13Y 6563   2.919   7.029   4.726
   51DOPE  C314 6564   3.045   6.855   4.747
   51DOPE  H14X 6565   3.115   6.795   4.685
   51DOPE  H14Y 6566   2.964   6.787   4.781
   51DOPE  C315 6567   3.116   6.909   4.872
   51DOPE  H15X 6568   3.141   6.820   4.934
   51DOPE  H15Y 6569   3.046   6.971   4.932
   51DOPE  C316 6570   3.247   6.984   4.844
   51DOPE  H16X 6571   3.293   6.941   4.753
   51DOPE  H16Y 6572   3.317   6.966   4.929
   51DOPE  C317 6573   3.234   7.137   4.828
   51DOPE  H17X 6574   3.332   7.177   4.796
   51DOPE  H17Y 6575   3.161   7.160   4.747
   51DOPE  C318 6576   3.192   7.211   4.956
   51DOPE  H18X 6577   3.090   7.181   4.987
   51DOPE  H18Y 6578   3.262   7.188   5.039
   51DOPE  H18Z 6579   3.192   7.321   4.939
   52DOPE     N 6580   7.289   4.823   2.921
   52DOPE   HN1 6581   7.222   4.862   2.852
   52DOPE   HN2 6582   7.348   4.900   2.960
   52DOPE   HN3 6583   7.349   4.750   2.878
   52DOPE   C12 6584   7.215   4.757   3.033
   52DOPE  H12A 6585   7.163   4.668   2.990
   52DOPE  H12B 6586   7.139   4.828   3.072
   52DOPE   C11 6587   7.311   4.713   3.146
   52DOPE  H11A 6588   7.254   4.643   3.212
   52DOPE  H11B 6589   7.335   4.802   3.208
   52DOPE     P 6590   7.432   4.519   3.018
   52DOPE   O13 6591   7.562   4.451   3.029
   52DOPE   O14 6592   7.391   4.562   2.882
   52DOPE   O11 6593   7.316   4.436   3.083
   52DOPE   O12 6594   7.434   4.654   3.102
   52DOPE    C1 6595   7.337   4.333   3.181
   52DOPE    HA 6596   7.444   4.300   3.186
   52DOPE    HB 6597   7.278   4.244   3.152
   52DOPE    C2 6598   7.292   4.376   3.323
   52DOPE    HS 6599   7.188   4.413   3.314
   52DOPE   O21 6600   7.384   4.478   3.368
   52DOPE   C21 6601   7.330   4.568   3.447
   52DOPE   O22 6602   7.212   4.585   3.469
   52DOPE   C22 6603   7.442   4.651   3.508
   52DOPE   H2R 6604   7.503   4.695   3.426
   52DOPE   H2S 6605   7.506   4.579   3.565
   52DOPE    C3 6606   7.293   4.258   3.425
   52DOPE    HX 6607   7.389   4.205   3.410
   52DOPE    HY 6608   7.212   4.186   3.400
   52DOPE   O31 6609   7.291   4.303   3.562
   52DOPE   C31 6610   7.173   4.305   3.623
   52DOPE   O32 6611   7.069   4.261   3.579
   52DOPE   C32 6612   7.192   4.379   3.756
   52DOPE   H2X 6613   7.276   4.333   3.812
   52DOPE   H2Y 6614   7.220   4.483   3.729
   52DOPE   C23 6615   7.387   4.761   3.601
   52DOPE   H3R 6616   7.311   4.718   3.670
   52DOPE   H3S 6617   7.336   4.838   3.539
   52DOPE   C24 6618   7.496   4.827   3.686
   52DOPE   H4R 6619   7.450   4.906   3.748
   52DOPE   H4S 6620   7.568   4.877   3.617
   52DOPE   C25 6621   7.574   4.730   3.776
   52DOPE   H5R 6622   7.649   4.789   3.833
   52DOPE   H5S 6623   7.632   4.660   3.712
   52DOPE   C26 6624   7.489   4.649   3.875
   52DOPE   H6R 6625   7.556   4.577   3.926
   52DOPE   H6S 6626   7.412   4.589   3.821
   52DOPE   C27 6627   7.421   4.736   3.982
   52DOPE   H7R 6628   7.343   4.800   3.937
   52DOPE   H7S 6629   7.500   4.803   4.022
   52DOPE   C28 6630   7.359   4.651   4.096
   52DOPE   H8R 6631   7.420   4.559   4.107
   52DOPE   H8S 6632   7.257   4.619   4.066
   52DOPE   C29 6633   7.361   4.726   4.227
   52DOPE   H9R 6634   7.453   4.784   4.242
   52DOPE  C210 6635   7.269   4.727   4.325
   52DOPE  H10R 6636   7.291   4.786   4.414
   52DOPE  C211 6637   7.138   4.654   4.331
   52DOPE  H11R 6638   7.117   4.598   4.237
   52DOPE  H11S 6639   7.055   4.727   4.344
   52DOPE  C212 6640   7.131   4.553   4.448
   52DOPE  H12R 6641   7.201   4.469   4.431
   52DOPE  H12S 6642   7.028   4.511   4.446
   52DOPE  C213 6643   7.153   4.612   4.590
   52DOPE  H13R 6644   7.091   4.553   4.661
   52DOPE  H13S 6645   7.117   4.717   4.593
   52DOPE  C214 6646   7.298   4.602   4.639
   52DOPE  H14R 6647   7.364   4.666   4.576
   52DOPE  H14S 6648   7.333   4.498   4.627
   52DOPE  C215 6649   7.315   4.642   4.787
   52DOPE  H15R 6650   7.251   4.575   4.848
   52DOPE  H15S 6651   7.279   4.746   4.803
   52DOPE  C216 6652   7.461   4.630   4.835
   52DOPE  H16R 6653   7.504   4.536   4.794
   52DOPE  H16S 6654   7.461   4.622   4.946
   52DOPE  C217 6655   7.549   4.749   4.794
   52DOPE  H17R 6656   7.513   4.839   4.847
   52DOPE  H17S 6657   7.536   4.767   4.685
   52DOPE  C218 6658   7.697   4.727   4.823
   52DOPE  H18R 6659   7.715   4.706   4.930
   52DOPE  H18S 6660   7.737   4.641   4.764
   52DOPE  H18T 6661   7.756   4.818   4.796
   52DOPE   C33 6662   7.064   4.385   3.844
   52DOPE   H3X 6663   6.973   4.379   3.781
   52DOPE   H3Y 6664   7.062   4.483   3.896
   52DOPE   C34 6665   7.059   4.276   3.952
   52DOPE   H4X 6666   7.074   4.176   3.905
   52DOPE   H4Y 6667   7.142   4.292   4.025
   52DOPE   C35 6668   6.925   4.276   4.026
   52DOPE   H5X 6669   6.847   4.240   3.955
   52DOPE   H5Y 6670   6.899   4.380   4.054
   52DOPE   C36 6671   6.920   4.190   4.153
   52DOPE   H6X 6672   6.960   4.088   4.135
   52DOPE   H6Y 6673   6.812   4.179   4.178
   52DOPE   C37 6674   6.989   4.256   4.274
   52DOPE   H7X 6675   7.096   4.226   4.280
   52DOPE   H7Y 6676   6.989   4.366   4.255
   52DOPE   C38 6677   6.915   4.234   4.408
   52DOPE   H8X 6678   6.806   4.226   4.385
   52DOPE   H8Y 6679   6.924   4.329   4.465
   52DOPE   C39 6680   6.956   4.117   4.493
   52DOPE   H9X 6681   6.962   4.021   4.440
   52DOPE  C310 6682   6.986   4.121   4.625
   52DOPE  H10X 6683   7.013   4.028   4.675
   52DOPE  C311 6684   6.985   4.243   4.714
   52DOPE  H11X 6685   7.002   4.336   4.656
   52DOPE  H11Y 6686   6.886   4.253   4.763
   52DOPE  C312 6687   7.092   4.240   4.825
   52DOPE  H12X 6688   7.069   4.160   4.898
   52DOPE  H12Y 6689   7.087   4.337   4.879
   52DOPE  C313 6690   7.235   4.220   4.773
   52DOPE  H13X 6691   7.250   4.114   4.745
   52DOPE  H13Y 6692   7.250   4.281   4.681
   52DOPE  C314 6693   7.341   4.262   4.876
   52DOPE  H14X 6694   7.318   4.215   4.974
   52DOPE  H14Y 6695   7.334   4.372   4.890
   52DOPE  C315 6696   7.484   4.226   4.833
   52DOPE  H15X 6697   7.553   4.309   4.860
   52DOPE  H15Y 6698   7.487   4.216   4.723
   52DOPE  C316 6699   7.537   4.096   4.898
   52DOPE  H16X 6700   7.633   4.069   4.850
   52DOPE  H16Y 6701   7.465   4.014   4.876
   52DOPE  C317 6702   7.561   4.104   5.050
   52DOPE  H17X 6703   7.464   4.117   5.102
   52DOPE  H17Y 6704   7.603   4.007   5.083
   52DOPE  C318 6705   7.655   4.217   5.095
   52DOPE  H18X 6706   7.675   4.209   5.204
   52DOPE  H18Y 6707   7.753   4.212   5.042
   52DOPE  H18Z 6708   7.610   4.316   5.075
   53DOPE     N 6709   5.969   6.536   2.807
   53DOPE   HN1 6710   5.977   6.433   2.807
   53DOPE   HN2 6711   5.945   6.569   2.903
   53DOPE   HN3 6712   5.890   6.563   2.744
   53DOPE   C12 6713   6.098   6.603   2.767
   53DOPE  H12A 6714   6.073   6.689   2.702
   53DOPE  H12B 6715   6.157   6.529   2.709
   53DOPE   C11 6716   6.176   6.653   2.890
   53DOPE  H11A 6717   6.277   6.683   2.855
   53DOPE  H11B 6718   6.193   6.571   2.963
   53DOPE     P 6719   6.020   6.758   3.075
   53DOPE   O13 6720   5.927   6.645   3.048
   53DOPE   O14 6721   5.957   6.890   3.098
   53DOPE   O11 6722   6.121   6.720   3.189
   53DOPE   O12 6723   6.114   6.767   2.948
   53DOPE    C1 6724   6.144   6.804   3.303
   53DOPE    HA 6725   6.064   6.877   3.321
   53DOPE    HB 6726   6.239   6.861   3.289
   53DOPE    C2 6727   6.159   6.717   3.430
   53DOPE    HS 6728   6.222   6.629   3.404
   53DOPE   O21 6729   6.026   6.681   3.473
   53DOPE   C21 6730   6.005   6.554   3.495
   53DOPE   O22 6731   6.075   6.460   3.462
   53DOPE   C22 6732   5.881   6.543   3.583
   53DOPE   H2R 6733   5.847   6.437   3.580
   53DOPE   H2S 6734   5.801   6.608   3.541
   53DOPE    C3 6735   6.228   6.792   3.547
   53DOPE    HX 6736   6.176   6.889   3.560
   53DOPE    HY 6737   6.334   6.812   3.518
   53DOPE   O31 6738   6.223   6.713   3.668
   53DOPE   C31 6739   6.251   6.779   3.780
   53DOPE   O32 6740   6.289   6.894   3.787
   53DOPE   C32 6741   6.228   6.683   3.898
   53DOPE   H2X 6742   6.120   6.656   3.900
   53DOPE   H2Y 6743   6.287   6.592   3.876
   53DOPE   C23 6744   5.917   6.585   3.727
   53DOPE   H3R 6745   5.951   6.691   3.727
   53DOPE   H3S 6746   6.001   6.522   3.763
   53DOPE   C24 6747   5.801   6.572   3.826
   53DOPE   H4R 6748   5.768   6.466   3.828
   53DOPE   H4S 6749   5.716   6.634   3.791
   53DOPE   C25 6750   5.843   6.616   3.967
   53DOPE   H5R 6751   5.882   6.720   3.960
   53DOPE   H5S 6752   5.926   6.552   4.003
   53DOPE   C26 6753   5.728   6.614   4.068
   53DOPE   H6R 6754   5.646   6.676   4.026
   53DOPE   H6S 6755   5.760   6.662   4.163
   53DOPE   C27 6756   5.673   6.474   4.098
   53DOPE   H7R 6757   5.655   6.420   4.003
   53DOPE   H7S 6758   5.574   6.484   4.147
   53DOPE   C28 6759   5.765   6.388   4.188
   53DOPE   H8R 6760   5.868   6.388   4.145
   53DOPE   H8S 6761   5.728   6.283   4.184
   53DOPE   C29 6762   5.762   6.436   4.330
   53DOPE   H9R 6763   5.663   6.429   4.377
   53DOPE  C210 6764   5.862   6.487   4.403
   53DOPE  H10R 6765   5.840   6.516   4.507
   53DOPE  C211 6766   6.006   6.508   4.362
   53DOPE  H11R 6767   6.027   6.617   4.353
   53DOPE  H11S 6768   6.027   6.463   4.262
   53DOPE  C212 6769   6.101   6.446   4.465
   53DOPE  H12R 6770   6.204   6.445   4.424
   53DOPE  H12S 6771   6.072   6.340   4.481
   53DOPE  C213 6772   6.103   6.519   4.601
   53DOPE  H13R 6773   6.004   6.565   4.621
   53DOPE  H13S 6774   6.176   6.602   4.596
   53DOPE  C214 6775   6.135   6.425   4.717
   53DOPE  H14R 6776   6.234   6.377   4.699
   53DOPE  H14S 6777   6.058   6.345   4.720
   53DOPE  C215 6778   6.135   6.494   4.854
   53DOPE  H15R 6779   6.035   6.537   4.874
   53DOPE  H15S 6780   6.207   6.579   4.851
   53DOPE  C216 6781   6.173   6.400   4.968
   53DOPE  H16R 6782   6.257   6.334   4.937
   53DOPE  H16S 6783   6.086   6.335   4.990
   53DOPE  C217 6784   6.214   6.476   5.095
   53DOPE  H17R 6785   6.194   6.411   5.183
   53DOPE  H17S 6786   6.151   6.566   5.107
   53DOPE  C218 6787   6.363   6.514   5.098
   53DOPE  H18R 6788   6.426   6.423   5.086
   53DOPE  H18S 6789   6.389   6.563   5.194
   53DOPE  H18T 6790   6.386   6.584   5.015
   53DOPE   C33 6791   6.270   6.737   4.037
   53DOPE   H3X 6792   6.368   6.788   4.032
   53DOPE   H3Y 6793   6.282   6.650   4.104
   53DOPE   C34 6794   6.167   6.830   4.104
   53DOPE   H4X 6795   6.166   6.928   4.050
   53DOPE   H4Y 6796   6.065   6.787   4.098
   53DOPE   C35 6797   6.203   6.852   4.252
   53DOPE   H5X 6798   6.312   6.872   4.254
   53DOPE   H5Y 6799   6.186   6.759   4.309
   53DOPE   C36 6800   6.134   6.970   4.322
   53DOPE   H6X 6801   6.148   7.062   4.261
   53DOPE   H6Y 6802   6.186   6.987   4.419
   53DOPE   C37 6803   5.985   6.951   4.352
   53DOPE   H7X 6804   5.930   6.937   4.256
   53DOPE   H7Y 6805   5.972   6.860   4.413
   53DOPE   C38 6806   5.927   7.073   4.427
   53DOPE   H8X 6807   5.944   7.164   4.366
   53DOPE   H8Y 6808   5.988   7.088   4.519
   53DOPE   C39 6809   5.780   7.058   4.459
   53DOPE   H9X 6810   5.718   7.023   4.375
   53DOPE  C310 6811   5.722   7.081   4.578
   53DOPE  H10X 6812   5.614   7.063   4.589
   53DOPE  C311 6813   5.791   7.128   4.704
   53DOPE  H11X 6814   5.881   7.188   4.681
   53DOPE  H11Y 6815   5.723   7.196   4.760
   53DOPE  C312 6816   5.833   7.013   4.798
   53DOPE  H12X 6817   5.745   6.951   4.825
   53DOPE  H12Y 6818   5.872   7.059   4.892
   53DOPE  C313 6819   5.942   6.923   4.738
   53DOPE  H13X 6820   5.903   6.877   4.645
   53DOPE  H13Y 6821   6.030   6.985   4.710
   53DOPE  C314 6822   5.988   6.808   4.829
   53DOPE  H14X 6823   6.057   6.743   4.771
   53DOPE  H14Y 6824   5.898   6.747   4.856
   53DOPE  C315 6825   6.059   6.852   4.958
   53DOPE  H15X 6826   6.071   6.762   5.024
   53DOPE  H15Y 6827   5.994   6.924   5.012
   53DOPE  C316 6828   6.197   6.915   4.935
   53DOPE  H16X 6829   6.187   6.998   4.862
   53DOPE  H16Y 6830   6.265   6.839   4.891
   53DOPE  C317 6831   6.260   6.973   5.063
   53DOPE  H17X 6832   6.356   7.022   5.036
   53DOPE  H17Y 6833   6.193   7.052   5.103
   53DOPE  C318 6834   6.288   6.870   5.173
   53DOPE  H18X 6835   6.358   6.792   5.137
   53DOPE  H18Y 6836   6.333   6.919   5.262
   53DOPE  H18Z 6837   6.194   6.820   5.206
   54DOPE     N 6838   0.183   3.533   2.993
   54DOPE   HN1 6839   0.230   3.450   3.035
   54DOPE   HN2 6840   0.093   3.499   2.953
   54DOPE   HN3 6841   0.238   3.579   2.918
   54DOPE   C12 6842   0.151   3.629   3.103
   54DOPE  H12A 6843   0.237   3.699   3.114
   54DOPE  H12B 6844   0.138   3.571   3.197
   54DOPE   C11 6845   0.023   3.706   3.069
   54DOPE  H11A 6846   0.007   3.778   3.153
   54DOPE  H11B 6847  -0.063   3.636   3.068
   54DOPE     P 6848  -0.077   3.877   2.904
   54DOPE   O13 6849  -0.204   3.803   2.884
   54DOPE   O14 6850  -0.026   3.956   2.790
   54DOPE   O11 6851  -0.087   3.968   3.032
   54DOPE   O12 6852   0.037   3.773   2.943
   54DOPE    C1 6853   0.016   4.062   3.065
   54DOPE    HA 6854  -0.019   4.163   3.033
   54DOPE    HB 6855   0.113   4.043   3.013
   54DOPE    C2 6856   0.043   4.070   3.218
   54DOPE    HS 6857   0.078   4.173   3.238
   54DOPE   O21 6858   0.147   3.976   3.253
   54DOPE   C21 6859   0.183   3.983   3.381
   54DOPE   O22 6860   0.156   4.074   3.457
   54DOPE   C22 6861   0.258   3.855   3.419
   54DOPE   H2R 6862   0.249   3.782   3.336
   54DOPE   H2S 6863   0.208   3.812   3.508
   54DOPE    C3 6864  -0.088   4.046   3.299
   54DOPE    HX 6865  -0.170   4.097   3.244
   54DOPE    HY 6866  -0.079   4.094   3.400
   54DOPE   O31 6867  -0.114   3.905   3.314
   54DOPE   C31 6868  -0.236   3.876   3.353
   54DOPE   O32 6869  -0.321   3.956   3.386
   54DOPE   C32 6870  -0.254   3.724   3.348
   54DOPE   H2X 6871  -0.363   3.703   3.350
   54DOPE   H2Y 6872  -0.213   3.688   3.252
   54DOPE   C23 6873   0.407   3.879   3.451
   54DOPE   H3R 6874   0.454   3.938   3.369
   54DOPE   H3S 6875   0.459   3.781   3.454
   54DOPE   C24 6876   0.432   3.951   3.584
   54DOPE   H4R 6877   0.376   4.047   3.584
   54DOPE   H4S 6878   0.540   3.977   3.589
   54DOPE   C25 6879   0.397   3.871   3.710
   54DOPE   H5R 6880   0.480   3.881   3.783
   54DOPE   H5S 6881   0.389   3.763   3.684
   54DOPE   C26 6882   0.267   3.916   3.781
   54DOPE   H6R 6883   0.246   3.843   3.863
   54DOPE   H6S 6884   0.182   3.913   3.710
   54DOPE   C27 6885   0.275   4.055   3.845
   54DOPE   H7R 6886   0.285   4.131   3.764
   54DOPE   H7S 6887   0.366   4.059   3.909
   54DOPE   C28 6888   0.151   4.090   3.929
   54DOPE   H8R 6889   0.139   4.011   4.007
   54DOPE   H8S 6890   0.062   4.086   3.863
   54DOPE   C29 6891   0.165   4.227   3.991
   54DOPE   H9R 6892   0.216   4.300   3.927
   54DOPE  C210 6893   0.121   4.266   4.111
   54DOPE  H10R 6894   0.138   4.369   4.144
   54DOPE  C211 6895   0.047   4.182   4.212
   54DOPE  H11R 6896   0.021   4.081   4.172
   54DOPE  H11S 6897  -0.050   4.232   4.236
   54DOPE  C212 6898   0.124   4.163   4.343
   54DOPE  H12R 6899   0.158   4.262   4.381
   54DOPE  H12S 6900   0.214   4.100   4.325
   54DOPE  C213 6901   0.036   4.098   4.451
   54DOPE  H13R 6902  -0.013   4.008   4.407
   54DOPE  H13S 6903  -0.043   4.170   4.478
   54DOPE  C214 6904   0.109   4.055   4.579
   54DOPE  H14R 6905   0.169   3.964   4.560
   54DOPE  H14S 6906   0.032   4.029   4.654
   54DOPE  C215 6907   0.202   4.163   4.636
   54DOPE  H15R 6908   0.158   4.263   4.616
   54DOPE  H15S 6909   0.298   4.157   4.581
   54DOPE  C216 6910   0.226   4.153   4.787
   54DOPE  H16R 6911   0.133   4.180   4.839
   54DOPE  H16S 6912   0.303   4.228   4.814
   54DOPE  C217 6913   0.272   4.014   4.835
   54DOPE  H17R 6914   0.369   3.990   4.786
   54DOPE  H17S 6915   0.198   3.938   4.801
   54DOPE  C218 6916   0.287   4.003   4.987
   54DOPE  H18R 6917   0.357   4.080   5.025
   54DOPE  H18S 6918   0.326   3.903   5.015
   54DOPE  H18T 6919   0.189   4.017   5.037
   54DOPE   C33 6920  -0.186   3.651   3.466
   54DOPE   H3X 6921  -0.204   3.543   3.452
   54DOPE   H3Y 6922  -0.233   3.681   3.563
   54DOPE   C34 6923  -0.035   3.669   3.473
   54DOPE   H4X 6924   0.005   3.674   3.369
   54DOPE   H4Y 6925  -0.011   3.766   3.523
   54DOPE   C35 6926   0.033   3.552   3.545
   54DOPE   H5X 6927   0.144   3.564   3.539
   54DOPE   H5Y 6928   0.007   3.459   3.491
   54DOPE   C36 6929  -0.008   3.538   3.692
   54DOPE   H6X 6930   0.036   3.443   3.730
   54DOPE   H6Y 6931  -0.118   3.530   3.704
   54DOPE   C37 6932   0.047   3.651   3.780
   54DOPE   H7X 6933   0.142   3.685   3.732
   54DOPE   H7Y 6934  -0.022   3.737   3.782
   54DOPE   C38 6935   0.084   3.605   3.922
   54DOPE   H8X 6936   0.148   3.685   3.966
   54DOPE   H8Y 6937   0.150   3.516   3.913
   54DOPE   C39 6938  -0.032   3.574   4.013
   54DOPE   H9X 6939  -0.084   3.479   3.992
   54DOPE  C310 6940  -0.076   3.652   4.113
   54DOPE  H10X 6941  -0.162   3.618   4.174
   54DOPE  C311 6942  -0.017   3.785   4.153
   54DOPE  H11X 6943  -0.000   3.846   4.062
   54DOPE  H11Y 6944  -0.090   3.842   4.215
   54DOPE  C312 6945   0.117   3.778   4.230
   54DOPE  H12X 6946   0.158   3.881   4.237
   54DOPE  H12Y 6947   0.191   3.718   4.174
   54DOPE  C313 6948   0.105   3.722   4.372
   54DOPE  H13X 6949   0.033   3.784   4.430
   54DOPE  H13Y 6950   0.064   3.618   4.368
   54DOPE  C314 6951   0.240   3.722   4.445
   54DOPE  H14X 6952   0.284   3.824   4.438
   54DOPE  H14Y 6953   0.311   3.653   4.394
   54DOPE  C315 6954   0.228   3.683   4.593
   54DOPE  H15X 6955   0.197   3.576   4.601
   54DOPE  H15Y 6956   0.149   3.744   4.640
   54DOPE  C316 6957   0.359   3.704   4.671
   54DOPE  H16X 6958   0.390   3.809   4.657
   54DOPE  H16Y 6959   0.439   3.639   4.628
   54DOPE  C317 6960   0.344   3.675   4.821
   54DOPE  H17X 6961   0.427   3.725   4.874
   54DOPE  H17Y 6962   0.250   3.722   4.858
   54DOPE  C318 6963   0.344   3.527   4.856
   54DOPE  H18X 6964   0.438   3.479   4.820
   54DOPE  H18Y 6965   0.337   3.512   4.966
   54DOPE  H18Z 6966   0.258   3.475   4.808
   55DOPE     N 6967   0.385   5.644   3.275
   55DOPE   HN1 6968   0.361   5.543   3.277
   55DOPE   HN2 6969   0.466   5.658   3.339
   55DOPE   HN3 6970   0.303   5.698   3.311
   55DOPE   C12 6971   0.421   5.685   3.135
   55DOPE  H12A 6972   0.334   5.668   3.069
   55DOPE  H12B 6973   0.504   5.618   3.102
   55DOPE   C11 6974   0.464   5.833   3.129
   55DOPE  H11A 6975   0.521   5.860   3.220
   55DOPE  H11B 6976   0.373   5.897   3.130
   55DOPE     P 6977   0.696   5.844   3.014
   55DOPE   O13 6978   0.752   5.880   2.881
   55DOPE   O14 6979   0.729   5.710   3.066
   55DOPE   O11 6980   0.734   5.954   3.120
   55DOPE   O12 6981   0.538   5.861   3.009
   55DOPE    C1 6982   0.758   6.089   3.080
   55DOPE    HA 6983   0.698   6.119   2.992
   55DOPE    HB 6984   0.866   6.098   3.053
   55DOPE    C2 6985   0.729   6.191   3.194
   55DOPE    HS 6986   0.760   6.292   3.158
   55DOPE   O21 6987   0.802   6.154   3.312
   55DOPE   C21 6988   0.928   6.190   3.313
   55DOPE   O22 6989   0.978   6.278   3.243
   55DOPE   C22 6990   1.005   6.105   3.413
   55DOPE   H2R 6991   1.101   6.076   3.365
   55DOPE   H2S 6992   0.948   6.012   3.434
   55DOPE    C3 6993   0.576   6.206   3.227
   55DOPE    HX 6994   0.523   6.215   3.130
   55DOPE    HY 6995   0.561   6.302   3.281
   55DOPE   O31 6996   0.522   6.094   3.300
   55DOPE   C31 6997   0.534   6.103   3.432
   55DOPE   O32 6998   0.570   6.201   3.494
   55DOPE   C32 6999   0.488   5.971   3.493
   55DOPE   H2X 7000   0.381   5.958   3.466
   55DOPE   H2Y 7001   0.548   5.889   3.447
   55DOPE   C23 7002   1.033   6.181   3.544
   55DOPE   H3R 7003   0.937   6.198   3.597
   55DOPE   H3S 7004   1.080   6.279   3.523
   55DOPE   C24 7005   1.129   6.101   3.634
   55DOPE   H4R 7006   1.231   6.105   3.590
   55DOPE   H4S 7007   1.097   5.995   3.634
   55DOPE   C25 7008   1.132   6.151   3.778
   55DOPE   H5R 7009   1.157   6.260   3.782
   55DOPE   H5S 7010   1.214   6.097   3.830
   55DOPE   C26 7011   1.001   6.126   3.854
   55DOPE   H6R 7012   0.966   6.024   3.828
   55DOPE   H6S 7013   0.922   6.197   3.820
   55DOPE   C27 7014   1.019   6.133   4.006
   55DOPE   H7R 7015   1.124   6.105   4.029
   55DOPE   H7S 7016   0.955   6.058   4.056
   55DOPE   C28 7017   0.991   6.272   4.064
   55DOPE   H8R 7018   1.041   6.347   3.998
   55DOPE   H8S 7019   1.042   6.276   4.163
   55DOPE   C29 7020   0.844   6.304   4.075
   55DOPE   H9R 7021   0.789   6.303   3.980
   55DOPE  C210 7022   0.777   6.333   4.189
   55DOPE  H10R 7023   0.669   6.353   4.182
   55DOPE  C211 7024   0.834   6.338   4.328
   55DOPE  H11R 7025   0.783   6.418   4.386
   55DOPE  H11S 7026   0.942   6.366   4.327
   55DOPE  C212 7027   0.819   6.205   4.403
   55DOPE  H12R 7028   0.871   6.124   4.347
   55DOPE  H12S 7029   0.712   6.178   4.410
   55DOPE  C213 7030   0.877   6.212   4.546
   55DOPE  H13R 7031   0.828   6.297   4.598
   55DOPE  H13S 7032   0.986   6.234   4.540
   55DOPE  C214 7033   0.855   6.085   4.629
   55DOPE  H14R 7034   0.749   6.053   4.621
   55DOPE  H14S 7035   0.875   6.110   4.736
   55DOPE  C215 7036   0.948   5.969   4.591
   55DOPE  H15R 7037   1.053   6.005   4.597
   55DOPE  H15S 7038   0.929   5.939   4.486
   55DOPE  C216 7039   0.934   5.848   4.684
   55DOPE  H16R 7040   0.833   5.803   4.670
   55DOPE  H16S 7041   0.942   5.883   4.789
   55DOPE  C217 7042   1.042   5.742   4.660
   55DOPE  H17R 7043   1.141   5.790   4.672
   55DOPE  H17S 7044   1.035   5.706   4.555
   55DOPE  C218 7045   1.033   5.622   4.755
   55DOPE  H18R 7046   1.113   5.549   4.733
   55DOPE  H18S 7047   0.935   5.571   4.744
   55DOPE  H18T 7048   1.043   5.656   4.860
   55DOPE   C33 7049   0.504   5.968   3.646
   55DOPE   H3X 7050   0.448   5.880   3.685
   55DOPE   H3Y 7051   0.458   6.058   3.693
   55DOPE   C34 7052   0.650   5.955   3.690
   55DOPE   H4X 7053   0.700   5.877   3.628
   55DOPE   H4Y 7054   0.703   6.051   3.672
   55DOPE   C35 7055   0.667   5.916   3.838
   55DOPE   H5X 7056   0.775   5.913   3.862
   55DOPE   H5Y 7057   0.627   5.813   3.854
   55DOPE   C36 7058   0.598   6.012   3.936
   55DOPE   H6X 7059   0.488   5.999   3.931
   55DOPE   H6Y 7060   0.622   6.116   3.906
   55DOPE   C37 7061   0.646   5.992   4.081
   55DOPE   H7X 7062   0.756   6.007   4.083
   55DOPE   H7Y 7063   0.601   6.070   4.145
   55DOPE   C38 7064   0.613   5.853   4.140
   55DOPE   H8X 7065   0.651   5.774   4.071
   55DOPE   H8Y 7066   0.503   5.842   4.144
   55DOPE   C39 7067   0.677   5.835   4.275
   55DOPE   H9X 7068   0.772   5.780   4.276
   55DOPE  C310 7069   0.629   5.882   4.392
   55DOPE  H10X 7070   0.685   5.863   4.484
   55DOPE  C311 7071   0.502   5.963   4.410
   55DOPE  H11X 7072   0.526   6.059   4.461
   55DOPE  H11Y 7073   0.457   5.990   4.312
   55DOPE  C312 7074   0.395   5.888   4.490
   55DOPE  H12X 7075   0.368   5.794   4.437
   55DOPE  H12Y 7076   0.303   5.951   4.493
   55DOPE  C313 7077   0.434   5.855   4.635
   55DOPE  H13X 7078   0.354   5.792   4.680
   55DOPE  H13Y 7079   0.527   5.793   4.635
   55DOPE  C314 7080   0.453   5.978   4.724
   55DOPE  H14X 7081   0.358   6.035   4.725
   55DOPE  H14Y 7082   0.531   6.045   4.682
   55DOPE  C315 7083   0.490   5.943   4.869
   55DOPE  H15X 7084   0.420   5.864   4.905
   55DOPE  H15Y 7085   0.477   6.032   4.933
   55DOPE  C316 7086   0.635   5.892   4.885
   55DOPE  H16X 7087   0.705   5.972   4.853
   55DOPE  H16Y 7088   0.651   5.804   4.819
   55DOPE  C317 7089   0.668   5.851   5.029
   55DOPE  H17X 7090   0.650   5.938   5.096
   55DOPE  H17Y 7091   0.599   5.770   5.060
   55DOPE  C318 7092   0.812   5.802   5.047
   55DOPE  H18X 7093   0.883   5.883   5.021
   55DOPE  H18Y 7094   0.830   5.771   5.152
   55DOPE  H18Z 7095   0.832   5.715   4.981
   56DOPE     N 7096   1.058   6.290   2.811
   56DOPE   HN1 7097   0.981   6.332   2.755
   56DOPE   HN2 7098   1.148   6.328   2.774
   56DOPE   HN3 7099   1.053   6.187   2.800
   56DOPE   C12 7100   1.042   6.327   2.955
   56DOPE  H12A 7101   1.126   6.283   3.013
   56DOPE  H12B 7102   0.947   6.281   2.991
   56DOPE   C11 7103   1.037   6.479   2.975
   56DOPE  H11A 7104   1.015   6.495   3.083
   56DOPE  H11B 7105   0.953   6.523   2.917
   56DOPE     P 7106   1.198   6.678   3.001
   56DOPE   O13 7107   1.308   6.738   2.921
   56DOPE   O14 7108   1.225   6.653   3.144
   56DOPE   O11 7109   1.063   6.759   2.984
   56DOPE   O12 7110   1.161   6.538   2.936
   56DOPE    C1 7111   1.030   6.818   2.858
   56DOPE    HA 7112   1.048   6.749   2.773
   56DOPE    HB 7113   1.095   6.907   2.843
   56DOPE    C2 7114   0.882   6.869   2.848
   56DOPE    HS 7115   0.881   6.960   2.783
   56DOPE   O21 7116   0.829   6.900   2.978
   56DOPE   C21 7117   0.878   7.006   3.038
   56DOPE   O22 7118   0.949   7.092   2.988
   56DOPE   C22 7119   0.819   7.005   3.180
   56DOPE   H2R 7120   0.854   6.910   3.225
   56DOPE   H2S 7121   0.708   7.001   3.170
   56DOPE    C3 7122   0.785   6.767   2.781
   56DOPE    HX 7123   0.834   6.730   2.688
   56DOPE    HY 7124   0.695   6.822   2.749
   56DOPE   O31 7125   0.754   6.653   2.866
   56DOPE   C31 7126   0.642   6.664   2.936
   56DOPE   O32 7127   0.558   6.752   2.924
   56DOPE   C32 7128   0.628   6.545   3.032
   56DOPE   H2X 7129   0.526   6.505   3.015
   56DOPE   H2Y 7130   0.702   6.467   3.006
   56DOPE   C23 7131   0.859   7.124   3.269
   56DOPE   H3R 7132   0.818   7.218   3.227
   56DOPE   H3S 7133   0.970   7.135   3.271
   56DOPE   C24 7134   0.812   7.109   3.415
   56DOPE   H4R 7135   0.702   7.092   3.413
   56DOPE   H4S 7136   0.833   7.203   3.470
   56DOPE   C25 7137   0.878   6.995   3.494
   56DOPE   H5R 7138   0.973   7.028   3.540
   56DOPE   H5S 7139   0.905   6.913   3.424
   56DOPE   C26 7140   0.785   6.936   3.601
   56DOPE   H6R 7141   0.819   6.833   3.624
   56DOPE   H6S 7142   0.681   6.929   3.561
   56DOPE   C27 7143   0.785   7.016   3.733
   56DOPE   H7R 7144   0.770   7.124   3.710
   56DOPE   H7S 7145   0.886   7.005   3.778
   56DOPE   C28 7146   0.678   6.971   3.834
   56DOPE   H8R 7147   0.578   6.996   3.793
   56DOPE   H8S 7148   0.690   7.032   3.926
   56DOPE   C29 7149   0.684   6.823   3.863
   56DOPE   H9R 7150   0.649   6.759   3.781
   56DOPE  C210 7151   0.729   6.763   3.975
   56DOPE  H10R 7152   0.730   6.653   3.978
   56DOPE  C211 7153   0.784   6.827   4.100
   56DOPE  H11R 7154   0.751   6.933   4.111
   56DOPE  H11S 7155   0.895   6.829   4.094
   56DOPE  C212 7156   0.744   6.749   4.226
   56DOPE  H12R 7157   0.764   6.641   4.209
   56DOPE  H12S 7158   0.635   6.760   4.246
   56DOPE  C213 7159   0.825   6.789   4.351
   56DOPE  H13R 7160   0.932   6.793   4.323
   56DOPE  H13S 7161   0.812   6.712   4.429
   56DOPE  C214 7162   0.785   6.925   4.410
   56DOPE  H14R 7163   0.682   6.918   4.451
   56DOPE  H14S 7164   0.786   7.002   4.330
   56DOPE  C215 7165   0.880   6.970   4.523
   56DOPE  H15R 7166   0.985   6.958   4.489
   56DOPE  H15S 7167   0.866   6.905   4.612
   56DOPE  C216 7168   0.859   7.118   4.562
   56DOPE  H16R 7169   0.875   7.179   4.471
   56DOPE  H16S 7170   0.935   7.147   4.637
   56DOPE  C217 7171   0.719   7.151   4.617
   56DOPE  H17R 7172   0.642   7.123   4.542
   56DOPE  H17S 7173   0.713   7.261   4.631
   56DOPE  C218 7174   0.687   7.083   4.751
   56DOPE  H18R 7175   0.685   6.973   4.739
   56DOPE  H18S 7176   0.588   7.117   4.788
   56DOPE  H18T 7177   0.764   7.110   4.826
   56DOPE   C33 7178   0.642   6.589   3.179
   56DOPE   H3X 7179   0.595   6.512   3.245
   56DOPE   H3Y 7180   0.587   6.684   3.197
   56DOPE   C34 7181   0.788   6.604   3.222
   56DOPE   H4X 7182   0.840   6.506   3.218
   56DOPE   H4Y 7183   0.839   6.672   3.151
   56DOPE   C35 7184   0.805   6.664   3.363
   56DOPE   H5X 7185   0.736   6.751   3.372
   56DOPE   H5Y 7186   0.908   6.702   3.372
   56DOPE   C36 7187   0.778   6.566   3.479
   56DOPE   H6X 7188   0.714   6.483   3.443
   56DOPE   H6Y 7189   0.722   6.618   3.559
   56DOPE   C37 7190   0.906   6.508   3.542
   56DOPE   H7X 7191   0.876   6.424   3.609
   56DOPE   H7Y 7192   0.969   6.466   3.460
   56DOPE   C38 7193   0.988   6.610   3.624
   56DOPE   H8X 7194   0.921   6.651   3.703
   56DOPE   H8Y 7195   1.017   6.695   3.559
   56DOPE   C39 7196   1.112   6.549   3.684
   56DOPE   H9X 7197   1.174   6.492   3.613
   56DOPE  C310 7198   1.153   6.560   3.812
   56DOPE  H10X 7199   1.246   6.510   3.842
   56DOPE  C311 7200   1.081   6.635   3.921
   56DOPE  H11X 7201   1.049   6.735   3.884
   56DOPE  H11Y 7202   0.989   6.582   3.952
   56DOPE  C312 7203   1.168   6.658   4.047
   56DOPE  H12X 7204   1.116   6.730   4.113
   56DOPE  H12Y 7205   1.265   6.704   4.017
   56DOPE  C313 7206   1.193   6.530   4.128
   56DOPE  H13X 7207   1.094   6.495   4.163
   56DOPE  H13Y 7208   1.236   6.451   4.063
   56DOPE  C314 7209   1.284   6.549   4.250
   56DOPE  H14X 7210   1.312   6.656   4.260
   56DOPE  H14Y 7211   1.378   6.492   4.233
   56DOPE  C315 7212   1.220   6.501   4.381
   56DOPE  H15X 7213   1.299   6.493   4.459
   56DOPE  H15Y 7214   1.176   6.399   4.367
   56DOPE  C316 7215   1.111   6.598   4.430
   56DOPE  H16X 7216   1.035   6.608   4.350
   56DOPE  H16Y 7217   1.157   6.698   4.445
   56DOPE  C317 7218   1.040   6.557   4.560
   56DOPE  H17X 7219   0.971   6.638   4.589
   56DOPE  H17Y 7220   0.978   6.467   4.539
   56DOPE  C318 7221   1.133   6.525   4.677
   56DOPE  H18X 7222   1.075   6.503   4.769
   56DOPE  H18Y 7223   1.197   6.437   4.654
   56DOPE  H18Z 7224   1.200   6.612   4.697
   57DOPE     N 7225   7.592   2.159   2.948
   57DOPE   HN1 7226   7.652   2.109   2.879
   57DOPE   HN2 7227   7.650   2.191   3.027
   57DOPE   HN3 7228   7.518   2.094   2.982
   57DOPE   C12 7229   7.531   2.284   2.893
   57DOPE  H12A 7230   7.430   2.261   2.853
   57DOPE  H12B 7231   7.596   2.321   2.810
   57DOPE   C11 7232   7.526   2.388   3.006
   57DOPE  H11A 7233   7.457   2.353   3.085
   57DOPE  H11B 7234   7.483   2.483   2.968
   57DOPE     P 7235   7.752   2.518   3.006
   57DOPE   O13 7236   7.703   2.651   3.046
   57DOPE   O14 7237   7.769   2.498   2.860
   57DOPE   O11 7238   7.890   2.487   3.076
   57DOPE   O12 7239   7.657   2.405   3.063
   57DOPE    C1 7240   7.979   2.597   3.097
   57DOPE    HA 7241   7.931   2.670   3.166
   57DOPE    HB 7242   8.001   2.648   3.001
   57DOPE    C2 7243   8.117   2.558   3.159
   57DOPE    HS 7244   8.188   2.544   3.075
   57DOPE   O21 7245   8.104   2.437   3.235
   57DOPE   C21 7246   8.115   2.326   3.164
   57DOPE   O22 7247   8.155   2.317   3.049
   57DOPE   C22 7248   8.078   2.206   3.251
   57DOPE   H2R 7249   8.106   2.230   3.356
   57DOPE   H2S 7250   8.139   2.119   3.217
   57DOPE    C3 7251   8.177   2.672   3.247
   57DOPE    HX 7252   8.221   2.745   3.176
   57DOPE    HY 7253   8.260   2.627   3.307
   57DOPE   O31 7254   8.082   2.734   3.337
   57DOPE   C31 7255   8.120   2.854   3.382
   57DOPE   O32 7256   8.221   2.912   3.344
   57DOPE   C32 7257   8.013   2.915   3.473
   57DOPE   H2X 7258   8.035   3.024   3.482
   57DOPE   H2Y 7259   7.917   2.906   3.418
   57DOPE   C23 7260   7.927   2.171   3.241
   57DOPE   H3R 7261   7.907   2.131   3.139
   57DOPE   H3S 7262   7.865   2.263   3.255
   57DOPE   C24 7263   7.885   2.067   3.346
   57DOPE   H4R 7264   7.960   1.986   3.348
   57DOPE   H4S 7265   7.787   2.022   3.317
   57DOPE   C25 7266   7.870   2.127   3.487
   57DOPE   H5R 7267   7.777   2.187   3.492
   57DOPE   H5S 7268   7.955   2.196   3.506
   57DOPE   C26 7269   7.872   2.022   3.598
   57DOPE   H6R 7270   7.963   1.960   3.583
   57DOPE   H6S 7271   7.784   1.955   3.589
   57DOPE   C27 7272   7.881   2.082   3.739
   57DOPE   H7R 7273   7.959   2.161   3.738
   57DOPE   H7S 7274   7.917   2.004   3.810
   57DOPE   C28 7275   7.749   2.142   3.790
   57DOPE   H8R 7276   7.698   2.198   3.708
   57DOPE   H8S 7277   7.772   2.217   3.869
   57DOPE   C29 7278   7.659   2.035   3.846
   57DOPE   H9R 7279   7.592   1.987   3.774
   57DOPE  C210 7280   7.659   1.994   3.975
   57DOPE  H10R 7281   7.588   1.915   4.004
   57DOPE  C211 7282   7.744   2.045   4.088
   57DOPE  H11R 7283   7.822   2.116   4.053
   57DOPE  H11S 7284   7.798   1.960   4.137
   57DOPE  C212 7285   7.659   2.116   4.195
   57DOPE  H12R 7286   7.599   2.195   4.146
   57DOPE  H12S 7287   7.728   2.167   4.266
   57DOPE  C213 7288   7.566   2.023   4.275
   57DOPE  H13R 7289   7.550   1.928   4.220
   57DOPE  H13S 7290   7.468   2.073   4.284
   57DOPE  C214 7291   7.617   1.991   4.416
   57DOPE  H14R 7292   7.718   1.945   4.412
   57DOPE  H14S 7293   7.548   1.915   4.460
   57DOPE  C215 7294   7.617   2.113   4.509
   57DOPE  H15R 7295   7.531   2.177   4.481
   57DOPE  H15S 7296   7.710   2.171   4.492
   57DOPE  C216 7297   7.606   2.078   4.658
   57DOPE  H16R 7298   7.692   2.014   4.685
   57DOPE  H16S 7299   7.514   2.018   4.675
   57DOPE  C217 7300   7.602   2.201   4.749
   57DOPE  H17R 7301   7.695   2.260   4.733
   57DOPE  H17S 7302   7.603   2.167   4.854
   57DOPE  C218 7303   7.480   2.292   4.728
   57DOPE  H18R 7304   7.479   2.373   4.804
   57DOPE  H18S 7305   7.386   2.234   4.737
   57DOPE  H18T 7306   7.483   2.340   4.628
   57DOPE   C33 7307   7.992   2.854   3.615
   57DOPE   H3X 7308   8.041   2.918   3.691
   57DOPE   H3Y 7309   8.037   2.753   3.621
   57DOPE   C34 7310   7.841   2.844   3.645
   57DOPE   H4X 7311   7.795   2.941   3.616
   57DOPE   H4Y 7312   7.796   2.768   3.577
   57DOPE   C35 7313   7.796   2.815   3.789
   57DOPE   H5X 7314   7.846   2.887   3.857
   57DOPE   H5Y 7315   7.826   2.713   3.819
   57DOPE   C36 7316   7.642   2.830   3.801
   57DOPE   H6X 7317   7.593   2.732   3.785
   57DOPE   H6Y 7318   7.607   2.897   3.719
   57DOPE   C37 7319   7.595   2.893   3.933
   57DOPE   H7X 7320   7.664   2.976   3.959
   57DOPE   H7Y 7321   7.494   2.937   3.920
   57DOPE   C38 7322   7.587   2.790   4.047
   57DOPE   H8X 7323   7.675   2.723   4.034
   57DOPE   H8Y 7324   7.497   2.726   4.034
   57DOPE   C39 7325   7.589   2.851   4.185
   57DOPE   H9X 7326   7.492   2.887   4.223
   57DOPE  C310 7327   7.700   2.865   4.260
   57DOPE  H10X 7328   7.692   2.910   4.361
   57DOPE  C311 7329   7.839   2.823   4.218
   57DOPE  H11X 7330   7.855   2.716   4.242
   57DOPE  H11Y 7331   7.852   2.834   4.109
   57DOPE  C312 7332   7.948   2.906   4.287
   57DOPE  H12X 7333   7.950   2.883   4.396
   57DOPE  H12Y 7334   7.921   3.013   4.276
   57DOPE  C313 7335   8.088   2.888   4.227
   57DOPE  H13X 7336   8.085   2.922   4.121
   57DOPE  H13Y 7337   8.159   2.954   4.281
   57DOPE  C314 7338   8.144   2.744   4.230
   57DOPE  H14X 7339   8.245   2.745   4.183
   57DOPE  H14Y 7340   8.080   2.678   4.167
   57DOPE  C315 7341   8.155   2.684   4.371
   57DOPE  H15X 7342   8.053   2.666   4.410
   57DOPE  H15Y 7343   8.205   2.758   4.437
   57DOPE  C316 7344   8.235   2.553   4.372
   57DOPE  H16X 7345   8.336   2.573   4.331
   57DOPE  H16Y 7346   8.186   2.478   4.306
   57DOPE  C317 7347   8.251   2.493   4.513
   57DOPE  H17X 7348   8.331   2.416   4.510
   57DOPE  H17Y 7349   8.284   2.573   4.583
   57DOPE  C318 7350   8.124   2.427   4.568
   57DOPE  H18X 7351   8.140   2.389   4.671
   57DOPE  H18Y 7352   8.040   2.499   4.569
   57DOPE  H18Z 7353   8.094   2.341   4.503
   58DOPE     N 7354   7.507   5.792   2.774
   58DOPE   HN1 7355   7.418   5.761   2.818
   58DOPE   HN2 7356   7.501   5.771   2.672
   58DOPE   HN3 7357   7.586   5.737   2.813
   58DOPE   C12 7358   7.525   5.939   2.800
   58DOPE  H12A 7359   7.455   5.994   2.733
   58DOPE  H12B 7360   7.629   5.968   2.777
   58DOPE   C11 7361   7.490   5.969   2.946
   58DOPE  H11A 7362   7.496   6.079   2.964
   58DOPE  H11B 7363   7.565   5.921   3.013
   58DOPE     P 7364   7.298   5.911   3.115
   58DOPE   O13 7365   7.182   5.820   3.099
   58DOPE   O14 7366   7.273   6.049   3.161
   58DOPE   O11 7367   7.414   5.840   3.197
   58DOPE   O12 7368   7.359   5.922   2.971
   58DOPE    C1 7369   7.438   5.700   3.175
   58DOPE    HA 7370   7.440   5.676   3.067
   58DOPE    HB 7371   7.356   5.641   3.221
   58DOPE    C2 7372   7.574   5.649   3.233
   58DOPE    HS 7373   7.586   5.543   3.203
   58DOPE   O21 7374   7.576   5.663   3.377
   58DOPE   C21 7375   7.513   5.565   3.440
   58DOPE   O22 7376   7.457   5.471   3.387
   58DOPE   C22 7377   7.527   5.580   3.591
   58DOPE   H2R 7378   7.618   5.639   3.614
   58DOPE   H2S 7379   7.541   5.478   3.631
   58DOPE    C3 7380   7.698   5.722   3.173
   58DOPE    HX 7381   7.691   5.715   3.063
   58DOPE    HY 7382   7.788   5.665   3.203
   58DOPE   O31 7383   7.703   5.862   3.211
   58DOPE   C31 7384   7.784   5.893   3.311
   58DOPE   O32 7385   7.876   5.823   3.352
   58DOPE   C32 7386   7.755   6.035   3.359
   58DOPE   H2X 7387   7.851   6.092   3.354
   58DOPE   H2Y 7388   7.683   6.082   3.289
   58DOPE   C23 7389   7.402   5.643   3.656
   58DOPE   H3R 7390   7.389   5.599   3.757
   58DOPE   H3S 7391   7.310   5.621   3.598
   58DOPE   C24 7392   7.416   5.795   3.674
   58DOPE   H4R 7393   7.433   5.843   3.575
   58DOPE   H4S 7394   7.506   5.814   3.736
   58DOPE   C25 7395   7.295   5.861   3.741
   58DOPE   H5R 7396   7.255   5.793   3.820
   58DOPE   H5S 7397   7.215   5.876   3.665
   58DOPE   C26 7398   7.333   5.994   3.807
   58DOPE   H6R 7399   7.398   6.051   3.737
   58DOPE   H6S 7400   7.392   5.971   3.898
   58DOPE   C27 7401   7.213   6.081   3.846
   58DOPE   H7R 7402   7.137   6.017   3.896
   58DOPE   H7S 7403   7.166   6.122   3.754
   58DOPE   C28 7404   7.248   6.196   3.943
   58DOPE   H8R 7405   7.277   6.149   4.040
   58DOPE   H8S 7406   7.157   6.256   3.962
   58DOPE   C29 7407   7.361   6.285   3.895
   58DOPE   H9R 7408   7.400   6.260   3.795
   58DOPE  C210 7409   7.414   6.388   3.962
   58DOPE  H10R 7410   7.498   6.443   3.916
   58DOPE  C211 7411   7.374   6.439   4.098
   58DOPE  H11R 7412   7.270   6.408   4.124
   58DOPE  H11S 7413   7.372   6.550   4.096
   58DOPE  C212 7414   7.468   6.397   4.213
   58DOPE  H12R 7415   7.446   6.460   4.302
   58DOPE  H12S 7416   7.574   6.418   4.184
   58DOPE  C213 7417   7.456   6.250   4.256
   58DOPE  H13R 7418   7.535   6.226   4.330
   58DOPE  H13S 7419   7.472   6.185   4.168
   58DOPE  C214 7420   7.320   6.216   4.319
   58DOPE  H14R 7421   7.239   6.240   4.247
   58DOPE  H14S 7422   7.304   6.280   4.409
   58DOPE  C215 7423   7.306   6.068   4.358
   58DOPE  H15R 7424   7.371   6.046   4.445
   58DOPE  H15S 7425   7.341   6.006   4.273
   58DOPE  C216 7426   7.161   6.028   4.388
   58DOPE  H16R 7427   7.158   5.919   4.414
   58DOPE  H16S 7428   7.100   6.041   4.296
   58DOPE  C217 7429   7.094   6.106   4.503
   58DOPE  H17R 7430   6.989   6.070   4.510
   58DOPE  H17S 7431   7.090   6.214   4.477
   58DOPE  C218 7432   7.161   6.088   4.639
   58DOPE  H18R 7433   7.164   5.981   4.667
   58DOPE  H18S 7434   7.104   6.143   4.717
   58DOPE  H18T 7435   7.265   6.128   4.638
   58DOPE   C33 7436   7.698   6.042   3.502
   58DOPE   H3X 7437   7.608   5.976   3.510
   58DOPE   H3Y 7438   7.663   6.145   3.521
   58DOPE   C34 7439   7.800   6.006   3.612
   58DOPE   H4X 7440   7.825   5.898   3.603
   58DOPE   H4Y 7441   7.893   6.064   3.596
   58DOPE   C35 7442   7.748   6.034   3.754
   58DOPE   H5X 7443   7.647   5.989   3.764
   58DOPE   H5Y 7444   7.738   6.144   3.768
   58DOPE   C36 7445   7.841   5.976   3.862
   58DOPE   H6X 7446   7.944   6.015   3.845
   58DOPE   H6Y 7447   7.844   5.866   3.851
   58DOPE   C37 7448   7.800   6.011   4.007
   58DOPE   H7X 7449   7.869   5.960   4.076
   58DOPE   H7Y 7450   7.812   6.120   4.022
   58DOPE   C38 7451   7.655   5.975   4.045
   58DOPE   H8X 7452   7.585   6.032   3.979
   58DOPE   H8Y 7453   7.637   6.013   4.148
   58DOPE   C39 7454   7.627   5.827   4.034
   58DOPE   H9X 7455   7.631   5.786   3.932
   58DOPE  C310 7456   7.599   5.744   4.137
   58DOPE  H10X 7457   7.583   5.637   4.116
   58DOPE  C311 7458   7.591   5.783   4.282
   58DOPE  H11X 7459   7.532   5.877   4.295
   58DOPE  H11Y 7460   7.536   5.704   4.338
   58DOPE  C312 7461   7.729   5.803   4.347
   58DOPE  H12X 7462   7.782   5.889   4.301
   58DOPE  H12Y 7463   7.791   5.713   4.326
   58DOPE  C313 7464   7.722   5.822   4.499
   58DOPE  H13X 7465   7.646   5.752   4.541
   58DOPE  H13Y 7466   7.820   5.793   4.543
   58DOPE  C314 7467   7.691   5.966   4.541
   58DOPE  H14X 7468   7.591   5.996   4.503
   58DOPE  H14Y 7469   7.766   6.034   4.496
   58DOPE  C315 7470   7.695   5.983   4.694
   58DOPE  H15X 7471   7.791   5.943   4.733
   58DOPE  H15Y 7472   7.613   5.923   4.739
   58DOPE  C316 7473   7.681   6.129   4.740
   58DOPE  H16X 7474   7.601   6.179   4.679
   58DOPE  H16Y 7475   7.776   6.182   4.720
   58DOPE  C317 7476   7.644   6.143   4.888
   58DOPE  H17X 7477   7.654   6.250   4.917
   58DOPE  H17Y 7478   7.537   6.115   4.901
   58DOPE  C318 7479   7.728   6.057   4.983
   58DOPE  H18X 7480   7.703   6.079   5.089
   58DOPE  H18Y 7481   7.710   5.949   4.965
   58DOPE  H18Z 7482   7.836   6.077   4.968
   59DOPE     N 7483   7.419   0.954   2.895
   59DOPE   HN1 7484   7.417   0.980   2.995
   59DOPE   HN2 7485   7.351   1.012   2.842
   59DOPE   HN3 7486   7.389   0.854   2.891
   59DOPE   C12 7487   7.561   0.973   2.849
   59DOPE  H12A 7488   7.566   0.950   2.740
   59DOPE  H12B 7489   7.624   0.898   2.902
   59DOPE   C11 7490   7.617   1.116   2.876
   59DOPE  H11A 7491   7.569   1.185   2.804
   59DOPE  H11B 7492   7.725   1.115   2.851
   59DOPE     P 7493   7.609   1.079   3.138
   59DOPE   O13 7494   7.724   0.988   3.118
   59DOPE   O14 7495   7.475   1.017   3.148
   59DOPE   O11 7496   7.636   1.178   3.257
   59DOPE   O12 7497   7.600   1.170   3.008
   59DOPE    C1 7498   7.604   1.317   3.251
   59DOPE    HA 7499   7.511   1.337   3.193
   59DOPE    HB 7500   7.688   1.371   3.200
   59DOPE    C2 7501   7.588   1.384   3.392
   59DOPE    HS 7502   7.615   1.491   3.383
   59DOPE   O21 7503   7.672   1.321   3.491
   59DOPE   C21 7504   7.801   1.334   3.471
   59DOPE   O22 7505   7.853   1.399   3.381
   59DOPE   C22 7506   7.880   1.264   3.582
   59DOPE   H2R 7507   7.983   1.306   3.578
   59DOPE   H2S 7508   7.885   1.156   3.559
   59DOPE    C3 7509   7.441   1.378   3.441
   59DOPE    HX 7510   7.379   1.435   3.369
   59DOPE    HY 7511   7.433   1.432   3.538
   59DOPE   O31 7512   7.391   1.242   3.447
   59DOPE   C31 7513   7.408   1.182   3.564
   59DOPE   O32 7514   7.438   1.237   3.668
   59DOPE   C32 7515   7.375   1.033   3.550
   59DOPE   H2X 7516   7.336   0.999   3.649
   59DOPE   H2Y 7517   7.295   1.021   3.474
   59DOPE   C23 7518   7.822   1.286   3.725
   59DOPE   H3R 7519   7.731   1.224   3.739
   59DOPE   H3S 7520   7.790   1.392   3.736
   59DOPE   C24 7521   7.925   1.255   3.835
   59DOPE   H4R 7522   8.019   1.310   3.812
   59DOPE   H4S 7523   7.947   1.146   3.835
   59DOPE   C25 7524   7.877   1.299   3.975
   59DOPE   H5R 7525   7.781   1.248   3.999
   59DOPE   H5S 7526   7.858   1.408   3.973
   59DOPE   C26 7527   7.980   1.268   4.086
   59DOPE   H6R 7528   8.080   1.304   4.053
   59DOPE   H6S 7529   7.986   1.159   4.101
   59DOPE   C27 7530   7.944   1.338   4.218
   59DOPE   H7R 7531   7.842   1.308   4.250
   59DOPE   H7S 7532   7.940   1.447   4.198
   59DOPE   C28 7533   8.045   1.315   4.333
   59DOPE   H8R 7534   8.022   1.390   4.411
   59DOPE   H8S 7535   8.147   1.338   4.295
   59DOPE   C29 7536   8.036   1.178   4.395
   59DOPE   H9R 7537   7.936   1.132   4.391
   59DOPE  C210 7538   8.136   1.110   4.454
   59DOPE  H10R 7539   8.113   1.010   4.495
   59DOPE  C211 7540   8.280   1.154   4.472
   59DOPE  H11R 7541   8.304   1.242   4.409
   59DOPE  H11S 7542   8.348   1.072   4.440
   59DOPE  C212 7543   8.314   1.191   4.618
   59DOPE  H12R 7544   8.245   1.272   4.650
   59DOPE  H12S 7545   8.417   1.232   4.622
   59DOPE  C213 7546   8.305   1.074   4.717
   59DOPE  H13R 7547   8.387   1.001   4.700
   59DOPE  H13S 7548   8.211   1.019   4.697
   59DOPE  C214 7549   8.306   1.118   4.865
   59DOPE  H14R 7550   8.269   1.223   4.872
   59DOPE  H14S 7551   8.411   1.118   4.902
   59DOPE  C215 7552   8.217   1.030   4.954
   59DOPE  H15R 7553   8.237   1.053   5.061
   59DOPE  H15S 7554   8.244   0.924   4.937
   59DOPE  C216 7555   8.067   1.050   4.925
   59DOPE  H16R 7556   8.051   1.051   4.816
   59DOPE  H16S 7557   8.034   1.150   4.963
   59DOPE  C217 7558   7.977   0.941   4.982
   59DOPE  H17R 7559   7.956   0.961   5.089
   59DOPE  H17S 7560   8.030   0.843   4.976
   59DOPE  C218 7561   7.846   0.930   4.904
   59DOPE  H18R 7562   7.778   0.855   4.951
   59DOPE  H18S 7563   7.865   0.898   4.799
   59DOPE  H18T 7564   7.794   1.028   4.902
   59DOPE   C33 7565   7.498   0.947   3.512
   59DOPE   H3X 7566   7.531   0.975   3.409
   59DOPE   H3Y 7567   7.467   0.841   3.508
   59DOPE   C34 7568   7.618   0.962   3.607
   59DOPE   H4X 7569   7.697   0.891   3.575
   59DOPE   H4Y 7570   7.660   1.064   3.595
   59DOPE   C35 7571   7.587   0.938   3.756
   59DOPE   H5X 7572   7.522   1.020   3.793
   59DOPE   H5Y 7573   7.683   0.946   3.811
   59DOPE   C36 7574   7.521   0.803   3.786
   59DOPE   H6X 7575   7.574   0.724   3.728
   59DOPE   H6Y 7576   7.415   0.803   3.754
   59DOPE   C37 7577   7.530   0.765   3.935
   59DOPE   H7X 7578   7.498   0.660   3.948
   59DOPE   H7Y 7579   7.637   0.772   3.966
   59DOPE   C38 7580   7.445   0.856   4.027
   59DOPE   H8X 7581   7.338   0.842   4.000
   59DOPE   H8Y 7582   7.470   0.962   4.005
   59DOPE   C39 7583   7.468   0.822   4.172
   59DOPE   H9X 7584   7.434   0.722   4.203
   59DOPE  C310 7585   7.527   0.901   4.263
   59DOPE  H10X 7586   7.538   0.865   4.366
   59DOPE  C311 7587   7.581   1.039   4.236
   59DOPE  H11X 7588   7.662   1.034   4.160
   59DOPE  H11Y 7589   7.502   1.104   4.195
   59DOPE  C312 7590   7.637   1.105   4.363
   59DOPE  H12X 7591   7.679   1.203   4.333
   59DOPE  H12Y 7592   7.721   1.045   4.405
   59DOPE  C313 7593   7.532   1.130   4.472
   59DOPE  H13X 7594   7.434   1.150   4.422
   59DOPE  H13Y 7595   7.519   1.039   4.535
   59DOPE  C314 7596   7.565   1.252   4.559
   59DOPE  H14X 7597   7.478   1.274   4.626
   59DOPE  H14Y 7598   7.578   1.339   4.492
   59DOPE  C315 7599   7.692   1.238   4.644
   59DOPE  H15X 7600   7.777   1.209   4.578
   59DOPE  H15Y 7601   7.679   1.158   4.719
   59DOPE  C316 7602   7.727   1.370   4.715
   59DOPE  H16X 7603   7.639   1.404   4.774
   59DOPE  H16Y 7604   7.747   1.448   4.638
   59DOPE  C317 7605   7.848   1.361   4.808
   59DOPE  H17X 7606   7.860   1.458   4.861
   59DOPE  H17Y 7607   7.829   1.283   4.885
   59DOPE  C318 7608   7.979   1.329   4.735
   59DOPE  H18X 7609   7.997   1.402   4.654
   59DOPE  H18Y 7610   8.065   1.332   4.806
   59DOPE  H18Z 7611   7.975   1.228   4.690
   60DOPE     N 7612   0.178   7.529   3.346
   60DOPE   HN1 7613   0.205   7.467   3.266
   60DOPE   HN2 7614   0.248   7.605   3.359
   60DOPE   HN3 7615   0.172   7.468   3.430
   60DOPE   C12 7616   0.043   7.581   3.307
   60DOPE  H12A 7617   0.058   7.657   3.228
   60DOPE  H12B 7618  -0.005   7.627   3.396
   60DOPE   C11 7619  -0.038   7.464   3.250
   60DOPE  H11A 7620  -0.129   7.505   3.200
   60DOPE  H11B 7621  -0.072   7.398   3.334
   60DOPE     P 7622  -0.022   7.269   3.078
   60DOPE   O13 7623   0.055   7.146   3.108
   60DOPE   O14 7624  -0.035   7.309   2.937
   60DOPE   O11 7625  -0.165   7.257   3.144
   60DOPE   O12 7626   0.043   7.390   3.159
   60DOPE    C1 7627  -0.281   7.271   3.062
   60DOPE    HA 7628  -0.270   7.218   2.965
   60DOPE    HB 7629  -0.296   7.379   3.039
   60DOPE    C2 7630  -0.409   7.216   3.131
   60DOPE    HS 7631  -0.498   7.264   3.085
   60DOPE   O21 7632  -0.409   7.237   3.273
   60DOPE   C21 7633  -0.385   7.358   3.316
   60DOPE   O22 7634  -0.384   7.461   3.250
   60DOPE   C22 7635  -0.355   7.351   3.466
   60DOPE   H2R 7636  -0.276   7.275   3.481
   60DOPE   H2S 7637  -0.447   7.317   3.517
   60DOPE    C3 7638  -0.420   7.062   3.107
   60DOPE    HX 7639  -0.425   7.043   2.998
   60DOPE    HY 7640  -0.515   7.029   3.153
   60DOPE   O31 7641  -0.304   6.996   3.162
   60DOPE   C31 7642  -0.325   6.889   3.236
   60DOPE   O32 7643  -0.428   6.824   3.241
   60DOPE   C32 7644  -0.195   6.856   3.311
   60DOPE   H2X 7645  -0.143   6.780   3.250
   60DOPE   H2Y 7646  -0.131   6.946   3.315
   60DOPE   C23 7647  -0.311   7.488   3.523
   60DOPE   H3R 7648  -0.387   7.565   3.496
   60DOPE   H3S 7649  -0.215   7.520   3.476
   60DOPE   C24 7650  -0.296   7.489   3.675
   60DOPE   H4R 7651  -0.391   7.454   3.722
   60DOPE   H4S 7652  -0.279   7.593   3.708
   60DOPE   C25 7653  -0.181   7.401   3.726
   60DOPE   H5R 7654  -0.085   7.430   3.678
   60DOPE   H5S 7655  -0.202   7.295   3.699
   60DOPE   C26 7656  -0.164   7.408   3.879
   60DOPE   H6R 7657  -0.097   7.326   3.913
   60DOPE   H6S 7658  -0.263   7.390   3.925
   60DOPE   C27 7659  -0.104   7.541   3.929
   60DOPE   H7R 7660  -0.155   7.626   3.879
   60DOPE   H7S 7661   0.003   7.545   3.899
   60DOPE   C28 7662  -0.115   7.559   4.082
   60DOPE   H8R 7663  -0.059   7.651   4.109
   60DOPE   H8S 7664  -0.065   7.474   4.132
   60DOPE   C29 7665  -0.259   7.574   4.124
   60DOPE   H9R 7666  -0.325   7.616   4.047
   60DOPE  C210 7667  -0.313   7.538   4.241
   60DOPE  H10R 7668  -0.421   7.554   4.255
   60DOPE  C211 7669  -0.242   7.476   4.359
   60DOPE  H11R 7670  -0.132   7.481   4.348
   60DOPE  H11S 7671  -0.269   7.369   4.365
   60DOPE  C212 7672  -0.280   7.542   4.493
   60DOPE  H12R 7673  -0.240   7.646   4.499
   60DOPE  H12S 7674  -0.230   7.483   4.574
   60DOPE  C213 7675  -0.431   7.544   4.522
   60DOPE  H13R 7676  -0.478   7.460   4.465
   60DOPE  H13S 7677  -0.476   7.638   4.483
   60DOPE  C214 7678  -0.467   7.525   4.670
   60DOPE  H14R 7679  -0.418   7.432   4.706
   60DOPE  H14S 7680  -0.577   7.510   4.679
   60DOPE  C215 7681  -0.426   7.642   4.762
   60DOPE  H15R 7682  -0.317   7.658   4.755
   60DOPE  H15S 7683  -0.449   7.612   4.866
   60DOPE  C216 7684  -0.501   7.773   4.733
   60DOPE  H16R 7685  -0.535   7.818   4.829
   60DOPE  H16S 7686  -0.592   7.751   4.673
   60DOPE  C217 7687  -0.416   7.878   4.659
   60DOPE  H17R 7688  -0.483   7.960   4.625
   60DOPE  H17S 7689  -0.372   7.832   4.568
   60DOPE  C218 7690  -0.304   7.939   4.745
   60DOPE  H18R 7691  -0.245   8.012   4.686
   60DOPE  H18S 7692  -0.235   7.860   4.781
   60DOPE  H18T 7693  -0.347   7.991   4.833
   60DOPE   C33 7694  -0.218   6.800   3.453
   60DOPE   H3X 7695  -0.128   6.740   3.479
   60DOPE   H3Y 7696  -0.304   6.729   3.456
   60DOPE   C34 7697  -0.234   6.907   3.563
   60DOPE   H4X 7698  -0.161   6.989   3.545
   60DOPE   H4Y 7699  -0.336   6.950   3.560
   60DOPE   C35 7700  -0.206   6.846   3.702
   60DOPE   H5X 7701  -0.100   6.810   3.702
   60DOPE   H5Y 7702  -0.271   6.758   3.717
   60DOPE   C36 7703  -0.222   6.941   3.822
   60DOPE   H6X 7704  -0.330   6.964   3.837
   60DOPE   H6Y 7705  -0.169   7.037   3.804
   60DOPE   C37 7706  -0.167   6.875   3.951
   60DOPE   H7X 7707  -0.204   6.770   3.953
   60DOPE   H7Y 7708  -0.056   6.871   3.946
   60DOPE   C38 7709  -0.212   6.941   4.082
   60DOPE   H8X 7710  -0.188   6.869   4.164
   60DOPE   H8Y 7711  -0.323   6.950   4.080
   60DOPE   C39 7712  -0.150   7.077   4.109
   60DOPE   H9X 7713  -0.165   7.151   4.029
   60DOPE  C310 7714  -0.083   7.113   4.220
   60DOPE  H10X 7715  -0.043   7.215   4.228
   60DOPE  C311 7716  -0.057   7.025   4.340
   60DOPE  H11X 7717  -0.138   6.951   4.354
   60DOPE  H11Y 7718   0.037   6.968   4.324
   60DOPE  C312 7719  -0.043   7.101   4.474
   60DOPE  H12X 7720  -0.132   7.164   4.494
   60DOPE  H12Y 7721   0.045   7.170   4.467
   60DOPE  C313 7722  -0.022   7.004   4.591
   60DOPE  H13X 7723  -0.117   6.950   4.610
   60DOPE  H13Y 7724   0.053   6.929   4.561
   60DOPE  C314 7725   0.026   7.069   4.722
   60DOPE  H14X 7726   0.126   7.116   4.706
   60DOPE  H14Y 7727   0.041   6.987   4.795
   60DOPE  C315 7728  -0.070   7.171   4.785
   60DOPE  H15X 7729  -0.068   7.157   4.895
   60DOPE  H15Y 7730  -0.174   7.152   4.751
   60DOPE  C316 7731  -0.030   7.317   4.758
   60DOPE  H16X 7732  -0.041   7.340   4.649
   60DOPE  H16Y 7733   0.078   7.329   4.784
   60DOPE  C317 7734  -0.110   7.418   4.841
   60DOPE  H17X 7735  -0.217   7.410   4.814
   60DOPE  H17Y 7736  -0.101   7.390   4.948
   60DOPE  C318 7737  -0.064   7.563   4.824
   60DOPE  H18X 7738   0.042   7.574   4.856
   60DOPE  H18Y 7739  -0.072   7.595   4.718
   60DOPE  H18Z 7740  -0.125   7.631   4.887
   6123SM     N 7741   3.262   4.359   7.714
   6123SM   C15 7742   3.167   4.333   7.601
   6123SM  H15A 7743   3.066   4.321   7.638
   6123SM  H15B 7744   3.194   4.241   7.552
   6123SM  H15C 7745   3.168   4.414   7.529
   6123SM   C14 7746   3.219   4.482   7.789
   6123SM  H14A 7747   3.216   4.570   7.726
   6123SM  H14B 7748   3.287   4.502   7.871
   6123SM  H14C 7749   3.121   4.467   7.832
   6123SM   C13 7750   3.254   4.244   7.808
   6123SM  H13A 7751   3.153   4.225   7.841
   6123SM  H13B 7752   3.315   4.260   7.896
   6123SM  H13C 7753   3.291   4.155   7.759
   6123SM   C12 7754   3.405   4.373   7.663
   6123SM  H12A 7755   3.471   4.379   7.748
   6123SM  H12B 7756   3.414   4.468   7.611
   6123SM   C11 7757   3.460   4.262   7.570
   6123SM  H11A 7758   3.564   4.288   7.542
   6123SM  H11B 7759   3.401   4.262   7.476
   6123SM     P 7760   3.402   4.005   7.569
   6123SM   O13 7761   3.477   3.886   7.616
   6123SM   O14 7762   3.255   4.006   7.593
   6123SM   O11 7763   3.431   4.026   7.416
   6123SM   O12 7764   3.461   4.135   7.636
   6123SM   C1S 7765   3.365   3.946   7.318
   6123SM   H1S 7766   3.265   3.989   7.299
   6123SM   H1T 7767   3.352   3.841   7.351
   6123SM    NF 7768   3.509   4.072   7.169
   6123SM   HNF 7769   3.475   4.141   7.233
   6123SM   C2S 7770   3.443   3.944   7.182
   6123SM   H2S 7771   3.521   3.865   7.188
   6123SM   C3S 7772   3.341   3.909   7.070
   6123SM   H3S 7773   3.252   3.974   7.080
   6123SM    O3 7774   3.296   3.773   7.083
   6123SM   HO3 7775   3.341   3.738   7.161
   6123SM   C4S 7776   3.399   3.924   6.931
   6123SM   H4S 7777   3.463   3.840   6.899
   6123SM   C5S 7778   3.374   4.027   6.848
   6123SM   H5S 7779   3.308   4.108   6.883
   6123SM   C6S 7780   3.427   4.045   6.708
   6123SM   H6S 7781   3.361   4.118   6.656
   6123SM   H6T 7782   3.418   3.950   6.651
   6123SM   C7S 7783   3.573   4.094   6.691
   6123SM   H7S 7784   3.641   4.008   6.709
   6123SM   H7T 7785   3.596   4.172   6.767
   6123SM   C8S 7786   3.602   4.153   6.552
   6123SM   H8S 7787   3.710   4.176   6.543
   6123SM   H8T 7788   3.547   4.249   6.542
   6123SM   C9S 7789   3.560   4.062   6.435
   6123SM   H9S 7790   3.450   4.045   6.439
   6123SM   H9T 7791   3.609   3.963   6.444
   6123SM  C10S 7792   3.592   4.121   6.296
   6123SM  H10S 7793   3.702   4.126   6.282
   6123SM  H10T 7794   3.552   4.225   6.290
   6123SM  C11S 7795   3.529   4.037   6.184
   6123SM  H11S 7796   3.419   4.040   6.196
   6123SM  H11T 7797   3.561   3.932   6.195
   6123SM  C12S 7798   3.564   4.085   6.042
   6123SM  H12S 7799   3.673   4.072   6.024
   6123SM  H12T 7800   3.541   4.193   6.032
   6123SM  C13S 7801   3.484   4.006   5.937
   6123SM  H13S 7802   3.377   4.034   5.947
   6123SM  H13T 7803   3.493   3.898   5.960
   6123SM  C14S 7804   3.527   4.028   5.791
   6123SM  H14S 7805   3.606   3.955   5.766
   6123SM  H14T 7806   3.570   4.130   5.779
   6123SM  C15S 7807   3.409   4.015   5.693
   6123SM  H15S 7808   3.351   4.109   5.693
   6123SM  H15T 7809   3.341   3.934   5.728
   6123SM  C16S 7810   3.453   3.981   5.550
   6123SM  H16S 7811   3.506   3.883   5.550
   6123SM  H16T 7812   3.524   4.058   5.513
   6123SM  C17S 7813   3.333   3.972   5.453
   6123SM  H17S 7814   3.285   4.072   5.448
   6123SM  H17T 7815   3.259   3.901   5.495
   6123SM  C18S 7816   3.371   3.927   5.312
   6123SM  H18S 7817   3.448   3.995   5.269
   6123SM  H18T 7818   3.282   3.928   5.246
   6123SM  H18U 7819   3.412   3.824   5.314
   6123SM   C1F 7820   3.623   4.094   7.104
   6123SM    OF 7821   3.687   4.000   7.055
   6123SM   C2F 7822   3.678   4.234   7.099
   6123SM   H2F 7823   3.700   4.260   6.994
   6123SM   H2G 7824   3.774   4.233   7.154
   6123SM   C3F 7825   3.588   4.344   7.162
   6123SM   H3F 7826   3.649   4.437   7.164
   6123SM   H3G 7827   3.566   4.320   7.268
   6123SM   C4F 7828   3.457   4.379   7.088
   6123SM   H4F 7829   3.414   4.469   7.135
   6123SM   H4G 7830   3.383   4.297   7.099
   6123SM   C5F 7831   3.476   4.407   6.938
   6123SM   H5F 7832   3.508   4.313   6.888
   6123SM   H5G 7833   3.557   4.482   6.924
   6123SM   C6F 7834   3.348   4.457   6.869
   6123SM   H6F 7835   3.326   4.560   6.904
   6123SM   H6G 7836   3.263   4.392   6.899
   6123SM   C7F 7837   3.359   4.455   6.716
   6123SM   H7F 7838   3.377   4.351   6.682
   6123SM   H7G 7839   3.445   4.517   6.684
   6123SM   C8F 7840   3.232   4.509   6.648
   6123SM   H8F 7841   3.222   4.617   6.675
   6123SM   H8G 7842   3.143   4.456   6.688
   6123SM   C9F 7843   3.232   4.497   6.495
   6123SM   H9F 7844   3.330   4.532   6.455
   6123SM   H9G 7845   3.154   4.565   6.454
   6123SM  C10F 7846   3.203   4.355   6.445
   6123SM  H10F 7847   3.104   4.322   6.486
   6123SM  H10G 7848   3.280   4.285   6.485
   6123SM  C11F 7849   3.199   4.343   6.292
   6123SM  H11F 7850   3.299   4.371   6.252
   6123SM  H11G 7851   3.125   4.414   6.250
   6123SM  C12F 7852   3.166   4.200   6.247
   6123SM  H12F 7853   3.061   4.175   6.273
   6123SM  H12G 7854   3.231   4.131   6.303
   6123SM  C13F 7855   3.189   4.175   6.097
   6123SM  H13F 7856   3.193   4.065   6.082
   6123SM  H13G 7857   3.288   4.217   6.068
   6123SM  C14F 7858   3.080   4.230   6.004
   6123SM  H14F 7859   3.073   4.341   6.014
   6123SM  H14G 7860   2.983   4.188   6.036
   6123SM  C15F 7861   3.106   4.192   5.857
   6123SM  H15F 7862   3.133   4.085   5.854
   6123SM  H15G 7863   3.193   4.249   5.818
   6123SM  C16F 7864   2.984   4.214   5.767
   6123SM  H16F 7865   2.966   4.323   5.752
   6123SM  H16G 7866   2.894   4.173   5.818
   6123SM  C17F 7867   2.996   4.144   5.630
   6123SM  H17F 7868   3.021   4.037   5.649
   6123SM  H17G 7869   3.080   4.188   5.572
   6123SM  C18F 7870   2.866   4.150   5.549
   6123SM  H18F 7871   2.855   4.251   5.504
   6123SM  H18G 7872   2.781   4.136   5.618
   6123SM  C19F 7873   2.855   4.041   5.440
   6123SM  H19F 7874   2.754   4.046   5.395
   6123SM  H19G 7875   2.865   3.942   5.489
   6123SM  C20F 7876   2.959   4.050   5.327
   6123SM  H20F 7877   2.946   3.960   5.262
   6123SM  H20G 7878   3.062   4.045   5.370
   6123SM  C21F 7879   2.945   4.175   5.240
   6123SM  H21F 7880   2.973   4.264   5.300
   6123SM  H21G 7881   2.839   4.187   5.209
   6123SM  C22F 7882   3.033   4.169   5.114
   6123SM  H22F 7883   3.004   4.079   5.055
   6123SM  H22G 7884   3.138   4.155   5.145
   6123SM  C23F 7885   3.022   4.293   5.025
   6123SM  H23F 7886   3.087   4.282   4.935
   6123SM  H23G 7887   3.055   4.384   5.081
   6123SM  H23H 7888   2.918   4.308   4.991
   6223SM     N 7889   3.466   3.346   7.711
   6223SM   C15 7890   3.386   3.231   7.657
   6223SM  H15A 7891   3.284   3.232   7.693
   6223SM  H15B 7892   3.430   3.135   7.680
   6223SM  H15C 7893   3.378   3.240   7.550
   6223SM   C14 7894   3.468   3.338   7.861
   6223SM  H14A 7895   3.520   3.249   7.895
   6223SM  H14B 7896   3.368   3.335   7.902
   6223SM  H14C 7897   3.519   3.423   7.904
   6223SM   C13 7898   3.606   3.333   7.658
   6223SM  H13A 7899   3.671   3.409   7.699
   6223SM  H13B 7900   3.605   3.343   7.551
   6223SM  H13C 7901   3.648   3.236   7.680
   6223SM   C12 7902   3.405   3.478   7.666
   6223SM  H12A 7903   3.463   3.559   7.707
   6223SM  H12B 7904   3.305   3.487   7.707
   6223SM   C11 7905   3.391   3.503   7.513
   6223SM  H11A 7906   3.491   3.492   7.465
   6223SM  H11B 7907   3.361   3.609   7.496
   6223SM     P 7908   3.143   3.429   7.470
   6223SM   O13 7909   3.093   3.307   7.536
   6223SM   O14 7910   3.114   3.558   7.535
   6223SM   O11 7911   3.090   3.432   7.319
   6223SM   O12 7912   3.299   3.413   7.450
   6223SM   C1S 7913   3.126   3.317   7.240
   6223SM   H1S 7914   3.081   3.225   7.284
   6223SM   H1T 7915   3.236   3.302   7.238
   6223SM    NF 7916   3.161   3.413   7.014
   6223SM   HNF 7917   3.123   3.501   6.987
   6223SM   C2S 7918   3.076   3.324   7.092
   6223SM   H2S 7919   3.086   3.222   7.049
   6223SM   C3S 7920   2.926   3.365   7.084
   6223SM   H3S 7921   2.913   3.465   7.131
   6223SM    O3 7922   2.837   3.276   7.153
   6223SM   HO3 7923   2.892   3.222   7.210
   6223SM   C4S 7924   2.888   3.376   6.938
   6223SM   H4S 7925   2.868   3.479   6.905
   6223SM   C5S 7926   2.874   3.275   6.849
   6223SM   H5S 7927   2.888   3.171   6.881
   6223SM   C6S 7928   2.837   3.297   6.705
   6223SM   H6S 7929   2.818   3.404   6.684
   6223SM   H6T 7930   2.743   3.244   6.680
   6223SM   C7S 7931   2.949   3.249   6.608
   6223SM   H7S 7932   2.956   3.139   6.611
   6223SM   H7T 7933   3.046   3.293   6.638
   6223SM   C8S 7934   2.918   3.295   6.465
   6223SM   H8S 7935   2.919   3.406   6.464
   6223SM   H8T 7936   2.815   3.262   6.441
   6223SM   C9S 7937   3.011   3.245   6.354
   6223SM   H9S 7938   3.009   3.134   6.350
   6223SM   H9T 7939   3.115   3.277   6.376
   6223SM  C10S 7940   2.968   3.302   6.218
   6223SM  H10S 7941   2.964   3.413   6.227
   6223SM  H10T 7942   2.865   3.268   6.194
   6223SM  C11S 7943   3.061   3.267   6.101
   6223SM  H11S 7944   3.058   3.157   6.082
   6223SM  H11T 7945   3.165   3.294   6.128
   6223SM  C12S 7946   3.022   3.342   5.972
   6223SM  H12S 7947   3.014   3.450   5.997
   6223SM  H12T 7948   2.922   3.309   5.937
   6223SM  C13S 7949   3.125   3.326   5.860
   6223SM  H13S 7950   3.127   3.222   5.823
   6223SM  H13T 7951   3.225   3.349   5.903
   6223SM  C14S 7952   3.102   3.423   5.743
   6223SM  H14S 7953   3.199   3.445   5.695
   6223SM  H14T 7954   3.061   3.519   5.782
   6223SM  C15S 7955   3.008   3.368   5.634
   6223SM  H15S 7956   2.918   3.325   5.683
   6223SM  H15T 7957   3.060   3.286   5.580
   6223SM  C16S 7958   2.962   3.475   5.533
   6223SM  H16S 7959   2.893   3.545   5.585
   6223SM  H16T 7960   2.904   3.425   5.452
   6223SM  C17S 7961   3.074   3.559   5.471
   6223SM  H17S 7962   3.149   3.490   5.427
   6223SM  H17T 7963   3.125   3.617   5.551
   6223SM  C18S 7964   3.024   3.656   5.364
   6223SM  H18S 7965   2.975   3.601   5.281
   6223SM  H18T 7966   3.108   3.715   5.322
   6223SM  H18U 7967   2.950   3.727   5.407
   6223SM   C1F 7968   3.285   3.381   6.977
   6223SM    OF 7969   3.337   3.276   7.015
   6223SM   C2F 7970   3.356   3.475   6.884
   6223SM   H2F 7971   3.419   3.415   6.815
   6223SM   H2G 7972   3.422   3.542   6.943
   6223SM   C3F 7973   3.257   3.561   6.800
   6223SM   H3F 7974   3.201   3.631   6.867
   6223SM   H3G 7975   3.183   3.495   6.750
   6223SM   C4F 7976   3.325   3.646   6.692
   6223SM   H4F 7977   3.375   3.580   6.618
   6223SM   H4G 7978   3.405   3.707   6.740
   6223SM   C5F 7979   3.227   3.741   6.621
   6223SM   H5F 7980   3.284   3.810   6.554
   6223SM   H5G 7981   3.176   3.803   6.697
   6223SM   C6F 7982   3.119   3.671   6.536
   6223SM   H6F 7983   3.049   3.748   6.498
   6223SM   H6G 7984   3.059   3.604   6.601
   6223SM   C7F 7985   3.174   3.591   6.417
   6223SM   H7F 7986   3.090   3.534   6.372
   6223SM   H7G 7987   3.248   3.516   6.453
   6223SM   C8F 7988   3.236   3.678   6.307
   6223SM   H8F 7989   3.317   3.741   6.349
   6223SM   H8G 7990   3.158   3.746   6.267
   6223SM   C9F 7991   3.293   3.593   6.192
   6223SM   H9F 7992   3.216   3.520   6.159
   6223SM   H9G 7993   3.381   3.536   6.230
   6223SM  C10F 7994   3.335   3.678   6.071
   6223SM  H10F 7995   3.399   3.762   6.105
   6223SM  H10G 7996   3.244   3.722   6.026
   6223SM  C11F 7997   3.410   3.596   5.965
   6223SM  H11F 7998   3.372   3.491   5.967
   6223SM  H11G 7999   3.518   3.593   5.991
   6223SM  C12F 8000   3.390   3.650   5.823
   6223SM  H12F 8001   3.421   3.757   5.819
   6223SM  H12G 8002   3.282   3.646   5.799
   6223SM  C13F 8003   3.468   3.573   5.715
   6223SM  H13F 8004   3.424   3.599   5.616
   6223SM  H13G 8005   3.454   3.464   5.731
   6223SM  C14F 8006   3.618   3.607   5.713
   6223SM  H14F 8007   3.657   3.591   5.816
   6223SM  H14G 8008   3.632   3.715   5.689
   6223SM  C15F 8009   3.701   3.520   5.618
   6223SM  H15F 8010   3.660   3.417   5.614
   6223SM  H15G 8011   3.803   3.513   5.661
   6223SM  C16F 8012   3.720   3.576   5.475
   6223SM  H16F 8013   3.792   3.510   5.422
   6223SM  H16G 8014   3.768   3.676   5.482
   6223SM  C17F 8015   3.593   3.587   5.390
   6223SM  H17F 8016   3.622   3.624   5.289
   6223SM  H17G 8017   3.525   3.663   5.434
   6223SM  C18F 8018   3.517   3.455   5.373
   6223SM  H18F 8019   3.476   3.424   5.472
   6223SM  H18G 8020   3.587   3.376   5.340
   6223SM  C19F 8021   3.402   3.467   5.273
   6223SM  H19F 8022   3.442   3.490   5.172
   6223SM  H19G 8023   3.337   3.552   5.303
   6223SM  C20F 8024   3.316   3.340   5.265
   6223SM  H20F 8025   3.277   3.317   5.367
   6223SM  H20G 8026   3.379   3.254   5.234
   6223SM  C21F 8027   3.197   3.354   5.170
   6223SM  H21F 8028   3.233   3.351   5.065
   6223SM  H21G 8029   3.151   3.454   5.185
   6223SM  C22F 8030   3.087   3.248   5.190
   6223SM  H22F 8031   3.006   3.266   5.117
   6223SM  H22G 8032   3.044   3.262   5.292
   6223SM  C23F 8033   3.136   3.104   5.177
   6223SM  H23F 8034   3.182   3.087   5.077
   6223SM  H23G 8035   3.052   3.033   5.189
   6223SM  H23H 8036   3.212   3.081   5.255
   6323SM     N 8037   4.712   4.926   7.739
   6323SM   C15 8038   4.610   4.877   7.641
   6323SM  H15A 8039   4.573   4.779   7.667
   6323SM  H15B 8040   4.652   4.873   7.542
   6323SM  H15C 8041   4.526   4.945   7.636
   6323SM   C14 8042   4.653   4.911   7.876
   6323SM  H14A 8043   4.625   4.808   7.892
   6323SM  H14B 8044   4.563   4.971   7.886
   6323SM  H14C 8045   4.722   4.940   7.954
   6323SM   C13 8046   4.834   4.839   7.727
   6323SM  H13A 8047   4.809   4.736   7.744
   6323SM  H13B 8048   4.912   4.870   7.794
   6323SM  H13C 8049   4.872   4.845   7.626
   6323SM   C12 8050   4.745   5.072   7.711
   6323SM  H12A 8051   4.803   5.112   7.793
   6323SM  H12B 8052   4.652   5.126   7.708
   6323SM   C11 8053   4.819   5.108   7.579
   6323SM  H11A 8054   4.914   5.051   7.573
   6323SM  H11B 8055   4.848   5.215   7.581
   6323SM     P 8056   4.611   5.167   7.435
   6323SM   O13 8057   4.523   5.165   7.554
   6323SM   O14 8058   4.653   5.300   7.385
   6323SM   O11 8059   4.545   5.087   7.316
   6323SM   O12 8060   4.740   5.078   7.464
   6323SM   C1S 8061   4.625   5.072   7.197
   6323SM   H1S 8062   4.715   5.010   7.217
   6323SM   H1T 8063   4.659   5.171   7.159
   6323SM    NF 8064   4.629   5.007   6.962
   6323SM   HNF 8065   4.598   5.063   6.885
   6323SM   C2S 8066   4.546   5.006   7.081
   6323SM   H2S 8067   4.524   4.901   7.108
   6323SM   C3S 8068   4.410   5.080   7.060
   6323SM   H3S 8069   4.430   5.189   7.053
   6323SM    O3 8070   4.318   5.063   7.168
   6323SM   HO3 8071   4.376   5.052   7.243
   6323SM   C4S 8072   4.348   5.032   6.931
   6323SM   H4S 8073   4.320   4.925   6.930
   6323SM   C5S 8074   4.326   5.108   6.823
   6323SM   H5S 8075   4.348   5.216   6.827
   6323SM   C6S 8076   4.267   5.061   6.693
   6323SM   H6S 8077   4.175   5.118   6.669
   6323SM   H6T 8078   4.238   4.953   6.697
   6323SM   C7S 8079   4.369   5.082   6.580
   6323SM   H7S 8080   4.465   5.031   6.605
   6323SM   H7T 8081   4.391   5.190   6.570
   6323SM   C8S 8082   4.322   5.029   6.444
   6323SM   H8S 8083   4.223   5.074   6.421
   6323SM   H8T 8084   4.309   4.919   6.450
   6323SM   C9S 8085   4.420   5.063   6.331
   6323SM   H9S 8086   4.522   5.027   6.360
   6323SM   H9T 8087   4.426   5.173   6.320
   6323SM  C10S 8088   4.382   5.000   6.197
   6323SM  H10S 8089   4.278   5.029   6.171
   6323SM  H10T 8090   4.385   4.890   6.206
   6323SM  C11S 8091   4.475   5.045   6.083
   6323SM  H11S 8092   4.580   5.019   6.109
   6323SM  H11T 8093   4.469   5.155   6.073
   6323SM  C12S 8094   4.439   4.981   5.949
   6323SM  H12S 8095   4.331   4.997   5.929
   6323SM  H12T 8096   4.457   4.871   5.955
   6323SM  C13S 8097   4.519   5.037   5.830
   6323SM  H13S 8098   4.627   5.016   5.846
   6323SM  H13T 8099   4.505   5.147   5.825
   6323SM  C14S 8100   4.475   4.976   5.696
   6323SM  H14S 8101   4.367   5.001   5.681
   6323SM  H14T 8102   4.483   4.865   5.702
   6323SM  C15S 8103   4.557   5.026   5.577
   6323SM  H15S 8104   4.662   4.990   5.590
   6323SM  H15T 8105   4.560   5.137   5.578
   6323SM  C16S 8106   4.504   4.978   5.441
   6323SM  H16S 8107   4.493   4.867   5.442
   6323SM  H16T 8108   4.580   5.002   5.363
   6323SM  C17S 8109   4.371   5.044   5.401
   6323SM  H17S 8110   4.382   5.154   5.411
   6323SM  H17T 8111   4.292   5.012   5.472
   6323SM  C18S 8112   4.326   5.012   5.258
   6323SM  H18S 8113   4.404   5.042   5.186
   6323SM  H18T 8114   4.233   5.067   5.234
   6323SM  H18U 8115   4.307   4.904   5.247
   6323SM   C1F 8116   4.741   4.937   6.949
   6323SM    OF 8117   4.775   4.855   7.035
   6323SM   C2F 8118   4.822   4.958   6.825
   6323SM   H2F 8119   4.807   4.871   6.757
   6323SM   H2G 8120   4.930   4.961   6.853
   6323SM   C3F 8121   4.791   5.089   6.749
   6323SM   H3F 8122   4.812   5.176   6.814
   6323SM   H3G 8123   4.685   5.092   6.717
   6323SM   C4F 8124   4.877   5.102   6.622
   6323SM   H4F 8125   4.850   5.019   6.553
   6323SM   H4G 8126   4.985   5.090   6.648
   6323SM   C5F 8127   4.859   5.236   6.551
   6323SM   H5F 8128   4.912   5.315   6.609
   6323SM   H5G 8129   4.751   5.263   6.549
   6323SM   C6F 8130   4.910   5.236   6.406
   6323SM   H6F 8131   5.018   5.209   6.403
   6323SM   H6G 8132   4.901   5.340   6.368
   6323SM   C7F 8133   4.830   5.143   6.315
   6323SM   H7F 8134   4.725   5.136   6.352
   6323SM   H7G 8135   4.874   5.042   6.320
   6323SM   C8F 8136   4.824   5.190   6.169
   6323SM   H8F 8137   4.789   5.105   6.106
   6323SM   H8G 8138   4.926   5.218   6.134
   6323SM   C9F 8139   4.727   5.307   6.147
   6323SM   H9F 8140   4.767   5.398   6.198
   6323SM   H9G 8141   4.629   5.284   6.194
   6323SM  C10F 8142   4.705   5.339   5.999
   6323SM  H10F 8143   4.664   5.249   5.948
   6323SM  H10G 8144   4.805   5.360   5.954
   6323SM  C11F 8145   4.613   5.459   5.975
   6323SM  H11F 8146   4.651   5.544   6.035
   6323SM  H11G 8147   4.510   5.437   6.010
   6323SM  C12F 8148   4.611   5.499   5.826
   6323SM  H12F 8149   4.540   5.432   5.772
   6323SM  H12G 8150   4.712   5.479   5.784
   6323SM  C13F 8151   4.578   5.647   5.801
   6323SM  H13F 8152   4.640   5.706   5.872
   6323SM  H13G 8153   4.472   5.668   5.823
   6323SM  C14F 8154   4.614   5.695   5.658
   6323SM  H14F 8155   4.701   5.636   5.621
   6323SM  H14G 8156   4.648   5.800   5.664
   6323SM  C15F 8157   4.498   5.689   5.556
   6323SM  H15F 8158   4.538   5.717   5.456
   6323SM  H15G 8159   4.423   5.766   5.585
   6323SM  C16F 8160   4.426   5.554   5.546
   6323SM  H16F 8161   4.339   5.564   5.477
   6323SM  H16G 8162   4.385   5.530   5.646
   6323SM  C17F 8163   4.514   5.437   5.498
   6323SM  H17F 8164   4.468   5.342   5.533
   6323SM  H17G 8165   4.615   5.444   5.544
   6323SM  C18F 8166   4.527   5.429   5.346
   6323SM  H18F 8167   4.561   5.528   5.306
   6323SM  H18G 8168   4.428   5.408   5.302
   6323SM  C19F 8169   4.626   5.321   5.301
   6323SM  H19F 8170   4.606   5.226   5.356
   6323SM  H19G 8171   4.729   5.353   5.330
   6323SM  C20F 8172   4.621   5.294   5.150
   6323SM  H20F 8173   4.606   5.391   5.097
   6323SM  H20G 8174   4.534   5.230   5.127
   6323SM  C21F 8175   4.750   5.231   5.095
   6323SM  H21F 8176   4.834   5.301   5.110
   6323SM  H21G 8177   4.737   5.216   4.986
   6323SM  C22F 8178   4.786   5.096   5.157
   6323SM  H22F 8179   4.703   5.024   5.140
   6323SM  H22G 8180   4.798   5.108   5.267
   6323SM  C23F 8181   4.916   5.039   5.100
   6323SM  H23F 8182   4.906   5.019   4.991
   6323SM  H23G 8183   4.944   4.944   5.150
   6323SM  H23H 8184   5.000   5.111   5.114
   6423SM     N 8185   5.489   3.845   7.779
   6423SM   C15 8186   5.386   3.737   7.790
   6423SM  H15A 8187   5.299   3.763   7.733
   6423SM  H15B 8188   5.358   3.718   7.893
   6423SM  H15C 8189   5.423   3.644   7.748
   6423SM   C14 8190   5.431   3.972   7.832
   6423SM  H14A 8191   5.345   3.997   7.773
   6423SM  H14B 8192   5.503   4.052   7.824
   6423SM  H14C 8193   5.402   3.960   7.936
   6423SM   C13 8194   5.609   3.806   7.861
   6423SM  H13A 8195   5.582   3.788   7.964
   6423SM  H13B 8196   5.685   3.883   7.858
   6423SM  H13C 8197   5.653   3.714   7.825
   6423SM   C12 8198   5.529   3.864   7.633
   6423SM  H12A 8199   5.550   3.766   7.591
   6423SM  H12B 8200   5.622   3.919   7.628
   6423SM   C11 8201   5.430   3.933   7.536
   6423SM  H11A 8202   5.476   3.937   7.434
   6423SM  H11B 8203   5.416   4.039   7.567
   6423SM     P 8204   5.285   3.727   7.464
   6423SM   O13 8205   5.413   3.653   7.474
   6423SM   O14 8206   5.167   3.664   7.526
   6423SM   O11 8207   5.257   3.756   7.312
   6423SM   O12 8208   5.302   3.869   7.531
   6423SM   C1S 8209   5.222   3.884   7.259
   6423SM   H1S 8210   5.295   3.961   7.291
   6423SM   H1T 8211   5.121   3.914   7.293
   6423SM    NF 8212   5.210   4.010   7.044
   6423SM   HNF 8213   5.119   4.036   7.013
   6423SM   C2S 8214   5.225   3.878   7.104
   6423SM   H2S 8215   5.324   3.838   7.074
   6423SM   C3S 8216   5.115   3.781   7.051
   6423SM   H3S 8217   5.015   3.825   7.071
   6423SM    O3 8218   5.114   3.652   7.111
   6423SM   HO3 8219   5.170   3.662   7.188
   6423SM   C4S 8220   5.136   3.766   6.903
   6423SM   H4S 8221   5.229   3.714   6.878
   6423SM   C5S 8222   5.055   3.809   6.804
   6423SM   H5S 8223   4.960   3.858   6.830
   6423SM   C6S 8224   5.083   3.794   6.657
   6423SM   H6S 8225   5.052   3.888   6.607
   6423SM   H6T 8226   5.022   3.712   6.614
   6423SM   C7S 8227   5.232   3.769   6.622
   6423SM   H7S 8228   5.265   3.673   6.667
   6423SM   H7T 8229   5.294   3.851   6.666
   6423SM   C8S 8230   5.262   3.763   6.472
   6423SM   H8S 8231   5.208   3.676   6.429
   6423SM   H8T 8232   5.371   3.744   6.459
   6423SM   C9S 8233   5.224   3.890   6.395
   6423SM   H9S 8234   5.272   3.978   6.444
   6423SM   H9T 8235   5.114   3.904   6.398
   6423SM  C10S 8236   5.268   3.884   6.248
   6423SM  H10S 8237   5.225   3.793   6.202
   6423SM  H10T 8238   5.379   3.874   6.243
   6423SM  C11S 8239   5.225   4.007   6.167
   6423SM  H11S 8240   5.271   4.099   6.209
   6423SM  H11T 8241   5.115   4.018   6.176
   6423SM  C12S 8242   5.260   3.993   6.019
   6423SM  H12S 8243   5.242   3.888   5.987
   6423SM  H12T 8244   5.369   4.014   6.005
   6423SM  C13S 8245   5.178   4.086   5.928
   6423SM  H13S 8246   5.198   4.192   5.955
   6423SM  H13T 8247   5.071   4.066   5.945
   6423SM  C14S 8248   5.210   4.062   5.780
   6423SM  H14S 8249   5.202   3.953   5.760
   6423SM  H14T 8250   5.315   4.092   5.760
   6423SM  C15S 8251   5.116   4.138   5.687
   6423SM  H15S 8252   5.122   4.247   5.709
   6423SM  H15T 8253   5.011   4.106   5.709
   6423SM  C16S 8254   5.144   4.115   5.537
   6423SM  H16S 8255   5.242   4.161   5.513
   6423SM  H16T 8256   5.066   4.168   5.479
   6423SM  C17S 8257   5.148   3.968   5.494
   6423SM  H17S 8258   5.058   3.916   5.534
   6423SM  H17T 8259   5.237   3.919   5.539
   6423SM  C18S 8260   5.152   3.950   5.342
   6423SM  H18S 8261   5.058   3.987   5.296
   6423SM  H18T 8262   5.163   3.842   5.315
   6423SM  H18U 8263   5.238   4.006   5.298
   6423SM   C1F 8264   5.306   4.101   7.033
   6423SM    OF 8265   5.406   4.098   7.104
   6423SM   C2F 8266   5.282   4.210   6.933
   6423SM   H2F 8267   5.237   4.296   6.985
   6423SM   H2G 8268   5.208   4.173   6.858
   6423SM   C3F 8269   5.409   4.254   6.857
   6423SM   H3F 8270   5.488   4.287   6.929
   6423SM   H3G 8271   5.383   4.342   6.794
   6423SM   C4F 8272   5.470   4.146   6.765
   6423SM   H4F 8273   5.389   4.102   6.702
   6423SM   H4G 8274   5.513   4.065   6.827
   6423SM   C5F 8275   5.579   4.204   6.673
   6423SM   H5F 8276   5.650   4.263   6.735
   6423SM   H5G 8277   5.532   4.274   6.601
   6423SM   C6F 8278   5.659   4.099   6.595
   6423SM   H6F 8279   5.716   4.035   6.666
   6423SM   H6G 8280   5.734   4.152   6.532
   6423SM   C7F 8281   5.574   4.008   6.505
   6423SM   H7F 8282   5.510   4.070   6.438
   6423SM   H7G 8283   5.507   3.948   6.569
   6423SM   C8F 8284   5.658   3.910   6.420
   6423SM   H8F 8285   5.592   3.829   6.382
   6423SM   H8G 8286   5.733   3.862   6.487
   6423SM   C9F 8287   5.731   3.973   6.300
   6423SM   H9F 8288   5.805   3.900   6.261
   6423SM   H9G 8289   5.787   4.063   6.334
   6423SM  C10F 8290   5.636   4.012   6.186
   6423SM  H10F 8291   5.561   4.083   6.225
   6423SM  H10G 8292   5.582   3.921   6.150
   6423SM  C11F 8293   5.707   4.079   6.067
   6423SM  H11F 8294   5.778   4.154   6.109
   6423SM  H11G 8295   5.632   4.136   6.008
   6423SM  C12F 8296   5.783   3.985   5.972
   6423SM  H12F 8297   5.815   3.893   6.025
   6423SM  H12G 8298   5.875   4.038   5.940
   6423SM  C13F 8299   5.705   3.950   5.844
   6423SM  H13F 8300   5.776   3.909   5.768
   6423SM  H13G 8301   5.662   4.043   5.801
   6423SM  C14F 8302   5.594   3.846   5.864
   6423SM  H14F 8303   5.529   3.881   5.947
   6423SM  H14G 8304   5.638   3.749   5.895
   6423SM  C15F 8305   5.505   3.825   5.740
   6423SM  H15F 8306   5.467   3.924   5.706
   6423SM  H15G 8307   5.417   3.765   5.771
   6423SM  C16F 8308   5.575   3.754   5.624
   6423SM  H16F 8309   5.617   3.658   5.660
   6423SM  H16G 8310   5.659   3.816   5.586
   6423SM  C17F 8311   5.477   3.725   5.508
   6423SM  H17F 8312   5.441   3.821   5.465
   6423SM  H17G 8313   5.389   3.673   5.551
   6423SM  C18F 8314   5.536   3.636   5.398
   6423SM  H18F 8315   5.453   3.602   5.332
   6423SM  H18G 8316   5.580   3.546   5.444
   6423SM  C19F 8317   5.641   3.704   5.309
   6423SM  H19F 8318   5.682   3.627   5.240
   6423SM  H19G 8319   5.726   3.741   5.371
   6423SM  C20F 8320   5.586   3.820   5.225
   6423SM  H20F 8321   5.565   3.907   5.290
   6423SM  H20G 8322   5.490   3.788   5.179
   6423SM  C21F 8323   5.682   3.862   5.112
   6423SM  H21F 8324   5.700   3.774   5.046
   6423SM  H21G 8325   5.780   3.891   5.156
   6423SM  C22F 8326   5.628   3.978   5.028
   6423SM  H22F 8327   5.618   4.068   5.092
   6423SM  H22G 8328   5.527   3.951   4.991
   6423SM  C23F 8329   5.717   4.011   4.908
   6423SM  H23F 8330   5.820   4.037   4.942
   6423SM  H23G 8331   5.676   4.098   4.851
   6423SM  H23H 8332   5.724   3.925   4.839
   6523SM     N 8333   5.389   4.494   7.817
   6523SM   C15 8334   5.264   4.535   7.745
   6523SM  H15A 8335   5.180   4.472   7.771
   6523SM  H15B 8336   5.280   4.522   7.639
   6523SM  H15C 8337   5.240   4.639   7.761
   6523SM   C14 8338   5.373   4.516   7.964
   6523SM  H14A 8339   5.291   4.458   8.003
   6523SM  H14B 8340   5.356   4.620   7.986
   6523SM  H14C 8341   5.463   4.485   8.015
   6523SM   C13 8342   5.410   4.348   7.789
   6523SM  H13A 8343   5.500   4.312   7.837
   6523SM  H13B 8344   5.423   4.334   7.683
   6523SM  H13C 8345   5.325   4.289   7.820
   6523SM   C12 8346   5.508   4.573   7.764
   6523SM  H12A 8347   5.589   4.567   7.835
   6523SM  H12B 8348   5.480   4.677   7.756
   6523SM   C11 8349   5.564   4.533   7.625
   6523SM  H11A 8350   5.606   4.430   7.631
   6523SM  H11B 8351   5.649   4.599   7.599
   6523SM     P 8352   5.422   4.673   7.457
   6523SM   O13 8353   5.300   4.646   7.379
   6523SM   O14 8354   5.417   4.778   7.561
   6523SM   O11 8355   5.550   4.690   7.363
   6523SM   O12 8356   5.461   4.535   7.526
   6523SM   C1S 8357   5.581   4.813   7.299
   6523SM   H1S 8358   5.685   4.842   7.326
   6523SM   H1T 8359   5.517   4.897   7.332
   6523SM    NF 8360   5.434   4.780   7.107
   6523SM   HNF 8361   5.404   4.685   7.100
   6523SM   C2S 8362   5.572   4.802   7.143
   6523SM   H2S 8363   5.605   4.898   7.098
   6523SM   C3S 8364   5.667   4.690   7.090
   6523SM   H3S 8365   5.640   4.593   7.139
   6523SM    O3 8366   5.805   4.710   7.123
   6523SM   HO3 8367   5.804   4.777   7.192
   6523SM   C4S 8368   5.648   4.674   6.941
   6523SM   H4S 8369   5.568   4.602   6.917
   6523SM   C5S 8370   5.713   4.734   6.839
   6523SM   H5S 8371   5.794   4.806   6.860
   6523SM   C6S 8372   5.687   4.712   6.691
   6523SM   H6S 8373   5.778   4.674   6.641
   6523SM   H6T 8374   5.664   4.810   6.644
   6523SM   C7S 8375   5.570   4.616   6.655
   6523SM   H7S 8376   5.479   4.650   6.710
   6523SM   H7T 8377   5.594   4.513   6.688
   6523SM   C8S 8378   5.535   4.616   6.505
   6523SM   H8S 8379   5.525   4.721   6.471
   6523SM   H8T 8380   5.436   4.567   6.493
   6523SM   C9S 8381   5.634   4.543   6.414
   6523SM   H9S 8382   5.636   4.435   6.441
   6523SM   H9T 8383   5.736   4.584   6.428
   6523SM  C10S 8384   5.596   4.558   6.265
   6523SM  H10S 8385   5.612   4.664   6.237
   6523SM  H10T 8386   5.488   4.535   6.252
   6523SM  C11S 8387   5.678   4.468   6.172
   6523SM  H11S 8388   5.651   4.362   6.188
   6523SM  H11T 8389   5.786   4.479   6.198
   6523SM  C12S 8390   5.660   4.504   6.023
   6523SM  H12S 8391   5.674   4.613   6.010
   6523SM  H12T 8392   5.556   4.479   5.993
   6523SM  C13S 8393   5.760   4.430   5.932
   6523SM  H13S 8394   5.752   4.321   5.951
   6523SM  H13T 8395   5.863   4.461   5.961
   6523SM  C14S 8396   5.741   4.455   5.782
   6523SM  H14S 8397   5.823   4.403   5.729
   6523SM  H14T 8398   5.750   4.564   5.760
   6523SM  C15S 8399   5.607   4.403   5.726
   6523SM  H15S 8400   5.527   4.476   5.749
   6523SM  H15T 8401   5.582   4.308   5.779
   6523SM  C16S 8402   5.611   4.373   5.575
   6523SM  H16S 8403   5.511   4.335   5.544
   6523SM  H16T 8404   5.685   4.293   5.556
   6523SM  C17S 8405   5.646   4.494   5.488
   6523SM  H17S 8406   5.746   4.534   5.517
   6523SM  H17T 8407   5.572   4.575   5.506
   6523SM  C18S 8408   5.649   4.461   5.338
   6523SM  H18S 8409   5.728   4.385   5.317
   6523SM  H18T 8410   5.671   4.551   5.278
   6523SM  H18U 8411   5.551   4.419   5.306
   6523SM   C1F 8412   5.343   4.876   7.121
   6523SM    OF 8413   5.377   4.992   7.144
   6523SM   C2F 8414   5.200   4.832   7.120
   6523SM   H2F 8415   5.145   4.894   7.194
   6523SM   H2G 8416   5.194   4.726   7.152
   6523SM   C3F 8417   5.135   4.849   6.981
   6523SM   H3F 8418   5.138   4.955   6.950
   6523SM   H3G 8419   5.028   4.820   6.993
   6523SM   C4F 8420   5.195   4.761   6.869
   6523SM   H4F 8421   5.214   4.659   6.909
   6523SM   H4G 8422   5.292   4.804   6.837
   6523SM   C5F 8423   5.100   4.750   6.749
   6523SM   H5F 8424   5.073   4.852   6.714
   6523SM   H5G 8425   5.007   4.701   6.783
   6523SM   C6F 8426   5.157   4.669   6.631
   6523SM   H6F 8427   5.077   4.604   6.589
   6523SM   H6G 8428   5.237   4.602   6.668
   6523SM   C7F 8429   5.212   4.756   6.516
   6523SM   H7F 8430   5.262   4.689   6.442
   6523SM   H7G 8431   5.290   4.823   6.556
   6523SM   C8F 8432   5.107   4.839   6.439
   6523SM   H8F 8433   5.159   4.894   6.358
   6523SM   H8G 8434   5.065   4.916   6.507
   6523SM   C9F 8435   4.992   4.758   6.376
   6523SM   H9F 8436   4.924   4.830   6.325
   6523SM   H9G 8437   4.932   4.709   6.456
   6523SM  C10F 8438   5.038   4.654   6.273
   6523SM  H10F 8439   5.091   4.571   6.324
   6523SM  H10G 8440   5.109   4.703   6.204
   6523SM  C11F 8441   4.921   4.596   6.192
   6523SM  H11F 8442   4.871   4.679   6.136
   6523SM  H11G 8443   4.846   4.553   6.262
   6523SM  C12F 8444   4.961   4.486   6.092
   6523SM  H12F 8445   4.872   4.457   6.032
   6523SM  H12G 8446   4.992   4.396   6.150
   6523SM  C13F 8447   5.077   4.522   5.996
   6523SM  H13F 8448   5.100   4.433   5.933
   6523SM  H13G 8449   5.167   4.543   6.056
   6523SM  C14F 8450   5.048   4.642   5.904
   6523SM  H14F 8451   5.006   4.724   5.965
   6523SM  H14G 8452   4.973   4.614   5.828
   6523SM  C15F 8453   5.175   4.697   5.836
   6523SM  H15F 8454   5.251   4.716   5.916
   6523SM  H15G 8455   5.151   4.795   5.790
   6523SM  C16F 8456   5.237   4.606   5.729
   6523SM  H16F 8457   5.240   4.501   5.764
   6523SM  H16G 8458   5.342   4.638   5.713
   6523SM  C17F 8459   5.165   4.616   5.593
   6523SM  H17F 8460   5.163   4.722   5.562
   6523SM  H17G 8461   5.060   4.582   5.604
   6523SM  C18F 8462   5.235   4.534   5.483
   6523SM  H18F 8463   5.229   4.426   5.511
   6523SM  H18G 8464   5.342   4.562   5.479
   6523SM  C19F 8465   5.171   4.557   5.345
   6523SM  H19F 8466   5.182   4.664   5.320
   6523SM  H19G 8467   5.063   4.534   5.351
   6523SM  C20F 8468   5.235   4.474   5.232
   6523SM  H20F 8469   5.345   4.486   5.238
   6523SM  H20G 8470   5.203   4.514   5.134
   6523SM  C21F 8471   5.199   4.324   5.238
   6523SM  H21F 8472   5.210   4.291   5.343
   6523SM  H21G 8473   5.272   4.265   5.178
   6523SM  C22F 8474   5.057   4.292   5.188
   6523SM  H22F 8475   4.988   4.374   5.217
   6523SM  H22G 8476   5.022   4.201   5.241
   6523SM  C23F 8477   5.048   4.266   5.038
   6523SM  H23F 8478   5.088   4.352   4.981
   6523SM  H23G 8479   4.943   4.249   5.007
   6523SM  H23H 8480   5.108   4.176   5.010
   6623SM     N 8481   4.206   1.960   7.792
   6623SM   C15 8482   4.242   2.094   7.737
   6623SM  H15A 8483   4.335   2.091   7.682
   6623SM  H15B 8484   4.250   2.169   7.814
   6623SM  H15C 8485   4.164   2.127   7.668
   6623SM   C14 8486   4.304   1.920   7.898
   6623SM  H14A 8487   4.404   1.921   7.859
   6623SM  H14B 8488   4.282   1.821   7.934
   6623SM  H14C 8489   4.298   1.988   7.982
   6623SM   C13 8490   4.070   1.970   7.854
   6623SM  H13A 8491   3.997   1.990   7.776
   6623SM  H13B 8492   4.064   2.050   7.926
   6623SM  H13C 8493   4.041   1.878   7.903
   6623SM   C12 8494   4.207   1.856   7.680
   6623SM  H12A 8495   4.168   1.763   7.720
   6623SM  H12B 8496   4.309   1.834   7.651
   6623SM   C11 8497   4.131   1.891   7.550
   6623SM  H11A 8498   4.139   1.803   7.482
   6623SM  H11B 8499   4.186   1.973   7.500
   6623SM     P 8500   3.923   2.055   7.526
   6623SM   O13 8501   3.787   2.020   7.482
   6623SM   O14 8502   3.937   2.153   7.636
   6623SM   O11 8503   4.012   2.100   7.403
   6623SM   O12 8504   3.992   1.919   7.571
   6623SM   C1S 8505   4.004   2.029   7.279
   6623SM   H1S 8506   3.903   1.985   7.261
   6623SM   H1T 8507   4.077   1.946   7.279
   6623SM    NF 8508   3.915   2.133   7.075
   6623SM   HNF 8509   3.910   2.075   6.994
   6623SM   C2S 8510   4.033   2.124   7.159
   6623SM   H2S 8511   4.057   2.225   7.199
   6623SM   C3S 8512   4.158   2.073   7.081
   6623SM   H3S 8513   4.138   1.968   7.048
   6623SM    O3 8514   4.278   2.070   7.156
   6623SM   HO3 8515   4.255   2.096   7.245
   6623SM   C4S 8516   4.178   2.160   6.961
   6623SM   H4S 8517   4.195   2.266   6.985
   6623SM   C5S 8518   4.179   2.119   6.832
   6623SM   H5S 8519   4.166   2.012   6.809
   6623SM   C6S 8520   4.199   2.210   6.714
   6623SM   H6S 8521   4.302   2.251   6.713
   6623SM   H6T 8522   4.129   2.296   6.720
   6623SM   C7S 8523   4.172   2.136   6.582
   6623SM   H7S 8524   4.072   2.088   6.586
   6623SM   H7T 8525   4.246   2.053   6.569
   6623SM   C8S 8526   4.178   2.227   6.459
   6623SM   H8S 8527   4.280   2.270   6.449
   6623SM   H8T 8528   4.106   2.310   6.472
   6623SM   C9S 8529   4.142   2.149   6.332
   6623SM   H9S 8530   4.048   2.093   6.351
   6623SM   H9T 8531   4.221   2.073   6.311
   6623SM  C10S 8532   4.122   2.236   6.208
   6623SM  H10S 8533   4.219   2.282   6.178
   6623SM  H10T 8534   4.052   2.319   6.232
   6623SM  C11S 8535   4.064   2.155   6.091
   6623SM  H11S 8536   3.964   2.117   6.120
   6623SM  H11T 8537   4.129   2.068   6.071
   6623SM  C12S 8538   4.049   2.236   5.961
   6623SM  H12S 8539   4.149   2.268   5.927
   6623SM  H12T 8540   3.988   2.327   5.980
   6623SM  C13S 8541   3.982   2.154   5.850
   6623SM  H13S 8542   3.877   2.131   5.879
   6623SM  H13T 8543   4.036   2.057   5.839
   6623SM  C14S 8544   3.983   2.226   5.714
   6623SM  H14S 8545   4.089   2.247   5.687
   6623SM  H14T 8546   3.930   2.323   5.724
   6623SM  C15S 8547   3.920   2.142   5.602
   6623SM  H15S 8548   3.810   2.136   5.618
   6623SM  H15T 8549   3.960   2.039   5.608
   6623SM  C16S 8550   3.950   2.197   5.462
   6623SM  H16S 8551   3.914   2.124   5.386
   6623SM  H16T 8552   4.060   2.207   5.450
   6623SM  C17S 8553   3.884   2.332   5.433
   6623SM  H17S 8554   3.912   2.406   5.512
   6623SM  H17T 8555   3.774   2.320   5.436
   6623SM  C18S 8556   3.924   2.389   5.296
   6623SM  H18S 8557   3.871   2.485   5.276
   6623SM  H18T 8558   3.900   2.317   5.216
   6623SM  H18U 8559   4.034   2.409   5.294
   6623SM   C1F 8560   3.812   2.211   7.108
   6623SM    OF 8561   3.822   2.291   7.200
   6623SM   C2F 8562   3.688   2.196   7.026
   6623SM   H2F 8563   3.603   2.175   7.094
   6623SM   H2G 8564   3.699   2.109   6.957
   6623SM   C3F 8565   3.657   2.324   6.944
   6623SM   H3F 8566   3.627   2.404   7.015
   6623SM   H3G 8567   3.569   2.303   6.881
   6623SM   C4F 8568   3.772   2.379   6.857
   6623SM   H4F 8569   3.851   2.419   6.924
   6623SM   H4G 8570   3.732   2.464   6.798
   6623SM   C5F 8571   3.837   2.278   6.761
   6623SM   H5F 8572   3.889   2.199   6.819
   6623SM   H5G 8573   3.914   2.332   6.703
   6623SM   C6F 8574   3.739   2.211   6.664
   6623SM   H6F 8575   3.682   2.289   6.609
   6623SM   H6G 8576   3.666   2.150   6.722
   6623SM   C7F 8577   3.812   2.120   6.564
   6623SM   H7F 8578   3.869   2.043   6.620
   6623SM   H7G 8579   3.884   2.182   6.505
   6623SM   C8F 8580   3.717   2.050   6.468
   6623SM   H8F 8581   3.653   2.126   6.418
   6623SM   H8G 8582   3.651   1.983   6.528
   6623SM   C9F 8583   3.783   1.963   6.361
   6623SM   H9F 8584   3.847   1.885   6.409
   6623SM   H9G 8585   3.849   2.026   6.296
   6623SM  C10F 8586   3.676   1.895   6.274
   6623SM  H10F 8587   3.621   1.975   6.221
   6623SM  H10G 8588   3.604   1.843   6.341
   6623SM  C11F 8589   3.729   1.795   6.171
   6623SM  H11F 8590   3.641   1.748   6.122
   6623SM  H11G 8591   3.786   1.715   6.224
   6623SM  C12F 8592   3.816   1.859   6.063
   6623SM  H12F 8593   3.914   1.887   6.107
   6623SM  H12G 8594   3.768   1.952   6.027
   6623SM  C13F 8595   3.840   1.766   5.942
   6623SM  H13F 8596   3.911   1.818   5.874
   6623SM  H13G 8597   3.745   1.751   5.887
   6623SM  C14F 8598   3.896   1.629   5.983
   6623SM  H14F 8599   3.819   1.574   6.042
   6623SM  H14G 8600   3.983   1.645   6.051
   6623SM  C15F 8601   3.939   1.540   5.866
   6623SM  H15F 8602   3.848   1.512   5.807
   6623SM  H15G 8603   3.981   1.446   5.907
   6623SM  C16F 8604   4.041   1.602   5.770
   6623SM  H16F 8605   3.995   1.691   5.721
   6623SM  H16G 8606   4.063   1.529   5.689
   6623SM  C17F 8607   4.173   1.644   5.836
   6623SM  H17F 8608   4.234   1.554   5.859
   6623SM  H17G 8609   4.152   1.696   5.932
   6623SM  C18F 8610   4.254   1.742   5.750
   6623SM  H18F 8611   4.345   1.774   5.805
   6623SM  H18G 8612   4.191   1.833   5.733
   6623SM  C19F 8613   4.296   1.684   5.615
   6623SM  H19F 8614   4.207   1.646   5.560
   6623SM  H19G 8615   4.363   1.597   5.632
   6623SM  C20F 8616   4.369   1.785   5.526
   6623SM  H20F 8617   4.403   1.735   5.433
   6623SM  H20G 8618   4.459   1.820   5.580
   6623SM  C21F 8619   4.286   1.910   5.488
   6623SM  H21F 8620   4.347   1.972   5.419
   6623SM  H21G 8621   4.268   1.971   5.578
   6623SM  C22F 8622   4.151   1.880   5.420
   6623SM  H22F 8623   4.107   1.976   5.387
   6623SM  H22G 8624   4.082   1.836   5.495
   6623SM  C23F 8625   4.159   1.786   5.300
   6623SM  H23F 8626   4.061   1.780   5.248
   6623SM  H23G 8627   4.187   1.683   5.332
   6623SM  H23H 8628   4.235   1.821   5.227
   6723SM     N 8629   3.340   5.941   7.829
   6723SM   C15 8630   3.302   6.082   7.796
   6723SM  H15A 8631   3.375   6.151   7.836
   6723SM  H15B 8632   3.205   6.108   7.837
   6723SM  H15C 8633   3.298   6.096   7.689
   6723SM   C14 8634   3.471   5.911   7.763
   6723SM  H14A 8635   3.459   5.914   7.656
   6723SM  H14B 8636   3.504   5.811   7.788
   6723SM  H14C 8637   3.549   5.980   7.791
   6723SM   C13 8638   3.359   5.928   7.977
   6723SM  H13A 8639   3.430   6.001   8.012
   6723SM  H13B 8640   3.396   5.830   8.002
   6723SM  H13C 8641   3.266   5.945   8.031
   6723SM   C12 8642   3.236   5.842   7.780
   6723SM  H12A 8643   3.150   5.845   7.845
   6723SM  H12B 8644   3.277   5.743   7.790
   6723SM   C11 8645   3.185   5.857   7.634
   6723SM  H11A 8646   3.130   5.953   7.624
   6723SM  H11B 8647   3.110   5.777   7.615
   6723SM     P 8648   3.316   5.732   7.443
   6723SM   O13 8649   3.432   5.762   7.357
   6723SM   O14 8650   3.321   5.607   7.521
   6723SM   O11 8651   3.184   5.734   7.356
   6723SM   O12 8652   3.293   5.855   7.540
   6723SM   C1S 8653   3.133   5.855   7.298
   6723SM   H1S 8654   3.168   5.947   7.351
   6723SM   H1T 8655   3.022   5.856   7.307
   6723SM    NF 8656   3.135   6.002   7.098
   6723SM   HNF 8657   3.054   6.011   7.042
   6723SM   C2S 8658   3.168   5.869   7.147
   6723SM   H2S 8659   3.277   5.853   7.135
   6723SM   C3S 8660   3.093   5.757   7.070
   6723SM   H3S 8661   2.984   5.767   7.091
   6723SM    O3 8662   3.129   5.625   7.110
   6723SM   HO3 8663   3.170   5.638   7.197
   6723SM   C4S 8664   3.117   5.767   6.923
   6723SM   H4S 8665   3.218   5.738   6.892
   6723SM   C5S 8666   3.026   5.807   6.831
   6723SM   H5S 8667   2.925   5.835   6.865
   6723SM   C6S 8668   3.049   5.817   6.682
   6723SM   H6S 8669   3.083   5.920   6.657
   6723SM   H6T 8670   2.952   5.802   6.630
   6723SM   C7S 8671   3.149   5.716   6.623
   6723SM   H7S 8672   3.108   5.614   6.632
   6723SM   H7T 8673   3.245   5.720   6.680
   6723SM   C8S 8674   3.185   5.744   6.476
   6723SM   H8S 8675   3.258   5.668   6.442
   6723SM   H8T 8676   3.236   5.843   6.470
   6723SM   C9S 8677   3.066   5.746   6.379
   6723SM   H9S 8678   2.991   5.820   6.415
   6723SM   H9T 8679   3.017   5.647   6.377
   6723SM  C10S 8680   3.107   5.788   6.237
   6723SM  H10S 8681   3.167   5.881   6.244
   6723SM  H10T 8682   3.016   5.812   6.177
   6723SM  C11S 8683   3.189   5.682   6.162
   6723SM  H11S 8684   3.130   5.588   6.154
   6723SM  H11T 8685   3.281   5.660   6.220
   6723SM  C12S 8686   3.231   5.727   6.021
   6723SM  H12S 8687   3.291   5.820   6.027
   6723SM  H12T 8688   3.141   5.748   5.959
   6723SM  C13S 8689   3.314   5.618   5.953
   6723SM  H13S 8690   3.252   5.526   5.945
   6723SM  H13T 8691   3.400   5.595   6.020
   6723SM  C14S 8692   3.370   5.652   5.815
   6723SM  H14S 8693   3.446   5.575   5.789
   6723SM  H14T 8694   3.422   5.750   5.816
   6723SM  C15S 8695   3.263   5.650   5.704
   6723SM  H15S 8696   3.203   5.744   5.709
   6723SM  H15T 8697   3.194   5.565   5.722
   6723SM  C16S 8698   3.326   5.634   5.565
   6723SM  H16S 8699   3.382   5.538   5.563
   6723SM  H16T 8700   3.398   5.716   5.547
   6723SM  C17S 8701   3.222   5.632   5.453
   6723SM  H17S 8702   3.174   5.732   5.450
   6723SM  H17T 8703   3.143   5.557   5.477
   6723SM  C18S 8704   3.279   5.600   5.315
   6723SM  H18S 8705   3.356   5.675   5.287
   6723SM  H18T 8706   3.200   5.601   5.237
   6723SM  H18U 8707   3.327   5.500   5.315
   6723SM   C1F 8708   3.206   6.112   7.128
   6723SM    OF 8709   3.299   6.110   7.207
   6723SM   C2F 8710   3.163   6.239   7.063
   6723SM   H2F 8711   3.177   6.321   7.137
   6723SM   H2G 8712   3.055   6.233   7.037
   6723SM   C3F 8713   3.245   6.271   6.936
   6723SM   H3F 8714   3.354   6.270   6.958
   6723SM   H3G 8715   3.220   6.374   6.904
   6723SM   C4F 8716   3.216   6.179   6.816
   6723SM   H4F 8717   3.107   6.180   6.795
   6723SM   H4G 8718   3.246   6.075   6.839
   6723SM   C5F 8719   3.291   6.227   6.692
   6723SM   H5F 8720   3.400   6.220   6.711
   6723SM   H5G 8721   3.269   6.335   6.674
   6723SM   C6F 8722   3.257   6.148   6.565
   6723SM   H6F 8723   3.149   6.160   6.543
   6723SM   H6G 8724   3.277   6.040   6.583
   6723SM   C7F 8725   3.340   6.195   6.445
   6723SM   H7F 8726   3.448   6.179   6.469
   6723SM   H7G 8727   3.326   6.304   6.431
   6723SM   C8F 8728   3.308   6.122   6.314
   6723SM   H8F 8729   3.316   6.012   6.330
   6723SM   H8G 8730   3.384   6.149   6.238
   6723SM   C9F 8731   3.169   6.156   6.258
   6723SM   H9F 8732   3.149   6.265   6.271
   6723SM   H9G 8733   3.092   6.100   6.315
   6723SM  C10F 8734   3.158   6.123   6.108
   6723SM  H10F 8735   3.211   6.028   6.088
   6723SM  H10G 8736   3.211   6.202   6.050
   6723SM  C11F 8737   3.013   6.109   6.060
   6723SM  H11F 8738   2.958   6.204   6.077
   6723SM  H11G 8739   2.964   6.030   6.120
   6723SM  C12F 8740   3.003   6.070   5.911
   6723SM  H12F 8741   2.901   6.031   5.890
   6723SM  H12G 8742   3.075   5.988   5.890
   6723SM  C13F 8743   3.030   6.189   5.818
   6723SM  H13F 8744   3.126   6.237   5.846
   6723SM  H13G 8745   2.949   6.264   5.833
   6723SM  C14F 8746   3.037   6.152   5.669
   6723SM  H14F 8747   3.042   6.247   5.612
   6723SM  H14G 8748   2.945   6.099   5.638
   6723SM  C15F 8749   3.161   6.067   5.633
   6723SM  H15F 8750   3.135   5.959   5.636
   6723SM  H15G 8751   3.240   6.085   5.708
   6723SM  C16F 8752   3.217   6.104   5.495
   6723SM  H16F 8753   3.244   6.212   5.496
   6723SM  H16G 8754   3.137   6.090   5.418
   6723SM  C17F 8755   3.341   6.023   5.454
   6723SM  H17F 8756   3.311   5.919   5.432
   6723SM  H17G 8757   3.412   6.020   5.539
   6723SM  C18F 8758   3.415   6.083   5.332
   6723SM  H18F 8759   3.503   6.019   5.307
   6723SM  H18G 8760   3.454   6.183   5.361
   6723SM  C19F 8761   3.328   6.101   5.207
   6723SM  H19F 8762   3.382   6.164   5.133
   6723SM  H19G 8763   3.237   6.158   5.235
   6723SM  C20F 8764   3.287   5.970   5.139
   6723SM  H20F 8765   3.293   5.887   5.213
   6723SM  H20G 8766   3.360   5.947   5.058
   6723SM  C21F 8767   3.144   5.972   5.082
   6723SM  H21F 8768   3.073   5.980   5.167
   6723SM  H21G 8769   3.124   5.875   5.032
   6723SM  C22F 8770   3.117   6.086   4.984
   6723SM  H22F 8771   3.187   6.077   4.898
   6723SM  H22G 8772   3.137   6.184   5.032
   6723SM  C23F 8773   2.973   6.086   4.931
   6723SM  H23F 8774   2.960   6.165   4.854
   6723SM  H23G 8775   2.901   6.104   5.013
   6723SM  H23H 8776   2.950   5.988   4.885
   6823SM     N 8777   3.423   1.508   7.719
   6823SM   C15 8778   3.334   1.576   7.820
   6823SM  H15A 8779   3.271   1.504   7.870
   6823SM  H15B 8780   3.269   1.645   7.768
   6823SM  H15C 8781   3.391   1.631   7.893
   6823SM   C14 8782   3.504   1.402   7.787
   6823SM  H14A 8783   3.570   1.353   7.717
   6823SM  H14B 8784   3.440   1.327   7.830
   6823SM  H14C 8785   3.565   1.444   7.866
   6823SM   C13 8786   3.336   1.445   7.615
   6823SM  H13A 8787   3.292   1.523   7.555
   6823SM  H13B 8788   3.254   1.391   7.660
   6823SM  H13C 8789   3.392   1.378   7.551
   6823SM   C12 8790   3.515   1.611   7.654
   6823SM  H12A 8791   3.571   1.563   7.575
   6823SM  H12B 8792   3.589   1.641   7.728
   6823SM   C11 8793   3.452   1.742   7.598
   6823SM  H11A 8794   3.533   1.802   7.553
   6823SM  H11B 8795   3.414   1.801   7.684
   6823SM     P 8796   3.207   1.779   7.514
   6823SM   O13 8797   3.135   1.697   7.614
   6823SM   O14 8798   3.216   1.925   7.539
   6823SM   O11 8799   3.141   1.757   7.373
   6823SM   O12 8800   3.352   1.717   7.497
   6823SM   C1S 8801   3.139   1.628   7.312
   6823SM   H1S 8802   3.087   1.555   7.377
   6823SM   H1T 8803   3.243   1.592   7.293
   6823SM    NF 8804   3.064   1.502   7.112
   6823SM   HNF 8805   3.113   1.493   7.026
   6823SM   C2S 8806   3.065   1.634   7.174
   6823SM   H2S 8807   2.960   1.665   7.193
   6823SM   C3S 8808   3.132   1.741   7.083
   6823SM   H3S 8809   3.240   1.714   7.072
   6823SM    O3 8810   3.128   1.874   7.133
   6823SM   HO3 8811   3.111   1.863   7.227
   6823SM   C4S 8812   3.071   1.734   6.945
   6823SM   H4S 8813   3.132   1.677   6.873
   6823SM   C5S 8814   2.959   1.795   6.900
   6823SM   H5S 8815   2.905   1.861   6.969
   6823SM   C6S 8816   2.904   1.786   6.759
   6823SM   H6S 8817   2.893   1.889   6.719
   6823SM   H6T 8818   2.802   1.741   6.761
   6823SM   C7S 8819   2.986   1.706   6.655
   6823SM   H7S 8820   2.986   1.599   6.683
   6823SM   H7T 8821   3.091   1.742   6.654
   6823SM   C8S 8822   2.929   1.723   6.513
   6823SM   H8S 8823   2.941   1.829   6.482
   6823SM   H8T 8824   2.820   1.701   6.516
   6823SM   C9S 8825   2.993   1.632   6.408
   6823SM   H9S 8826   2.975   1.526   6.436
   6823SM   H9T 8827   3.103   1.648   6.407
   6823SM  C10S 8828   2.937   1.658   6.267
   6823SM  H10S 8829   2.980   1.752   6.228
   6823SM  H10T 8830   2.827   1.672   6.274
   6823SM  C11S 8831   2.962   1.544   6.167
   6823SM  H11S 8832   2.899   1.457   6.192
   6823SM  H11T 8833   3.068   1.511   6.176
   6823SM  C12S 8834   2.934   1.584   6.022
   6823SM  H12S 8835   3.005   1.664   5.993
   6823SM  H12T 8836   2.832   1.627   6.014
   6823SM  C13S 8837   2.946   1.467   5.924
   6823SM  H13S 8838   2.863   1.395   5.942
   6823SM  H13T 8839   3.042   1.413   5.942
   6823SM  C14S 8840   2.943   1.513   5.778
   6823SM  H14S 8841   3.023   1.589   5.765
   6823SM  H14T 8842   2.846   1.562   5.757
   6823SM  C15S 8843   2.967   1.400   5.677
   6823SM  H15S 8844   2.886   1.325   5.685
   6823SM  H15T 8845   3.063   1.350   5.702
   6823SM  C16S 8846   2.975   1.453   5.533
   6823SM  H16S 8847   3.053   1.532   5.527
   6823SM  H16T 8848   2.878   1.500   5.506
   6823SM  C17S 8849   3.008   1.344   5.430
   6823SM  H17S 8850   2.929   1.267   5.433
   6823SM  H17T 8851   3.103   1.295   5.460
   6823SM  C18S 8852   3.022   1.398   5.288
   6823SM  H18S 8853   3.044   1.316   5.217
   6823SM  H18T 8854   3.104   1.473   5.282
   6823SM  H18U 8855   2.927   1.448   5.256
   6823SM   C1F 8856   3.002   1.395   7.160
   6823SM    OF 8857   2.935   1.398   7.263
   6823SM   C2F 8858   3.012   1.271   7.076
   6823SM   H2F 8859   3.019   1.299   6.969
   6823SM   H2G 8860   2.917   1.214   7.090
   6823SM   C3F 8861   3.130   1.179   7.114
   6823SM   H3F 8862   3.132   1.094   7.042
   6823SM   H3G 8863   3.111   1.136   7.215
   6823SM   C4F 8864   3.270   1.245   7.117
   6823SM   H4F 8865   3.345   1.168   7.147
   6823SM   H4G 8866   3.271   1.323   7.195
   6823SM   C5F 8867   3.316   1.307   6.984
   6823SM   H5F 8868   3.242   1.382   6.950
   6823SM   H5G 8869   3.323   1.229   6.905
   6823SM   C6F 8870   3.452   1.377   7.000
   6823SM   H6F 8871   3.534   1.301   6.997
   6823SM   H6G 8872   3.454   1.423   7.102
   6823SM   C7F 8873   3.480   1.490   6.900
   6823SM   H7F 8874   3.570   1.544   6.934
   6823SM   H7G 8875   3.396   1.563   6.903
   6823SM   C8F 8876   3.502   1.445   6.755
   6823SM   H8F 8877   3.406   1.409   6.713
   6823SM   H8G 8878   3.573   1.359   6.753
   6823SM   C9F 8879   3.559   1.560   6.670
   6823SM   H9F 8880   3.658   1.589   6.712
   6823SM   H9G 8881   3.492   1.648   6.679
   6823SM  C10F 8882   3.577   1.527   6.521
   6823SM  H10F 8883   3.634   1.432   6.510
   6823SM  H10G 8884   3.637   1.608   6.474
   6823SM  C11F 8885   3.444   1.515   6.445
   6823SM  H11F 8886   3.382   1.605   6.467
   6823SM  H11G 8887   3.388   1.426   6.481
   6823SM  C12F 8888   3.462   1.505   6.292
   6823SM  H12F 8889   3.523   1.416   6.267
   6823SM  H12G 8890   3.517   1.595   6.257
   6823SM  C13F 8891   3.326   1.497   6.222
   6823SM  H13F 8892   3.264   1.583   6.256
   6823SM  H13G 8893   3.275   1.404   6.254
   6823SM  C14F 8894   3.332   1.500   6.068
   6823SM  H14F 8895   3.228   1.485   6.031
   6823SM  H14G 8896   3.392   1.415   6.029
   6823SM  C15F 8897   3.382   1.634   6.012
   6823SM  H15F 8898   3.493   1.631   5.999
   6823SM  H15G 8899   3.359   1.712   6.086
   6823SM  C16F 8900   3.313   1.675   5.881
   6823SM  H16F 8901   3.333   1.784   5.865
   6823SM  H16G 8902   3.203   1.664   5.891
   6823SM  C17F 8903   3.361   1.602   5.755
   6823SM  H17F 8904   3.326   1.496   5.758
   6823SM  H17G 8905   3.472   1.601   5.753
   6823SM  C18F 8906   3.311   1.670   5.627
   6823SM  H18F 8907   3.347   1.775   5.627
   6823SM  H18G 8908   3.200   1.673   5.628
   6823SM  C19F 8909   3.358   1.602   5.498
   6823SM  H19F 8910   3.316   1.499   5.496
   6823SM  H19G 8911   3.469   1.593   5.499
   6823SM  C20F 8912   3.315   1.676   5.370
   6823SM  H20F 8913   3.205   1.695   5.375
   6823SM  H20G 8914   3.333   1.608   5.284
   6823SM  C21F 8915   3.390   1.808   5.347
   6823SM  H21F 8916   3.499   1.785   5.337
   6823SM  H21G 8917   3.378   1.874   5.435
   6823SM  C22F 8918   3.344   1.886   5.223
   6823SM  H22F 8919   3.405   1.979   5.215
   6823SM  H22G 8920   3.239   1.919   5.238
   6823SM  C23F 8921   3.354   1.809   5.091
   6823SM  H23F 8922   3.325   1.874   5.005
   6823SM  H23G 8923   3.286   1.721   5.091
   6823SM  H23H 8924   3.458   1.774   5.074
   6923SM     N 8925   5.390   2.115   7.863
   6923SM   C15 8926   5.248   2.095   7.819
   6923SM  H15A 8927   5.179   2.135   7.890
   6923SM  H15B 8928   5.227   1.990   7.805
   6923SM  H15C 8929   5.233   2.143   7.724
   6923SM   C14 8930   5.413   2.262   7.882
   6923SM  H14A 8931   5.396   2.316   7.790
   6923SM  H14B 8932   5.514   2.283   7.915
   6923SM  H14C 8933   5.347   2.304   7.956
   6923SM   C13 8934   5.410   2.047   7.995
   6923SM  H13A 8935   5.337   2.081   8.067
   6923SM  H13B 8936   5.507   2.071   8.037
   6923SM  H13C 8937   5.399   1.940   7.986
   6923SM   C12 8938   5.487   2.060   7.759
   6923SM  H12A 8939   5.456   1.960   7.732
   6923SM  H12B 8940   5.585   2.052   7.804
   6923SM   C11 8941   5.501   2.138   7.626
   6923SM  H11A 8942   5.580   2.091   7.564
   6923SM  H11B 8943   5.538   2.241   7.647
   6923SM     P 8944   5.333   2.022   7.468
   6923SM   O13 8945   5.370   1.898   7.540
   6923SM   O14 8946   5.192   2.040   7.429
   6923SM   O11 8947   5.426   2.043   7.342
   6923SM   O12 8948   5.376   2.146   7.557
   6923SM   C1S 8949   5.433   2.172   7.278
   6923SM   H1S 8950   5.536   2.211   7.291
   6923SM   H1T 8951   5.364   2.247   7.321
   6923SM    NF 8952   5.261   2.155   7.102
   6923SM   HNF 8953   5.217   2.066   7.105
   6923SM   C2S 8954   5.405   2.162   7.125
   6923SM   H2S 8955   5.443   2.255   7.078
   6923SM   C3S 8956   5.484   2.042   7.067
   6923SM   H3S 8957   5.462   1.948   7.121
   6923SM    O3 8958   5.626   2.063   7.073
   6923SM   HO3 8959   5.636   2.155   7.100
   6923SM   C4S 8960   5.446   2.027   6.923
   6923SM   H4S 8961   5.470   2.115   6.861
   6923SM   C5S 8962   5.387   1.921   6.865
   6923SM   H5S 8963   5.363   1.832   6.924
   6923SM   C6S 8964   5.352   1.918   6.718
   6923SM   H6S 8965   5.319   2.019   6.685
   6923SM   H6T 8966   5.266   1.850   6.701
   6923SM   C7S 8967   5.468   1.876   6.626
   6923SM   H7S 8968   5.498   1.772   6.649
   6923SM   H7T 8969   5.555   1.942   6.645
   6923SM   C8S 8970   5.428   1.888   6.479
   6923SM   H8S 8971   5.394   1.992   6.459
   6923SM   H8T 8972   5.342   1.821   6.459
   6923SM   C9S 8973   5.543   1.856   6.382
   6923SM   H9S 8974   5.581   1.753   6.400
   6923SM   H9T 8975   5.626   1.928   6.402
   6923SM  C10S 8976   5.501   1.870   6.235
   6923SM  H10S 8977   5.593   1.876   6.172
   6923SM  H10T 8978   5.445   1.965   6.222
   6923SM  C11S 8979   5.415   1.753   6.185
   6923SM  H11S 8980   5.337   1.731   6.261
   6923SM  H11T 8981   5.479   1.663   6.176
   6923SM  C12S 8982   5.346   1.781   6.051
   6923SM  H12S 8983   5.273   1.864   6.063
   6923SM  H12T 8984   5.288   1.690   6.021
   6923SM  C13S 8985   5.444   1.816   5.938
   6923SM  H13S 8986   5.520   1.737   5.931
   6923SM  H13T 8987   5.496   1.911   5.963
   6923SM  C14S 8988   5.374   1.833   5.803
   6923SM  H14S 8989   5.297   1.912   5.811
   6923SM  H14T 8990   5.323   1.738   5.775
   6923SM  C15S 8991   5.473   1.871   5.692
   6923SM  H15S 8992   5.547   1.789   5.679
   6923SM  H15T 8993   5.529   1.962   5.722
   6923SM  C16S 8994   5.404   1.898   5.558
   6923SM  H16S 8995   5.335   1.984   5.570
   6923SM  H16T 8996   5.343   1.809   5.528
   6923SM  C17S 8997   5.503   1.930   5.446
   6923SM  H17S 8998   5.568   1.841   5.428
   6923SM  H17T 8999   5.568   2.013   5.479
   6923SM  C18S 9000   5.434   1.970   5.315
   6923SM  H18S 9001   5.370   1.887   5.278
   6923SM  H18T 9002   5.510   1.995   5.237
   6923SM  H18U 9003   5.371   2.059   5.331
   6923SM   C1F 9004   5.184   2.264   7.109
   6923SM    OF 9005   5.233   2.371   7.144
   6923SM   C2F 9006   5.039   2.249   7.078
   6923SM   H2F 9007   4.981   2.261   7.172
   6923SM   H2G 9008   5.019   2.147   7.038
   6923SM   C3F 9009   4.991   2.355   6.976
   6923SM   H3F 9010   5.000   2.456   7.022
   6923SM   H3G 9011   4.883   2.338   6.957
   6923SM   C4F 9012   5.065   2.354   6.841
   6923SM   H4F 9013   5.171   2.387   6.856
   6923SM   H4G 9014   5.017   2.430   6.775
   6923SM   C5F 9015   5.065   2.218   6.770
   6923SM   H5F 9016   4.960   2.181   6.761
   6923SM   H5G 9017   5.121   2.145   6.832
   6923SM   C6F 9018   5.129   2.221   6.629
   6923SM   H6F 9019   5.142   2.116   6.595
   6923SM   H6G 9020   5.229   2.268   6.637
   6923SM   C7F 9021   5.045   2.294   6.523
   6923SM   H7F 9022   5.014   2.393   6.563
   6923SM   H7G 9023   4.952   2.236   6.503
   6923SM   C8F 9024   5.121   2.318   6.391
   6923SM   H8F 9025   5.211   2.380   6.415
   6923SM   H8G 9026   5.058   2.379   6.323
   6923SM   C9F 9027   5.168   2.191   6.318
   6923SM   H9F 9028   5.226   2.128   6.388
   6923SM   H9G 9029   5.238   2.221   6.237
   6923SM  C10F 9030   5.054   2.107   6.256
   6923SM  H10F 9031   4.987   2.070   6.337
   6923SM  H10G 9032   5.102   2.018   6.209
   6923SM  C11F 9033   4.970   2.177   6.148
   6923SM  H11F 9034   4.905   2.254   6.196
   6923SM  H11G 9035   4.903   2.102   6.101
   6923SM  C12F 9036   5.056   2.244   6.039
   6923SM  H12F 9037   5.139   2.176   6.011
   6923SM  H12G 9038   5.102   2.335   6.083
   6923SM  C13F 9039   4.977   2.286   5.914
   6923SM  H13F 9040   5.040   2.357   5.857
   6923SM  H13G 9041   4.885   2.341   5.945
   6923SM  C14F 9042   4.939   2.171   5.819
   6923SM  H14F 9043   4.892   2.216   5.729
   6923SM  H14G 9044   4.863   2.106   5.867
   6923SM  C15F 9045   5.060   2.085   5.775
   6923SM  H15F 9046   5.073   2.004   5.849
   6923SM  H15G 9047   5.152   2.148   5.778
   6923SM  C16F 9048   5.046   2.026   5.634
   6923SM  H16F 9049   4.945   1.984   5.620
   6923SM  H16G 9050   5.119   1.943   5.624
   6923SM  C17F 9051   5.076   2.130   5.525
   6923SM  H17F 9052   5.176   2.174   5.544
   6923SM  H17G 9053   5.002   2.212   5.531
   6923SM  C18F 9054   5.075   2.072   5.382
   6923SM  H18F 9055   4.977   2.025   5.361
   6923SM  H18G 9056   5.152   1.993   5.375
   6923SM  C19F 9057   5.102   2.181   5.277
   6923SM  H19F 9058   5.194   2.236   5.307
   6923SM  H19G 9059   5.019   2.254   5.276
   6923SM  C20F 9060   5.124   2.126   5.135
   6923SM  H20F 9061   5.207   2.052   5.137
   6923SM  H20G 9062   5.157   2.211   5.071
   6923SM  C21F 9063   4.999   2.064   5.071
   6923SM  H21F 9064   4.916   2.136   5.079
   6923SM  H21G 9065   4.970   1.973   5.128
   6923SM  C22F 9066   5.020   2.027   4.924
   6923SM  H22F 9067   5.048   2.118   4.868
   6923SM  H22G 9068   4.923   1.992   4.882
   6923SM  C23F 9069   5.126   1.919   4.899
   6923SM  H23F 9070   5.132   1.893   4.791
   6923SM  H23G 9071   5.101   1.826   4.956
   6923SM  H23H 9072   5.226   1.954   4.932
   7023SM     N 9073   4.770   1.628   7.841
   7023SM   C15 9074   4.768   1.498   7.767
   7023SM  H15A 9075   4.705   1.507   7.679
   7023SM  H15B 9076   4.727   1.419   7.828
   7023SM  H15C 9077   4.866   1.468   7.733
   7023SM   C14 9078   4.629   1.655   7.885
   7023SM  H14A 9079   4.566   1.660   7.798
   7023SM  H14B 9080   4.622   1.748   7.939
   7023SM  H14C 9081   4.593   1.575   7.947
   7023SM   C13 9082   4.856   1.610   7.962
   7023SM  H13A 9083   4.959   1.589   7.936
   7023SM  H13B 9084   4.821   1.526   8.020
   7023SM  H13C 9085   4.853   1.697   8.026
   7023SM   C12 9086   4.822   1.741   7.753
   7023SM  H12A 9087   4.914   1.708   7.707
   7023SM  H12B 9088   4.846   1.826   7.815
   7023SM   C11 9089   4.729   1.788   7.638
   7023SM  H11A 9090   4.780   1.871   7.584
   7023SM  H11B 9091   4.635   1.830   7.680
   7023SM     P 9092   4.567   1.640   7.490
   7023SM   O13 9093   4.541   1.501   7.533
   7023SM   O14 9094   4.465   1.741   7.527
   7023SM   O11 9095   4.599   1.644   7.334
   7023SM   O12 9096   4.707   1.681   7.549
   7023SM   C1S 9097   4.718   1.574   7.290
   7023SM   H1S 9098   4.704   1.465   7.308
   7023SM   H1T 9099   4.809   1.606   7.345
   7023SM    NF 9100   4.853   1.514   7.084
   7023SM   HNF 9101   4.922   1.563   7.032
   7023SM   C2S 9102   4.745   1.597   7.138
   7023SM   H2S 9103   4.652   1.571   7.084
   7023SM   C3S 9104   4.776   1.748   7.112
   7023SM   H3S 9105   4.871   1.775   7.163
   7023SM    O3 9106   4.677   1.837   7.162
   7023SM   HO3 9107   4.628   1.785   7.226
   7023SM   C4S 9108   4.788   1.775   6.964
   7023SM   H4S 9109   4.693   1.769   6.910
   7023SM   C5S 9110   4.900   1.810   6.896
   7023SM   H5S 9111   4.995   1.824   6.949
   7023SM   C6S 9112   4.901   1.837   6.747
   7023SM   H6S 9113   4.946   1.937   6.729
   7023SM   H6T 9114   4.798   1.842   6.708
   7023SM   C7S 9115   4.975   1.734   6.660
   7023SM   H7S 9116   4.930   1.633   6.675
   7023SM   H7T 9117   5.082   1.728   6.691
   7023SM   C8S 9118   4.968   1.769   6.511
   7023SM   H8S 9119   5.013   1.870   6.496
   7023SM   H8T 9120   4.861   1.776   6.480
   7023SM   C9S 9121   5.040   1.668   6.421
   7023SM   H9S 9122   4.989   1.569   6.427
   7023SM   H9T 9123   5.142   1.656   6.463
   7023SM  C10S 9124   5.056   1.711   6.275
   7023SM  H10S 9125   5.127   1.641   6.226
   7023SM  H10T 9126   5.102   1.812   6.272
   7023SM  C11S 9127   4.926   1.710   6.194
   7023SM  H11S 9128   4.851   1.777   6.242
   7023SM  H11T 9129   4.885   1.607   6.195
   7023SM  C12S 9130   4.947   1.755   6.048
   7023SM  H12S 9131   5.035   1.701   6.007
   7023SM  H12T 9132   4.970   1.864   6.046
   7023SM  C13S 9133   4.826   1.724   5.960
   7023SM  H13S 9134   4.736   1.776   6.000
   7023SM  H13T 9135   4.807   1.615   5.964
   7023SM  C14S 9136   4.845   1.763   5.813
   7023SM  H14S 9137   4.939   1.716   5.776
   7023SM  H14T 9138   4.856   1.873   5.805
   7023SM  C15S 9139   4.728   1.716   5.725
   7023SM  H15S 9140   4.635   1.765   5.763
   7023SM  H15T 9141   4.714   1.607   5.736
   7023SM  C16S 9142   4.744   1.750   5.576
   7023SM  H16S 9143   4.766   1.858   5.565
   7023SM  H16T 9144   4.648   1.729   5.524
   7023SM  C17S 9145   4.852   1.668   5.505
   7023SM  H17S 9146   4.829   1.560   5.517
   7023SM  H17T 9147   4.951   1.686   5.552
   7023SM  C18S 9148   4.861   1.701   5.356
   7023SM  H18S 9149   4.931   1.633   5.304
   7023SM  H18T 9150   4.896   1.805   5.341
   7023SM  H18U 9151   4.761   1.691   5.307
   7023SM   C1F 9152   4.854   1.380   7.079
   7023SM    OF 9153   4.810   1.310   7.169
   7023SM   C2F 9154   4.916   1.319   6.956
   7023SM   H2F 9155   4.970   1.228   6.988
   7023SM   H2G 9156   4.989   1.390   6.912
   7023SM   C3F 9157   4.809   1.281   6.851
   7023SM   H3F 9158   4.735   1.212   6.897
   7023SM   H3G 9159   4.859   1.225   6.769
   7023SM   C4F 9160   4.735   1.402   6.790
   7023SM   H4F 9161   4.807   1.466   6.734
   7023SM   H4G 9162   4.692   1.463   6.872
   7023SM   C5F 9163   4.618   1.364   6.697
   7023SM   H5F 9164   4.558   1.456   6.677
   7023SM   H5G 9165   4.552   1.292   6.751
   7023SM   C6F 9166   4.661   1.303   6.563
   7023SM   H6F 9167   4.727   1.217   6.583
   7023SM   H6G 9168   4.719   1.377   6.504
   7023SM   C7F 9169   4.541   1.252   6.480
   7023SM   H7F 9170   4.476   1.193   6.548
   7023SM   H7G 9171   4.578   1.184   6.401
   7023SM   C8F 9172   4.455   1.362   6.415
   7023SM   H8F 9173   4.423   1.435   6.492
   7023SM   H8G 9174   4.363   1.313   6.375
   7023SM   C9F 9175   4.523   1.437   6.300
   7023SM   H9F 9176   4.613   1.489   6.338
   7023SM   H9G 9177   4.454   1.515   6.262
   7023SM  C10F 9178   4.565   1.348   6.181
   7023SM  H10F 9179   4.476   1.293   6.143
   7023SM  H10G 9180   4.639   1.273   6.215
   7023SM  C11F 9181   4.627   1.431   6.068
   7023SM  H11F 9182   4.710   1.489   6.113
   7023SM  H11G 9183   4.553   1.503   6.029
   7023SM  C12F 9184   4.684   1.347   5.952
   7023SM  H12F 9185   4.749   1.266   5.992
   7023SM  H12G 9186   4.748   1.415   5.891
   7023SM  C13F 9187   4.578   1.287   5.859
   7023SM  H13F 9188   4.487   1.351   5.863
   7023SM  H13G 9189   4.550   1.186   5.895
   7023SM  C14F 9190   4.624   1.279   5.712
   7023SM  H14F 9191   4.642   1.383   5.677
   7023SM  H14G 9192   4.541   1.238   5.651
   7023SM  C15F 9193   4.752   1.197   5.689
   7023SM  H15F 9194   4.729   1.089   5.699
   7023SM  H15G 9195   4.827   1.223   5.766
   7023SM  C16F 9196   4.815   1.224   5.551
   7023SM  H16F 9197   4.912   1.170   5.544
   7023SM  H16G 9198   4.836   1.332   5.543
   7023SM  C17F 9199   4.726   1.182   5.433
   7023SM  H17F 9200   4.622   1.215   5.450
   7023SM  H17G 9201   4.725   1.071   5.425
   7023SM  C18F 9202   4.772   1.243   5.300
   7023SM  H18F 9203   4.875   1.209   5.276
   7023SM  H18G 9204   4.775   1.354   5.312
   7023SM  C19F 9205   4.678   1.209   5.184
   7023SM  H19F 9206   4.573   1.228   5.215
   7023SM  H19G 9207   4.686   1.100   5.161
   7023SM  C20F 9208   4.707   1.290   5.058
   7023SM  H20F 9209   4.812   1.271   5.026
   7023SM  H20G 9210   4.698   1.398   5.082
   7023SM  C21F 9211   4.613   1.255   4.942
   7023SM  H21F 9212   4.508   1.274   4.974
   7023SM  H21G 9213   4.623   1.147   4.919
   7023SM  C22F 9214   4.641   1.336   4.814
   7023SM  H22F 9215   4.581   1.292   4.732
   7023SM  H22G 9216   4.748   1.324   4.788
   7023SM  C23F 9217   4.608   1.485   4.825
   7023SM  H23F 9218   4.626   1.535   4.727
   7023SM  H23G 9219   4.672   1.534   4.901
   7023SM  H23H 9220   4.502   1.499   4.854
   7123SM     N 9221   4.559   6.571   7.658
   7123SM   C15 9222   4.698   6.569   7.717
   7123SM  H15A 9223   4.747   6.661   7.691
   7123SM  H15B 9224   4.756   6.489   7.674
   7123SM  H15C 9225   4.695   6.558   7.824
   7123SM   C14 9226   4.493   6.440   7.683
   7123SM  H14A 9227   4.545   6.359   7.635
   7123SM  H14B 9228   4.391   6.441   7.647
   7123SM  H14C 9229   4.490   6.419   7.789
   7123SM   C13 9230   4.480   6.679   7.727
   7123SM  H13A 9231   4.527   6.775   7.710
   7123SM  H13B 9232   4.475   6.661   7.833
   7123SM  H13C 9233   4.380   6.684   7.688
   7123SM   C12 9234   4.570   6.601   7.509
   7123SM  H12A 9235   4.474   6.582   7.463
   7123SM  H12B 9236   4.641   6.533   7.464
   7123SM   C11 9237   4.613   6.744   7.469
   7123SM  H11A 9238   4.534   6.816   7.500
   7123SM  H11B 9239   4.619   6.747   7.358
   7123SM     P 9240   4.805   6.916   7.487
   7123SM   O13 9241   4.698   7.018   7.476
   7123SM   O14 9242   4.917   6.950   7.578
   7123SM   O11 9243   4.864   6.890   7.343
   7123SM   O12 9244   4.739   6.779   7.528
   7123SM   C1S 9245   4.910   6.763   7.297
   7123SM   H1S 9246   4.884   6.680   7.367
   7123SM   H1T 9247   5.020   6.764   7.289
   7123SM    NF 9248   4.870   6.596   7.113
   7123SM   HNF 9249   4.919   6.582   7.028
   7123SM   C2S 9250   4.849   6.733   7.156
   7123SM   H2S 9251   4.740   6.750   7.162
   7123SM   C3S 9252   4.909   6.836   7.056
   7123SM   H3S 9253   5.020   6.826   7.056
   7123SM    O3 9254   4.881   6.971   7.092
   7123SM   HO3 9255   4.869   6.965   7.187
   7123SM   C4S 9256   4.857   6.814   6.917
   7123SM   H4S 9257   4.748   6.811   6.908
   7123SM   C5S 9258   4.932   6.801   6.805
   7123SM   H5S 9259   5.041   6.810   6.811
   7123SM   C6S 9260   4.875   6.780   6.667
   7123SM   H6S 9261   4.766   6.758   6.672
   7123SM   H6T 9262   4.924   6.694   6.617
   7123SM   C7S 9263   4.891   6.905   6.578
   7123SM   H7S 9264   4.999   6.928   6.565
   7123SM   H7T 9265   4.844   6.993   6.628
   7123SM   C8S 9266   4.827   6.888   6.440
   7123SM   H8S 9267   4.719   6.864   6.452
   7123SM   H8T 9268   4.875   6.803   6.387
   7123SM   C9S 9269   4.840   7.015   6.353
   7123SM   H9S 9270   4.948   7.039   6.341
   7123SM   H9T 9271   4.791   7.100   6.405
   7123SM  C10S 9272   4.778   6.999   6.214
   7123SM  H10S 9273   4.671   6.974   6.225
   7123SM  H10T 9274   4.829   6.915   6.161
   7123SM  C11S 9275   4.790   7.127   6.130
   7123SM  H11S 9276   4.896   7.161   6.127
   7123SM  H11T 9277   4.732   7.206   6.181
   7123SM  C12S 9278   4.738   7.112   5.986
   7123SM  H12S 9279   4.718   7.214   5.947
   7123SM  H12T 9280   4.641   7.057   5.985
   7123SM  C13S 9281   4.835   7.044   5.889
   7123SM  H13S 9282   4.832   6.934   5.903
   7123SM  H13T 9283   4.939   7.078   5.914
   7123SM  C14S 9284   4.806   7.082   5.743
   7123SM  H14S 9285   4.801   7.192   5.735
   7123SM  H14T 9286   4.707   7.041   5.714
   7123SM  C15S 9287   4.914   7.033   5.645
   7123SM  H15S 9288   4.925   6.922   5.653
   7123SM  H15T 9289   5.011   7.078   5.674
   7123SM  C16S 9290   4.882   7.071   5.499
   7123SM  H16S 9291   4.975   7.061   5.438
   7123SM  H16T 9292   4.851   7.178   5.495
   7123SM  C17S 9293   4.774   6.983   5.435
   7123SM  H17S 9294   4.686   6.978   5.503
   7123SM  H17T 9295   4.814   6.880   5.424
   7123SM  C18S 9296   4.726   7.032   5.298
   7123SM  H18S 9297   4.813   7.047   5.230
   7123SM  H18T 9298   4.673   7.129   5.309
   7123SM  H18U 9299   4.657   6.959   5.252
   7123SM   C1F 9300   4.807   6.491   7.168
   7123SM    OF 9301   4.767   6.491   7.284
   7123SM   C2F 9302   4.788   6.373   7.078
   7123SM   H2F 9303   4.795   6.279   7.136
   7123SM   H2G 9304   4.868   6.373   7.001
   7123SM   C3F 9305   4.649   6.382   7.010
   7123SM   H3F 9306   4.629   6.484   6.972
   7123SM   H3G 9307   4.571   6.359   7.086
   7123SM   C4F 9308   4.632   6.284   6.893
   7123SM   H4F 9309   4.525   6.284   6.861
   7123SM   H4G 9310   4.654   6.181   6.928
   7123SM   C5F 9311   4.720   6.313   6.769
   7123SM   H5F 9312   4.697   6.235   6.693
   7123SM   H5G 9313   4.826   6.300   6.797
   7123SM   C6F 9314   4.701   6.451   6.705
   7123SM   H6F 9315   4.778   6.463   6.626
   7123SM   H6G 9316   4.719   6.531   6.780
   7123SM   C7F 9317   4.563   6.473   6.640
   7123SM   H7F 9318   4.483   6.457   6.716
   7123SM   H7G 9319   4.549   6.396   6.561
   7123SM   C8F 9320   4.549   6.613   6.579
   7123SM   H8F 9321   4.632   6.631   6.509
   7123SM   H8G 9322   4.558   6.687   6.662
   7123SM   C9F 9323   4.415   6.639   6.508
   7123SM   H9F 9324   4.409   6.746   6.480
   7123SM   H9G 9325   4.332   6.618   6.579
   7123SM  C10F 9326   4.391   6.554   6.381
   7123SM  H10F 9327   4.287   6.571   6.346
   7123SM  H10G 9328   4.400   6.447   6.408
   7123SM  C11F 9329   4.485   6.584   6.264
   7123SM  H11F 9330   4.483   6.497   6.194
   7123SM  H11G 9331   4.590   6.595   6.300
   7123SM  C12F 9332   4.444   6.709   6.184
   7123SM  H12F 9333   4.428   6.793   6.254
   7123SM  H12G 9334   4.348   6.690   6.132
   7123SM  C13F 9335   4.550   6.753   6.081
   7123SM  H13F 9336   4.641   6.781   6.138
   7123SM  H13G 9337   4.515   6.843   6.027
   7123SM  C14F 9338   4.593   6.645   5.981
   7123SM  H14F 9339   4.626   6.555   6.036
   7123SM  H14G 9340   4.683   6.684   5.928
   7123SM  C15F 9341   4.487   6.605   5.877
   7123SM  H15F 9342   4.397   6.569   5.930
   7123SM  H15G 9343   4.527   6.519   5.818
   7123SM  C16F 9344   4.446   6.714   5.777
   7123SM  H16F 9345   4.391   6.793   5.831
   7123SM  H16G 9346   4.376   6.668   5.704
   7123SM  C17F 9347   4.562   6.779   5.698
   7123SM  H17F 9348   4.623   6.841   5.768
   7123SM  H17G 9349   4.516   6.849   5.626
   7123SM  C18F 9350   4.653   6.683   5.620
   7123SM  H18F 9351   4.679   6.733   5.524
   7123SM  H18G 9352   4.599   6.590   5.593
   7123SM  C19F 9353   4.786   6.650   5.691
   7123SM  H19F 9354   4.774   6.561   5.755
   7123SM  H19G 9355   4.813   6.736   5.756
   7123SM  C20F 9356   4.905   6.630   5.595
   7123SM  H20F 9357   4.999   6.622   5.654
   7123SM  H20G 9358   4.914   6.721   5.532
   7123SM  C21F 9359   4.892   6.508   5.504
   7123SM  H21F 9360   4.785   6.480   5.493
   7123SM  H21G 9361   4.944   6.422   5.551
   7123SM  C22F 9362   4.949   6.534   5.364
   7123SM  H22F 9363   5.056   6.563   5.373
   7123SM  H22G 9364   4.895   6.620   5.319
   7123SM  C23F 9365   4.936   6.414   5.270
   7123SM  H23F 9366   5.000   6.330   5.305
   7123SM  H23G 9367   4.967   6.441   5.167
   7123SM  H23H 9368   4.831   6.378   5.267
   7223SM     N 9369   6.697   2.727   7.741
   7223SM   C15 9370   6.698   2.814   7.863
   7223SM  H15A 9371   6.599   2.824   7.905
   7223SM  H15B 9372   6.732   2.913   7.836
   7223SM  H15C 9373   6.765   2.776   7.939
   7223SM   C14 9374   6.836   2.717   7.687
   7223SM  H14A 9375   6.907   2.686   7.762
   7223SM  H14B 9376   6.865   2.815   7.650
   7223SM  H14C 9377   6.841   2.649   7.603
   7223SM   C13 9378   6.647   2.591   7.776
   7223SM  H13A 9379   6.644   2.528   7.689
   7223SM  H13B 9380   6.545   2.597   7.814
   7223SM  H13C 9381   6.709   2.544   7.851
   7223SM   C12 9382   6.606   2.789   7.636
   7223SM  H12A 9383   6.503   2.776   7.668
   7223SM  H12B 9384   6.617   2.734   7.544
   7223SM   C11 9385   6.627   2.939   7.603
   7223SM  H11A 9386   6.597   3.000   7.691
   7223SM  H11B 9387   6.557   2.965   7.520
   7223SM     P 9388   6.803   3.115   7.536
   7223SM   O13 9389   6.693   3.179   7.460
   7223SM   O14 9390   6.846   3.179   7.662
   7223SM   O11 9391   6.928   3.100   7.440
   7223SM   O12 9392   6.762   2.965   7.565
   7223SM   C1S 9393   6.938   2.992   7.346
   7223SM   H1S 9394   6.927   2.894   7.397
   7223SM   H1T 9395   7.039   2.993   7.301
   7223SM    NF 9396   6.864   2.884   7.138
   7223SM   HNF 9397   6.890   2.907   7.044
   7223SM   C2S 9398   6.839   2.999   7.225
   7223SM   H2S 9399   6.735   2.991   7.263
   7223SM   C3S 9400   6.852   3.135   7.148
   7223SM   H3S 9401   6.960   3.155   7.131
   7223SM    O3 9402   6.799   3.251   7.213
   7223SM   HO3 9403   6.768   3.223   7.300
   7223SM   C4S 9404   6.787   3.121   7.013
   7223SM   H4S 9405   6.859   3.128   6.931
   7223SM   C5S 9406   6.655   3.107   6.986
   7223SM   H5S 9407   6.583   3.109   7.069
   7223SM   C6S 9408   6.595   3.092   6.848
   7223SM   H6S 9409   6.522   3.174   6.831
   7223SM   H6T 9410   6.538   2.997   6.842
   7223SM   C7S 9411   6.697   3.094   6.733
   7223SM   H7S 9412   6.774   3.015   6.747
   7223SM   H7T 9413   6.749   3.192   6.735
   7223SM   C8S 9414   6.635   3.076   6.594
   7223SM   H8S 9415   6.534   3.122   6.590
   7223SM   H8T 9416   6.623   2.968   6.572
   7223SM   C9S 9417   6.724   3.143   6.488
   7223SM   H9S 9418   6.827   3.104   6.496
   7223SM   H9T 9419   6.727   3.252   6.509
   7223SM  C10S 9420   6.675   3.125   6.344
   7223SM  H10S 9421   6.569   3.156   6.335
   7223SM  H10T 9422   6.682   3.017   6.316
   7223SM  C11S 9423   6.760   3.210   6.249
   7223SM  H11S 9424   6.867   3.200   6.277
   7223SM  H11T 9425   6.731   3.316   6.261
   7223SM  C12S 9426   6.746   3.170   6.101
   7223SM  H12S 9427   6.640   3.180   6.069
   7223SM  H12T 9428   6.775   3.063   6.090
   7223SM  C13S 9429   6.836   3.256   6.011
   7223SM  H13S 9430   6.937   3.262   6.055
   7223SM  H13T 9431   6.795   3.359   6.007
   7223SM  C14S 9432   6.847   3.198   5.870
   7223SM  H14S 9433   6.744   3.185   5.828
   7223SM  H14T 9434   6.894   3.098   5.875
   7223SM  C15S 9435   6.927   3.287   5.775
   7223SM  H15S 9436   7.028   3.307   5.817
   7223SM  H15T 9437   6.875   3.385   5.764
   7223SM  C16S 9438   6.941   3.221   5.637
   7223SM  H16S 9439   6.841   3.182   5.608
   7223SM  H16T 9440   7.009   3.134   5.645
   7223SM  C17S 9441   6.990   3.315   5.527
   7223SM  H17S 9442   7.095   3.344   5.547
   7223SM  H17T 9443   6.928   3.407   5.529
   7223SM  C18S 9444   6.979   3.251   5.388
   7223SM  H18S 9445   7.047   3.163   5.380
   7223SM  H18T 9446   7.005   3.324   5.309
   7223SM  H18U 9447   6.875   3.216   5.370
   7223SM   C1F 9448   6.845   2.756   7.169
   7223SM    OF 9449   6.802   2.721   7.279
   7223SM   C2F 9450   6.875   2.654   7.063
   7223SM   H2F 9451   6.811   2.565   7.082
   7223SM   H2G 9452   6.981   2.621   7.073
   7223SM   C3F 9453   6.850   2.705   6.919
   7223SM   H3F 9454   6.918   2.789   6.895
   7223SM   H3G 9455   6.745   2.743   6.911
   7223SM   C4F 9456   6.868   2.594   6.815
   7223SM   H4F 9457   6.797   2.512   6.838
   7223SM   H4G 9458   6.970   2.551   6.823
   7223SM   C5F 9459   6.842   2.639   6.670
   7223SM   H5F 9460   6.741   2.685   6.663
   7223SM   H5G 9461   6.841   2.549   6.605
   7223SM   C6F 9462   6.946   2.736   6.611
   7223SM   H6F 9463   7.047   2.690   6.620
   7223SM   H6G 9464   6.945   2.832   6.667
   7223SM   C7F 9465   6.918   2.764   6.463
   7223SM   H7F 9466   6.819   2.814   6.454
   7223SM   H7G 9467   6.912   2.668   6.408
   7223SM   C8F 9468   7.024   2.852   6.395
   7223SM   H8F 9469   7.122   2.799   6.394
   7223SM   H8G 9470   7.036   2.946   6.453
   7223SM   C9F 9471   6.984   2.888   6.251
   7223SM   H9F 9472   6.885   2.937   6.256
   7223SM   H9G 9473   6.972   2.795   6.191
   7223SM  C10F 9474   7.081   2.985   6.181
   7223SM  H10F 9475   7.106   3.067   6.252
   7223SM  H10G 9476   7.029   3.031   6.095
   7223SM  C11F 9477   7.211   2.919   6.131
   7223SM  H11F 9478   7.261   2.868   6.217
   7223SM  H11G 9479   7.280   3.000   6.096
   7223SM  C12F 9480   7.194   2.818   6.016
   7223SM  H12F 9481   7.132   2.733   6.051
   7223SM  H12G 9482   7.294   2.778   5.990
   7223SM  C13F 9483   7.130   2.877   5.889
   7223SM  H13F 9484   7.183   2.971   5.863
   7223SM  H13G 9485   7.024   2.903   5.909
   7223SM  C14F 9486   7.138   2.781   5.770
   7223SM  H14F 9487   7.086   2.686   5.796
   7223SM  H14G 9488   7.245   2.756   5.753
   7223SM  C15F 9489   7.079   2.837   5.639
   7223SM  H15F 9490   7.116   2.775   5.555
   7223SM  H15G 9491   7.117   2.940   5.623
   7223SM  C16F 9492   6.925   2.836   5.636
   7223SM  H16F 9493   6.888   2.898   5.720
   7223SM  H16G 9494   6.889   2.732   5.652
   7223SM  C17F 9495   6.866   2.891   5.504
   7223SM  H17F 9496   6.907   2.994   5.489
   7223SM  H17G 9497   6.756   2.901   5.517
   7223SM  C18F 9498   6.896   2.810   5.377
   7223SM  H18F 9499   7.006   2.799   5.367
   7223SM  H18G 9500   6.861   2.868   5.289
   7223SM  C19F 9501   6.831   2.670   5.373
   7223SM  H19F 9502   6.857   2.617   5.467
   7223SM  H19G 9503   6.875   2.612   5.289
   7223SM  C20F 9504   6.678   2.673   5.357
   7223SM  H20F 9505   6.637   2.772   5.388
   7223SM  H20G 9506   6.634   2.598   5.425
   7223SM  C21F 9507   6.628   2.640   5.215
   7223SM  H21F 9508   6.517   2.633   5.217
   7223SM  H21G 9509   6.667   2.541   5.184
   7223SM  C22F 9510   6.668   2.745   5.109
   7223SM  H22F 9511   6.778   2.747   5.100
   7223SM  H22G 9512   6.635   2.845   5.143
   7223SM  C23F 9513   6.607   2.716   4.971
   7223SM  H23F 9514   6.496   2.718   4.977
   7223SM  H23G 9515   6.638   2.616   4.935
   7223SM  H23H 9516   6.640   2.792   4.897
   7323SM     N 9517   5.267   1.067   7.844
   7323SM   C15 9518   5.315   1.207   7.822
   7323SM  H15A 9519   5.367   1.246   7.909
   7323SM  H15B 9520   5.233   1.272   7.795
   7323SM  H15C 9521   5.381   1.209   7.737
   7323SM   C14 9522   5.385   0.982   7.878
   7323SM  H14A 9523   5.437   1.023   7.964
   7323SM  H14B 9524   5.454   0.979   7.795
   7323SM  H14C 9525   5.353   0.882   7.901
   7323SM   C13 9526   5.171   1.063   7.959
   7323SM  H13A 9527   5.215   1.105   8.048
   7323SM  H13B 9528   5.145   0.961   7.981
   7323SM  H13C 9529   5.079   1.116   7.937
   7323SM   C12 9530   5.196   1.013   7.720
   7323SM  H12A 9531   5.120   1.084   7.690
   7323SM  H12B 9532   5.141   0.925   7.750
   7323SM   C11 9533   5.279   0.975   7.595
   7323SM  H11A 9534   5.209   0.933   7.519
   7323SM  H11B 9535   5.348   0.893   7.622
   7323SM     P 9536   5.283   1.202   7.464
   7323SM   O13 9537   5.182   1.146   7.371
   7323SM   O14 9538   5.236   1.303   7.561
   7323SM   O11 9539   5.404   1.261   7.381
   7323SM   O12 9540   5.354   1.083   7.540
   7323SM   C1S 9541   5.481   1.180   7.291
   7323SM   H1S 9542   5.463   1.071   7.305
   7323SM   H1T 9543   5.590   1.196   7.311
   7323SM    NF 9544   5.506   1.120   7.050
   7323SM   HNF 9545   5.591   1.143   7.003
   7323SM   C2S 9546   5.452   1.219   7.143
   7323SM   H2S 9547   5.342   1.221   7.131
   7323SM   C3S 9548   5.509   1.362   7.117
   7323SM   H3S 9549   5.619   1.355   7.114
   7323SM    O3 9550   5.479   1.459   7.218
   7323SM   HO3 9551   5.441   1.407   7.289
   7323SM   C4S 9552   5.460   1.407   6.981
   7323SM   H4S 9553   5.531   1.384   6.901
   7323SM   C5S 9554   5.345   1.471   6.952
   7323SM   H5S 9555   5.276   1.497   7.035
   7323SM   C6S 9556   5.300   1.514   6.815
   7323SM   H6S 9557   5.290   1.625   6.811
   7323SM   H6T 9558   5.199   1.472   6.795
   7323SM   C7S 9559   5.391   1.471   6.698
   7323SM   H7S 9560   5.405   1.361   6.700
   7323SM   H7T 9561   5.491   1.519   6.711
   7323SM   C8S 9562   5.334   1.512   6.563
   7323SM   H8S 9563   5.324   1.623   6.563
   7323SM   H8T 9564   5.232   1.469   6.552
   7323SM   C9S 9565   5.417   1.471   6.440
   7323SM   H9S 9566   5.518   1.516   6.446
   7323SM   H9T 9567   5.367   1.513   6.350
   7323SM  C10S 9568   5.427   1.318   6.423
   7323SM  H10S 9569   5.325   1.276   6.422
   7323SM  H10T 9570   5.481   1.274   6.510
   7323SM  C11S 9571   5.498   1.274   6.294
   7323SM  H11S 9572   5.493   1.163   6.290
   7323SM  H11T 9573   5.606   1.301   6.298
   7323SM  C12S 9574   5.436   1.330   6.165
   7323SM  H12S 9575   5.477   1.432   6.146
   7323SM  H12T 9576   5.327   1.340   6.180
   7323SM  C13S 9577   5.459   1.241   6.042
   7323SM  H13S 9578   5.407   1.286   5.955
   7323SM  H13T 9579   5.412   1.142   6.062
   7323SM  C14S 9580   5.607   1.219   6.008
   7323SM  H14S 9581   5.662   1.188   6.100
   7323SM  H14T 9582   5.652   1.314   5.974
   7323SM  C15S 9583   5.628   1.109   5.903
   7323SM  H15S 9584   5.578   1.016   5.938
   7323SM  H15T 9585   5.737   1.088   5.896
   7323SM  C16S 9586   5.578   1.144   5.762
   7323SM  H16S 9587   5.641   1.226   5.721
   7323SM  H16T 9588   5.473   1.181   5.767
   7323SM  C17S 9589   5.584   1.024   5.667
   7323SM  H17S 9590   5.512   0.946   5.702
   7323SM  H17T 9591   5.685   0.981   5.672
   7323SM  C18S 9592   5.556   1.059   5.521
   7323SM  H18S 9593   5.633   1.128   5.482
   7323SM  H18T 9594   5.456   1.106   5.510
   7323SM  H18U 9595   5.559   0.967   5.459
   7323SM   C1F 9596   5.453   0.998   7.033
   7323SM    OF 9597   5.372   0.952   7.112
   7323SM   C2F 9598   5.499   0.921   6.912
   7323SM   H2F 9599   5.574   0.846   6.945
   7323SM   H2G 9600   5.549   0.991   6.841
   7323SM   C3F 9601   5.383   0.850   6.839
   7323SM   H3F 9602   5.342   0.769   6.903
   7323SM   H3G 9603   5.425   0.803   6.748
   7323SM   C4F 9604   5.267   0.943   6.797
   7323SM   H4F 9605   5.308   1.034   6.748
   7323SM   H4G 9606   5.214   0.977   6.889
   7323SM   C5F 9607   5.164   0.876   6.704
   7323SM   H5F 9608   5.066   0.925   6.717
   7323SM   H5G 9609   5.152   0.770   6.737
   7323SM   C6F 9610   5.202   0.880   6.555
   7323SM   H6F 9611   5.138   0.808   6.499
   7323SM   H6G 9612   5.307   0.845   6.545
   7323SM   C7F 9613   5.187   1.018   6.489
   7323SM   H7F 9614   5.240   1.015   6.391
   7323SM   H7G 9615   5.239   1.094   6.551
   7323SM   C8F 9616   5.042   1.062   6.465
   7323SM   H8F 9617   4.985   1.051   6.560
   7323SM   H8G 9618   4.995   0.996   6.389
   7323SM   C9F 9619   5.029   1.209   6.421
   7323SM   H9F 9620   5.085   1.271   6.494
   7323SM   H9G 9621   4.923   1.241   6.425
   7323SM  C10F 9622   5.083   1.238   6.279
   7323SM  H10F 9623   5.171   1.173   6.258
   7323SM  H10G 9624   5.119   1.343   6.276
   7323SM  C11F 9625   4.979   1.220   6.169
   7323SM  H11F 9626   4.903   1.301   6.180
   7323SM  H11G 9627   4.926   1.123   6.181
   7323SM  C12F 9628   5.039   1.227   6.028
   7323SM  H12F 9629   5.130   1.291   6.028
   7323SM  H12G 9630   4.966   1.275   5.959
   7323SM  C13F 9631   5.073   1.088   5.971
   7323SM  H13F 9632   4.980   1.027   5.971
   7323SM  H13G 9633   5.147   1.038   6.037
   7323SM  C14F 9634   5.127   1.093   5.827
   7323SM  H14F 9635   5.229   1.136   5.828
   7323SM  H14G 9636   5.063   1.159   5.766
   7323SM  C15F 9637   5.131   0.953   5.763
   7323SM  H15F 9638   5.027   0.915   5.753
   7323SM  H15G 9639   5.187   0.884   5.829
   7323SM  C16F 9640   5.197   0.954   5.624
   7323SM  H16F 9641   5.302   0.989   5.637
   7323SM  H16G 9642   5.146   1.026   5.557
   7323SM  C17F 9643   5.199   0.815   5.559
   7323SM  H17F 9644   5.097   0.792   5.519
   7323SM  H17G 9645   5.221   0.739   5.637
   7323SM  C18F 9646   5.304   0.799   5.448
   7323SM  H18F 9647   5.297   0.695   5.410
   7323SM  H18G 9648   5.405   0.810   5.492
   7323SM  C19F 9649   5.289   0.899   5.331
   7323SM  H19F 9650   5.297   1.001   5.374
   7323SM  H19G 9651   5.188   0.891   5.285
   7323SM  C20F 9652   5.398   0.887   5.222
   7323SM  H20F 9653   5.496   0.868   5.270
   7323SM  H20G 9654   5.404   0.986   5.172
   7323SM  C21F 9655   5.373   0.783   5.112
   7323SM  H21F 9656   5.453   0.796   5.035
   7323SM  H21G 9657   5.276   0.803   5.062
   7323SM  C22F 9658   5.377   0.637   5.159
   7323SM  H22F 9659   5.285   0.616   5.218
   7323SM  H22G 9660   5.464   0.624   5.228
   7323SM  C23F 9661   5.388   0.535   5.046
   7323SM  H23F 9662   5.480   0.552   4.986
   7323SM  H23G 9663   5.300   0.543   4.978
   7323SM  H23H 9664   5.391   0.432   5.086
   7423SM     N 9665   0.476   4.545   7.661
   7423SM   C15 9666   0.571   4.632   7.738
   7423SM  H15A 9667   0.619   4.704   7.673
   7423SM  H15B 9668   0.648   4.573   7.785
   7423SM  H15C 9669   0.520   4.687   7.815
   7423SM   C14 9670   0.415   4.443   7.752
   7423SM  H14A 9671   0.492   4.384   7.800
   7423SM  H14B 9672   0.357   4.373   7.694
   7423SM  H14C 9673   0.353   4.488   7.828
   7423SM   C13 9674   0.366   4.631   7.606
   7423SM  H13A 9675   0.295   4.571   7.551
   7423SM  H13B 9676   0.405   4.707   7.539
   7423SM  H13C 9677   0.313   4.681   7.685
   7423SM   C12 9678   0.550   4.475   7.549
   7423SM  H12A 9679   0.639   4.428   7.589
   7423SM  H12B 9680   0.585   4.549   7.478
   7423SM   C11 9681   0.474   4.363   7.473
   7423SM  H11A 9682   0.520   4.349   7.373
   7423SM  H11B 9683   0.369   4.394   7.455
   7423SM     P 9684   0.610   4.158   7.557
   7423SM   O13 9685   0.717   4.247   7.608
   7423SM   O14 9686   0.587   4.031   7.630
   7423SM   O11 9687   0.641   4.127   7.406
   7423SM   O12 9688   0.475   4.242   7.550
   7423SM   C1S 9689   0.543   4.068   7.320
   7423SM   H1S 9690   0.442   4.110   7.337
   7423SM   H1T 9691   0.537   3.958   7.338
   7423SM    NF 9692   0.478   4.050   7.077
   7423SM   HNF 9693   0.507   3.989   7.004
   7423SM   C2S 9694   0.583   4.091   7.171
   7423SM   H2S 9695   0.600   4.200   7.156
   7423SM   C3S 9696   0.718   4.017   7.145
   7423SM   H3S 9697   0.709   3.913   7.183
   7423SM    O3 9698   0.828   4.078   7.212
   7423SM   HO3 9699   0.788   4.121   7.287
   7423SM   C4S 9700   0.746   4.015   6.997
   7423SM   H4S 9701   0.773   4.112   6.952
   7423SM   C5S 9702   0.742   3.903   6.922
   7423SM   H5S 9703   0.729   3.806   6.972
   7423SM   C6S 9704   0.767   3.890   6.774
   7423SM   H6S 9705   0.677   3.848   6.725
   7423SM   H6T 9706   0.848   3.815   6.757
   7423SM   C7S 9707   0.806   4.019   6.702
   7423SM   H7S 9708   0.903   4.053   6.744
   7423SM   H7T 9709   0.729   4.098   6.721
   7423SM   C8S 9710   0.821   4.000   6.551
   7423SM   H8S 9711   0.876   3.905   6.531
   7423SM   H8T 9712   0.884   4.082   6.511
   7423SM   C9S 9713   0.689   4.002   6.474
   7423SM   H9S 9714   0.630   4.091   6.504
   7423SM   H9T 9715   0.630   3.911   6.498
   7423SM  C10S 9716   0.715   4.008   6.323
   7423SM  H10S 9717   0.769   3.915   6.292
   7423SM  H10T 9718   0.783   4.093   6.303
   7423SM  C11S 9719   0.590   4.024   6.236
   7423SM  H11S 9720   0.533   4.114   6.268
   7423SM  H11T 9721   0.525   3.935   6.248
   7423SM  C12S 9722   0.632   4.040   6.089
   7423SM  H12S 9723   0.692   3.950   6.062
   7423SM  H12T 9724   0.697   4.129   6.080
   7423SM  C13S 9725   0.518   4.053   5.989
   7423SM  H13S 9726   0.465   4.150   6.004
   7423SM  H13T 9727   0.444   3.972   6.004
   7423SM  C14S 9728   0.574   4.046   5.846
   7423SM  H14S 9729   0.630   3.951   5.836
   7423SM  H14T 9730   0.646   4.129   5.832
   7423SM  C15S 9731   0.469   4.051   5.735
   7423SM  H15S 9732   0.407   4.143   5.746
   7423SM  H15T 9733   0.400   3.964   5.747
   7423SM  C16S 9734   0.534   4.046   5.597
   7423SM  H16S 9735   0.603   3.959   5.593
   7423SM  H16T 9736   0.596   4.137   5.583
   7423SM  C17S 9737   0.434   4.034   5.482
   7423SM  H17S 9738   0.366   4.122   5.484
   7423SM  H17T 9739   0.372   3.943   5.498
   7423SM  C18S 9740   0.503   4.026   5.346
   7423SM  H18S 9741   0.573   3.940   5.343
   7423SM  H18T 9742   0.561   4.118   5.326
   7423SM  H18U 9743   0.428   4.013   5.264
   7423SM   C1F 9744   0.363   4.117   7.066
   7423SM    OF 9745   0.331   4.203   7.147
   7423SM   C2F 9746   0.277   4.086   6.947
   7423SM   H2F 9747   0.192   4.023   6.979
   7423SM   H2G 9748   0.337   4.030   6.872
   7423SM   C3F 9749   0.224   4.216   6.883
   7423SM   H3F 9750   0.308   4.280   6.850
   7423SM   H3G 9751   0.167   4.273   6.959
   7423SM   C4F 9752   0.129   4.191   6.764
   7423SM   H4F 9753   0.073   4.284   6.742
   7423SM   H4G 9754   0.054   4.114   6.792
   7423SM   C5F 9755   0.200   4.147   6.634
   7423SM   H5F 9756   0.121   4.132   6.556
   7423SM   H5G 9757   0.248   4.048   6.650
   7423SM   C6F 9758   0.304   4.246   6.578
   7423SM   H6F 9759   0.338   4.208   6.479
   7423SM   H6G 9760   0.393   4.247   6.645
   7423SM   C7F 9761   0.251   4.389   6.562
   7423SM   H7F 9762   0.226   4.429   6.663
   7423SM   H7G 9763   0.158   4.388   6.502
   7423SM   C8F 9764   0.353   4.486   6.498
   7423SM   H8F 9765   0.447   4.484   6.556
   7423SM   H8G 9766   0.311   4.589   6.504
   7423SM   C9F 9767   0.384   4.458   6.350
   7423SM   H9F 9768   0.436   4.360   6.339
   7423SM   H9G 9769   0.455   4.537   6.316
   7423SM  C10F 9770   0.260   4.460   6.259
   7423SM  H10F 9771   0.198   4.549   6.285
   7423SM  H10G 9772   0.199   4.370   6.280
   7423SM  C11F 9773   0.291   4.465   6.109
   7423SM  H11F 9774   0.195   4.457   6.054
   7423SM  H11G 9775   0.354   4.378   6.081
   7423SM  C12F 9776   0.361   4.596   6.066
   7423SM  H12F 9777   0.466   4.595   6.101
   7423SM  H12G 9778   0.309   4.680   6.116
   7423SM  C13F 9779   0.358   4.619   5.914
   7423SM  H13F 9780   0.403   4.718   5.892
   7423SM  H13G 9781   0.252   4.623   5.880
   7423SM  C14F 9782   0.433   4.511   5.835
   7423SM  H14F 9783   0.388   4.412   5.858
   7423SM  H14G 9784   0.539   4.509   5.868
   7423SM  C15F 9785   0.426   4.531   5.683
   7423SM  H15F 9786   0.472   4.629   5.656
   7423SM  H15G 9787   0.320   4.534   5.652
   7423SM  C16F 9788   0.499   4.418   5.610
   7423SM  H16F 9789   0.455   4.322   5.644
   7423SM  H16G 9790   0.606   4.418   5.640
   7423SM  C17F 9791   0.490   4.423   5.457
   7423SM  H17F 9792   0.546   4.336   5.417
   7423SM  H17G 9793   0.540   4.515   5.419
   7423SM  C18F 9794   0.346   4.416   5.404
   7423SM  H18F 9795   0.298   4.516   5.412
   7423SM  H18G 9796   0.289   4.345   5.467
   7423SM  C19F 9797   0.337   4.365   5.259
   7423SM  H19F 9798   0.231   4.354   5.229
   7423SM  H19G 9799   0.383   4.264   5.256
   7423SM  C20F 9800   0.409   4.455   5.157
   7423SM  H20F 9801   0.505   4.493   5.199
   7423SM  H20G 9802   0.345   4.544   5.137
   7423SM  C21F 9803   0.440   4.383   5.025
   7423SM  H21F 9804   0.461   4.459   4.947
   7423SM  H21G 9805   0.350   4.326   4.994
   7423SM  C22F 9806   0.561   4.288   5.036
   7423SM  H22F 9807   0.539   4.209   5.110
   7423SM  H22G 9808   0.647   4.347   5.075
   7423SM  C23F 9809   0.601   4.223   4.903
   7423SM  H23F 9810   0.622   4.301   4.827
   7423SM  H23G 9811   0.520   4.158   4.865
   7423SM  H23H 9812   0.692   4.161   4.917
   7523SM     N 9813   6.775   5.411   7.697
   7523SM   C15 9814   6.663   5.354   7.778
   7523SM  H15A 9815   6.599   5.293   7.716
   7523SM  H15B 9816   6.601   5.433   7.818
   7523SM  H15C 9817   6.698   5.293   7.860
   7523SM   C14 9818   6.853   5.300   7.634
   7523SM  H14A 9819   6.943   5.341   7.590
   7523SM  H14B 9820   6.797   5.252   7.555
   7523SM  H14C 9821   6.883   5.226   7.706
   7523SM   C13 9822   6.714   5.493   7.588
   7523SM  H13A 9823   6.650   5.571   7.628
   7523SM  H13B 9824   6.656   5.432   7.521
   7523SM  H13C 9825   6.793   5.541   7.531
   7523SM   C12 9826   6.867   5.498   7.781
   7523SM  H12A 9827   6.919   5.435   7.852
   7523SM  H12B 9828   6.808   5.568   7.838
   7523SM   C11 9829   6.975   5.580   7.705
   7523SM  H11A 9830   7.030   5.640   7.780
   7523SM  H11B 9831   6.925   5.652   7.637
   7523SM     P 9832   7.158   5.550   7.521
   7523SM   O13 9833   7.248   5.653   7.580
   7523SM   O14 9834   7.221   5.438   7.448
   7523SM   O11 9835   7.054   5.621   7.426
   7523SM   O12 9836   7.065   5.493   7.635
   7523SM   C1S 9837   6.956   5.548   7.351
   7523SM   H1S 9838   6.857   5.592   7.372
   7523SM   H1T 9839   6.951   5.440   7.377
   7523SM    NF 9840   7.037   5.444   7.142
   7523SM   HNF 9841   7.136   5.436   7.149
   7523SM   C2S 9842   6.974   5.563   7.196
   7523SM   H2S 9843   6.872   5.573   7.152
   7523SM   C3S 9844   7.051   5.694   7.166
   7523SM   H3S 9845   7.157   5.686   7.199
   7523SM    O3 9846   6.992   5.802   7.239
   7523SM   HO3 9847   7.002   5.768   7.328
   7523SM   C4S 9848   7.044   5.725   7.019
   7523SM   H4S 9849   6.970   5.801   6.991
   7523SM   C5S 9850   7.124   5.673   6.924
   7523SM   H5S 9851   7.203   5.601   6.952
   7523SM   C6S 9852   7.115   5.704   6.777
   7523SM   H6S 9853   7.217   5.726   6.738
   7523SM   H6T 9854   7.055   5.796   6.758
   7523SM   C7S 9855   7.052   5.589   6.696
   7523SM   H7S 9856   6.949   5.569   6.732
   7523SM   H7T 9857   7.111   5.496   6.712
   7523SM   C8S 9858   7.047   5.618   6.545
   7523SM   H8S 9859   7.150   5.641   6.511
   7523SM   H8T 9860   6.984   5.707   6.526
   7523SM   C9S 9861   6.994   5.499   6.463
   7523SM   H9S 9862   6.883   5.504   6.460
   7523SM   H9T 9863   7.022   5.404   6.515
   7523SM  C10S 9864   7.050   5.492   6.320
   7523SM  H10S 9865   7.006   5.404   6.268
   7523SM  H10T 9866   7.160   5.476   6.325
   7523SM  C11S 9867   7.023   5.617   6.235
   7523SM  H11S 9868   7.063   5.707   6.288
   7523SM  H11T 9869   6.913   5.631   6.225
   7523SM  C12S 9870   7.087   5.610   6.096
   7523SM  H12S 9871   7.051   5.520   6.043
   7523SM  H12T 9872   7.197   5.601   6.108
   7523SM  C13S 9873   7.056   5.735   6.011
   7523SM  H13S 9874   7.079   5.826   6.071
   7523SM  H13T 9875   6.947   5.736   5.988
   7523SM  C14S 9876   7.135   5.741   5.880
   7523SM  H14S 9877   7.117   5.648   5.822
   7523SM  H14T 9878   7.244   5.746   5.904
   7523SM  C15S 9879   7.097   5.862   5.794
   7523SM  H15S 9880   7.114   5.956   5.851
   7523SM  H15T 9881   6.988   5.857   5.771
   7523SM  C16S 9882   7.175   5.866   5.662
   7523SM  H16S 9883   7.163   5.768   5.611
   7523SM  H16T 9884   7.283   5.880   5.684
   7523SM  C17S 9885   7.130   5.976   5.565
   7523SM  H17S 9886   7.141   6.075   5.615
   7523SM  H17T 9887   7.022   5.961   5.543
   7523SM  C18S 9888   7.210   5.975   5.435
   7523SM  H18S 9889   7.316   6.001   5.454
   7523SM  H18T 9890   7.168   6.048   5.362
   7523SM  H18U 9891   7.207   5.874   5.388
   7523SM   C1F 9892   6.965   5.334   7.118
   7523SM    OF 9893   6.843   5.336   7.130
   7523SM   C2F 9894   7.040   5.209   7.082
   7523SM   H2F 9895   7.058   5.151   7.175
   7523SM   H2G 9896   7.139   5.237   7.039
   7523SM   C3F 9897   6.961   5.122   6.981
   7523SM   H3F 9898   6.938   5.180   6.889
   7523SM   H3G 9899   6.864   5.095   7.028
   7523SM   C4F 9900   7.031   4.991   6.942
   7523SM   H4F 9901   6.952   4.916   6.923
   7523SM   H4G 9902   7.090   4.954   7.028
   7523SM   C5F 9903   7.114   4.999   6.812
   7523SM   H5F 9904   7.042   5.026   6.731
   7523SM   H5G 9905   7.152   4.898   6.787
   7523SM   C6F 9906   7.229   5.100   6.810
   7523SM   H6F 9907   7.300   5.079   6.893
   7523SM   H6G 9908   7.189   5.203   6.825
   7523SM   C7F 9909   7.307   5.099   6.677
   7523SM   H7F 9910   7.325   4.994   6.646
   7523SM   H7G 9911   7.407   5.146   6.693
   7523SM   C8F 9912   7.233   5.176   6.566
   7523SM   H8F 9913   7.228   5.283   6.596
   7523SM   H8G 9914   7.129   5.140   6.560
   7523SM   C9F 9915   7.293   5.168   6.424
   7523SM   H9F 9916   7.244   5.247   6.364
   7523SM   H9G 9917   7.265   5.071   6.378
   7523SM  C10F 9918   7.446   5.184   6.412
   7523SM  H10F 9919   7.493   5.083   6.410
   7523SM  H10G 9920   7.485   5.236   6.502
   7523SM  C11F 9921   7.489   5.264   6.287
   7523SM  H11F 9922   7.599   5.271   6.284
   7523SM  H11G 9923   7.449   5.367   6.297
   7523SM  C12F 9924   7.438   5.207   6.153
   7523SM  H12F 9925   7.328   5.194   6.159
   7523SM  H12G 9926   7.483   5.106   6.136
   7523SM  C13F 9927   7.471   5.299   6.034
   7523SM  H13F 9928   7.580   5.299   6.018
   7523SM  H13G 9929   7.441   5.403   6.060
   7523SM  C14F 9930   7.399   5.260   5.904
   7523SM  H14F 9931   7.419   5.152   5.884
   7523SM  H14G 9932   7.443   5.315   5.818
   7523SM  C15F 9933   7.248   5.287   5.907
   7523SM  H15F 9934   7.229   5.393   5.937
   7523SM  H15G 9935   7.203   5.222   5.985
   7523SM  C16F 9936   7.176   5.260   5.774
   7523SM  H16F 9937   7.227   5.176   5.723
   7523SM  H16G 9938   7.185   5.348   5.707
   7523SM  C17F 9939   7.029   5.221   5.795
   7523SM  H17F 9940   6.970   5.309   5.829
   7523SM  H17G 9941   7.024   5.145   5.875
   7523SM  C18F 9942   6.963   5.159   5.670
   7523SM  H18F 9943   6.869   5.109   5.701
   7523SM  H18G 9944   7.030   5.081   5.629
   7523SM  C19F 9945   6.929   5.262   5.562
   7523SM  H19F 9946   7.020   5.320   5.535
   7523SM  H19G 9947   6.856   5.334   5.604
   7523SM  C20F 9948   6.870   5.201   5.434
   7523SM  H20F 9949   6.833   5.283   5.369
   7523SM  H20G 9950   6.783   5.137   5.460
   7523SM  C21F 9951   6.971   5.118   5.354
   7523SM  H21F 9952   6.998   5.026   5.411
   7523SM  H21G 9953   7.064   5.178   5.340
   7523SM  C22F 9954   6.918   5.077   5.215
   7523SM  H22F 9955   6.892   5.169   5.159
   7523SM  H22G 9956   6.825   5.018   5.228
   7523SM  C23F 9957   7.019   4.995   5.135
   7523SM  H23F 9958   6.979   4.972   5.033
   7523SM  H23G 9959   7.042   4.899   5.186
   7523SM  H23H 9960   7.115   5.050   5.124
   7623SM     N 9961   0.631   5.928   7.848
   7623SM   C15 9962   0.605   5.782   7.864
   7623SM  H15A 9963   0.552   5.745   7.778
   7623SM  H15B 9964   0.546   5.760   7.953
   7623SM  H15C 9965   0.697   5.726   7.869
   7623SM   C14 9966   0.501   6.002   7.863
   7623SM  H14A 9967   0.458   5.983   7.960
   7623SM  H14B 9968   0.431   5.971   7.787
   7623SM  H14C 9969   0.515   6.109   7.854
   7623SM   C13 9970   0.725   5.973   7.956
   7623SM  H13A 9971   0.819   5.920   7.949
   7623SM  H13B 9972   0.682   5.953   8.053
   7623SM  H13C 9973   0.745   6.079   7.950
   7623SM   C12 9974   0.692   5.955   7.711
   7623SM  H12A 9975   0.789   5.908   7.705
   7623SM  H12B 9976   0.709   6.061   7.699
   7623SM   C11 9977   0.611   5.906   7.587
   7623SM  H11A 9978   0.655   5.950   7.495
   7623SM  H11B 9979   0.507   5.947   7.593
   7623SM     P 9980   0.726   5.679   7.527
   7623SM   O13 9981   0.845   5.765   7.509
   7623SM   O14 9982   0.743   5.561   7.616
   7623SM   O11 9983   0.678   5.629   7.385
   7623SM   O12 9984   0.605   5.764   7.580
   7623SM   C1S 9985   0.569   5.698   7.321
   7623SM   H1S 9986   0.583   5.808   7.324
   7623SM   H1T 9987   0.474   5.675   7.373
   7623SM    NF 9988   0.517   5.520   7.160
   7623SM   HNF 9989   0.583   5.455   7.122
   7623SM   C2S 9990   0.556   5.659   7.171
   7623SM   H2S 9991   0.475   5.720   7.126
   7623SM   C3S 9992   0.688   5.693   7.096
   7623SM   H3S 9993   0.775   5.650   7.151
   7623SM    O3 9994   0.712   5.834   7.088
   7623SM   HO3 9995   0.652   5.873   7.152
   7623SM   C4S 9996   0.686   5.638   6.956
   7623SM   H4S 9997   0.623   5.695   6.885
   7623SM   C5S 9998   0.753   5.530   6.914
   7623SM   H5S 9999   0.815   5.474   6.986
   7623SM   C6S10000   0.752   5.473   6.775
   7623SM   H6S10001   0.661   5.410   6.762
   7623SM   H6T10002   0.838   5.403   6.765
   7623SM   C7S10003   0.760   5.571   6.657
   7623SM   H7S10004   0.853   5.631   6.664
   7623SM   H7T10005   0.674   5.641   6.659
   7623SM   C8S10006   0.759   5.495   6.523
   7623SM   H8S10007   0.664   5.438   6.517
   7623SM   H8T10008   0.841   5.420   6.523
   7623SM   C9S10009   0.772   5.582   6.398
   7623SM   H9S10010   0.867   5.640   6.401
   7623SM   H9T10011   0.689   5.656   6.396
   7623SM  C10S10012   0.767   5.496   6.271
   7623SM  H10S10013   0.676   5.432   6.274
   7623SM  H10T10014   0.855   5.428   6.272
   7623SM  C11S10015   0.766   5.575   6.139
   7623SM  H11S10016   0.852   5.645   6.136
   7623SM  H11T10017   0.673   5.635   6.132
   7623SM  C12S10018   0.773   5.480   6.019
   7623SM  H12S10019   0.693   5.404   6.029
   7623SM  H12T10020   0.871   5.427   6.022
   7623SM  C13S10021   0.757   5.549   5.882
   7623SM  H13S10022   0.801   5.651   5.886
   7623SM  H13T10023   0.649   5.559   5.861
   7623SM  C14S10024   0.826   5.471   5.769
   7623SM  H14S10025   0.805   5.363   5.780
   7623SM  H14T10026   0.935   5.486   5.778
   7623SM  C15S10027   0.783   5.513   5.628
   7623SM  H15S10028   0.787   5.624   5.618
   7623SM  H15T10029   0.678   5.481   5.612
   7623SM  C16S10030   0.873   5.451   5.520
   7623SM  H16S10031   0.880   5.341   5.537
   7623SM  H16T10032   0.976   5.492   5.532
   7623SM  C17S10033   0.825   5.476   5.376
   7623SM  H17S10034   0.908   5.449   5.307
   7623SM  H17T10035   0.805   5.584   5.363
   7623SM  C18S10036   0.701   5.395   5.337
   7623SM  H18S10037   0.673   5.415   5.232
   7623SM  H18T10038   0.615   5.421   5.402
   7623SM  H18U10039   0.721   5.286   5.348
   7623SM   C1F10040   0.396   5.477   7.194
   7623SM    OF10041   0.310   5.554   7.234
   7623SM   C2F10042   0.369   5.331   7.175
   7623SM   H2F10043   0.319   5.291   7.266
   7623SM   H2G10044   0.466   5.278   7.162
   7623SM   C3F10045   0.281   5.308   7.050
   7623SM   H3F10046   0.176   5.338   7.072
   7623SM   H3G10047   0.281   5.200   7.027
   7623SM   C4F10048   0.331   5.386   6.928
   7623SM   H4F10049   0.441   5.372   6.917
   7623SM   H4G10050   0.312   5.494   6.943
   7623SM   C5F10051   0.265   5.344   6.796
   7623SM   H5F10052   0.155   5.336   6.807
   7623SM   H5G10053   0.303   5.243   6.770
   7623SM   C6F10054   0.298   5.445   6.685
   7623SM   H6F10055   0.401   5.483   6.701
   7623SM   H6G10056   0.229   5.531   6.694
   7623SM   C7F10057   0.290   5.385   6.545
   7623SM   H7F10058   0.198   5.323   6.536
   7623SM   H7G10059   0.378   5.319   6.530
   7623SM   C8F10060   0.289   5.490   6.433
   7623SM   H8F10061   0.187   5.532   6.423
   7623SM   H8G10062   0.314   5.439   6.338
   7623SM   C9F10063   0.387   5.607   6.456
   7623SM   H9F10064   0.478   5.570   6.507
   7623SM   H9G10065   0.338   5.681   6.522
   7623SM  C10F10066   0.428   5.672   6.324
   7623SM  H10F10067   0.342   5.671   6.255
   7623SM  H10G10068   0.507   5.609   6.277
   7623SM  C11F10069   0.476   5.818   6.337
   7623SM  H11F10070   0.551   5.828   6.418
   7623SM  H11G10071   0.389   5.881   6.363
   7623SM  C12F10072   0.537   5.865   6.204
   7623SM  H12F10073   0.493   5.801   6.124
   7623SM  H12G10074   0.646   5.847   6.203
   7623SM  C13F10075   0.506   6.010   6.165
   7623SM  H13F10076   0.582   6.078   6.208
   7623SM  H13G10077   0.407   6.039   6.206
   7623SM  C14F10078   0.499   6.026   6.012
   7623SM  H14F10079   0.473   6.131   5.986
   7623SM  H14G10080   0.417   5.961   5.975
   7623SM  C15F10081   0.629   5.987   5.939
   7623SM  H15F10082   0.670   5.891   5.978
   7623SM  H15G10083   0.705   6.066   5.961
   7623SM  C16F10084   0.611   5.973   5.788
   7623SM  H16F10085   0.709   5.984   5.737
   7623SM  H16G10086   0.544   6.054   5.751
   7623SM  C17F10087   0.551   5.836   5.750
   7623SM  H17F10088   0.463   5.816   5.814
   7623SM  H17G10089   0.626   5.757   5.770
   7623SM  C18F10090   0.508   5.828   5.603
   7623SM  H18F10091   0.596   5.838   5.536
   7623SM  H18G10092   0.439   5.913   5.582
   7623SM  C19F10093   0.434   5.696   5.573
   7623SM  H19F10094   0.364   5.676   5.657
   7623SM  H19G10095   0.505   5.611   5.568
   7623SM  C20F10096   0.351   5.704   5.444
   7623SM  H20F10097   0.296   5.800   5.445
   7623SM  H20G10098   0.276   5.622   5.444
   7623SM  C21F10099   0.434   5.693   5.316
   7623SM  H21F10100   0.477   5.591   5.310
   7623SM  H21G10101   0.518   5.766   5.318
   7623SM  C22F10102   0.350   5.719   5.189
   7623SM  H22F10103   0.255   5.661   5.197
   7623SM  H22G10104   0.405   5.679   5.101
   7623SM  C23F10105   0.320   5.867   5.165
   7623SM  H23F10106   0.258   5.879   5.074
   7623SM  H23G10107   0.414   5.924   5.152
   7623SM  H23H10108   0.265   5.912   5.251
   7723SM     N10109   0.272   1.922   7.820
   7723SM   C1510110   0.328   1.802   7.749
   7723SM  H15A10111   0.249   1.736   7.717
   7723SM  H15B10112   0.395   1.747   7.812
   7723SM  H15C10113   0.384   1.834   7.662
   7723SM   C1410114   0.202   1.874   7.944
   7723SM  H14A10115   0.271   1.820   8.007
   7723SM  H14B10116   0.121   1.808   7.918
   7723SM  H14C10117   0.162   1.957   8.001
   7723SM   C1310118   0.386   2.012   7.856
   7723SM  H13A10119   0.465   1.959   7.907
   7723SM  H13B10120   0.353   2.096   7.916
   7723SM  H13C10121   0.426   2.054   7.765
   7723SM   C1210122   0.175   1.995   7.729
   7723SM  H12A10123   0.150   2.091   7.774
   7723SM  H12B10124   0.083   1.939   7.720
   7723SM   C1110125   0.223   2.026   7.585
   7723SM  H11A10126   0.143   2.082   7.533
   7723SM  H11B10127   0.236   1.929   7.532
   7723SM     P10128   0.448   2.107   7.470
   7723SM   O1310129   0.442   2.239   7.403
   7723SM   O1410130   0.579   2.069   7.528
   7723SM   O1110131   0.400   1.994   7.368
   7723SM   O1210132   0.342   2.104   7.586
   7723SM   C1S10133   0.291   2.020   7.278
   7723SM   H1S10134   0.223   2.099   7.317
   7723SM   H1T10135   0.229   1.928   7.269
   7723SM    NF10136   0.222   2.086   7.046
   7723SM   HNF10137   0.221   2.036   6.960
   7723SM   C2S10138   0.337   2.058   7.134
   7723SM   H2S10139   0.397   2.151   7.139
   7723SM   C3S10140   0.427   1.943   7.079
   7723SM   H3S10141   0.373   1.847   7.091
   7723SM    O310142   0.551   1.929   7.150
   7723SM   HO310143   0.538   1.984   7.228
   7723SM   C4S10144   0.461   1.964   6.933
   7723SM   H4S10145   0.522   2.053   6.913
   7723SM   C5S10146   0.425   1.881   6.833
   7723SM   H5S10147   0.369   1.790   6.857
   7723SM   C6S10148   0.456   1.896   6.686
   7723SM   H6S10149   0.361   1.888   6.628
   7723SM   H6T10150   0.518   1.810   6.654
   7723SM   C7S10151   0.526   2.026   6.639
   7723SM   H7S10152   0.622   2.040   6.693
   7723SM   H7T10153   0.459   2.111   6.664
   7723SM   C8S10154   0.553   2.029   6.487
   7723SM   H8S10155   0.577   2.133   6.456
   7723SM   H8T10156   0.460   1.999   6.435
   7723SM   C9S10157   0.669   1.937   6.443
   7723SM   H9S10158   0.678   1.855   6.517
   7723SM   H9T10159   0.765   1.993   6.445
   7723SM  C10S10160   0.646   1.871   6.306
   7723SM  H10S10161   0.539   1.841   6.298
   7723SM  H10T10162   0.707   1.779   6.301
   7723SM  C11S10163   0.680   1.958   6.185
   7723SM  H11S10164   0.789   1.980   6.186
   7723SM  H11T10165   0.626   2.055   6.190
   7723SM  C12S10166   0.644   1.886   6.054
   7723SM  H12S10167   0.533   1.877   6.047
   7723SM  H12T10168   0.686   1.783   6.056
   7723SM  C13S10169   0.696   1.958   5.929
   7723SM  H13S10170   0.807   1.965   5.936
   7723SM  H13T10171   0.655   2.062   5.929
   7723SM  C14S10172   0.659   1.888   5.798
   7723SM  H14S10173   0.548   1.886   5.787
   7723SM  H14T10174   0.694   1.783   5.802
   7723SM  C15S10175   0.722   1.957   5.676
   7723SM  H15S10176   0.832   1.963   5.691
   7723SM  H15T10177   0.684   2.062   5.668
   7723SM  C16S10178   0.693   1.882   5.546
   7723SM  H16S10179   0.584   1.886   5.525
   7723SM  H16T10180   0.722   1.776   5.559
   7723SM  C17S10181   0.769   1.938   5.426
   7723SM  H17S10182   0.878   1.936   5.449
   7723SM  H17T10183   0.740   2.044   5.410
   7723SM  C18S10184   0.744   1.859   5.297
   7723SM  H18S10185   0.808   1.897   5.215
   7723SM  H18T10186   0.637   1.868   5.267
   7723SM  H18U10187   0.767   1.752   5.314
   7723SM   C1F10188   0.133   2.185   7.064
   7723SM    OF10189   0.103   2.231   7.173
   7723SM   C2F10190   0.065   2.236   6.941
   7723SM   H2F10191  -0.040   2.262   6.967
   7723SM   H2G10192   0.064   2.156   6.864
   7723SM   C3F10193   0.136   2.363   6.889
   7723SM   H3F10194   0.241   2.337   6.865
   7723SM   H3G10195   0.138   2.440   6.969
   7723SM   C4F10196   0.071   2.423   6.763
   7723SM   H4F10197   0.135   2.506   6.726
   7723SM   H4G10198  -0.029   2.465   6.788
   7723SM   C5F10199   0.055   2.320   6.650
   7723SM   H5F10200  -0.025   2.249   6.678
   7723SM   H5G10201   0.150   2.263   6.639
   7723SM   C6F10202   0.019   2.384   6.515
   7723SM   H6F10203   0.108   2.438   6.477
   7723SM   H6G10204  -0.062   2.459   6.529
   7723SM   C7F10205  -0.028   2.281   6.410
   7723SM   H7F10206  -0.021   2.327   6.309
   7723SM   H7G10207  -0.135   2.258   6.428
   7723SM   C8F10208   0.051   2.149   6.412
   7723SM   H8F10209   0.036   2.098   6.509
   7723SM   H8G10210   0.159   2.170   6.401
   7723SM   C9F10211   0.007   2.053   6.301
   7723SM   H9F10212   0.030   2.099   6.203
   7723SM   H9G10213  -0.103   2.037   6.306
   7723SM  C10F10214   0.077   1.917   6.313
   7723SM  H10F10215   0.049   1.871   6.410
   7723SM  H10G10216   0.187   1.932   6.315
   7723SM  C11F10217   0.042   1.819   6.200
   7723SM  H11F10218  -0.068   1.810   6.192
   7723SM  H11G10219   0.083   1.719   6.226
   7723SM  C12F10220   0.102   1.861   6.065
   7723SM  H12F10221   0.211   1.874   6.075
   7723SM  H12G10222   0.058   1.959   6.035
   7723SM  C13F10223   0.073   1.760   5.954
   7723SM  H13F10224  -0.037   1.746   5.948
   7723SM  H13G10225   0.117   1.662   5.980
   7723SM  C14F10226   0.124   1.805   5.817
   7723SM  H14F10227   0.235   1.818   5.819
   7723SM  H14G10228   0.080   1.903   5.792
   7723SM  C15F10229   0.085   1.704   5.708
   7723SM  H15F10230  -0.020   1.673   5.727
   7723SM  H15G10231   0.147   1.612   5.718
   7723SM  C16F10232   0.090   1.756   5.563
   7723SM  H16F10233   0.002   1.820   5.544
   7723SM  H16G10234   0.081   1.667   5.498
   7723SM  C17F10235   0.217   1.833   5.523
   7723SM  H17F10236   0.303   1.800   5.584
   7723SM  H17G10237   0.201   1.941   5.542
   7723SM  C18F10238   0.249   1.809   5.374
   7723SM  H18F10239   0.154   1.809   5.316
   7723SM  H18G10240   0.293   1.708   5.364
   7723SM  C19F10241   0.346   1.912   5.313
   7723SM  H19F10242   0.413   1.861   5.242
   7723SM  H19G10243   0.409   1.955   5.394
   7723SM  C20F10244   0.274   2.026   5.238
   7723SM  H20F10245   0.345   2.110   5.221
   7723SM  H20G10246   0.192   2.064   5.303
   7723SM  C21F10247   0.214   1.984   5.103
   7723SM  H21F10248   0.137   2.059   5.074
   7723SM  H21G10249   0.163   1.886   5.111
   7723SM  C22F10250   0.318   1.978   4.990
   7723SM  H22F10251   0.396   1.903   5.016
   7723SM  H22G10252   0.368   2.077   4.983
   7723SM  C23F10253   0.258   1.945   4.853
   7723SM  H23F10254   0.206   1.847   4.857
   7723SM  H23G10255   0.337   1.940   4.776
   7723SM  H23H10256   0.185   2.023   4.824
   7823SM     N10257   1.274   7.121   7.792
   7823SM   C1510258   1.396   7.046   7.747
   7823SM  H15A10259   1.394   7.035   7.640
   7823SM  H15B10260   1.398   6.946   7.788
   7823SM  H15C10261   1.487   7.099   7.774
   7823SM   C1410262   1.153   7.049   7.742
   7823SM  H14A10263   1.151   7.056   7.634
   7823SM  H14B10264   1.062   7.093   7.779
   7823SM  H14C10265   1.157   6.944   7.768
   7823SM   C1310266   1.272   7.125   7.941
   7823SM  H13A10267   1.264   7.025   7.982
   7823SM  H13B10268   1.189   7.184   7.978
   7823SM  H13C10269   1.364   7.167   7.980
   7823SM   C1210270   1.280   7.261   7.733
   7823SM  H12A10271   1.360   7.315   7.782
   7823SM  H12B10272   1.189   7.314   7.756
   7823SM   C1110273   1.305   7.275   7.580
   7823SM  H11A10274   1.408   7.239   7.558
   7823SM  H11B10275   1.304   7.383   7.555
   7823SM     P10276   1.243   7.105   7.389
   7823SM   O1310277   1.300   6.985   7.455
   7823SM   O1410278   1.127   7.083   7.300
   7823SM   O1110279   1.359   7.176   7.308
   7823SM   O1210280   1.205   7.209   7.501
   7823SM   C1S10281   1.347   7.313   7.264
   7823SM   H1S10282   1.443   7.365   7.288
   7823SM   H1T10283   1.267   7.369   7.315
   7823SM    NF10284   1.186   7.306   7.076
   7823SM   HNF10285   1.164   7.215   7.041
   7823SM   C2S10286   1.326   7.326   7.109
   7823SM   H2S10287   1.353   7.430   7.081
   7823SM   C3S10288   1.418   7.227   7.033
   7823SM   H3S10289   1.390   7.122   7.055
   7823SM    O310290   1.558   7.238   7.063
   7823SM   HO310291   1.576   7.332   7.068
   7823SM   C4S10292   1.403   7.254   6.886
   7823SM   H4S10293   1.446   7.350   6.854
   7823SM   C5S10294   1.342   7.174   6.795
   7823SM   H5S10295   1.296   7.080   6.829
   7823SM   C6S10296   1.327   7.205   6.648
   7823SM   H6S10297   1.220   7.197   6.621
   7823SM   H6T10298   1.380   7.128   6.588
   7823SM   C7S10299   1.375   7.344   6.603
   7823SM   H7S10300   1.484   7.356   6.622
   7823SM   H7T10301   1.324   7.422   6.664
   7823SM   C8S10302   1.347   7.375   6.455
   7823SM   H8S10303   1.238   7.362   6.437
   7823SM   H8T10304   1.401   7.305   6.388
   7823SM   C9S10305   1.386   7.519   6.420
   7823SM   H9S10306   1.497   7.527   6.421
   7823SM   H9T10307   1.347   7.586   6.499
   7823SM  C10S10308   1.332   7.570   6.285
   7823SM  H10S10309   1.366   7.675   6.273
   7823SM  H10T10310   1.221   7.571   6.286
   7823SM  C11S10311   1.380   7.494   6.161
   7823SM  H11S10312   1.333   7.393   6.157
   7823SM  H11T10313   1.490   7.480   6.168
   7823SM  C12S10314   1.349   7.572   6.032
   7823SM  H12S10315   1.386   7.675   6.044
   7823SM  H12T10316   1.239   7.577   6.018
   7823SM  C13S10317   1.414   7.512   5.907
   7823SM  H13S10318   1.371   7.411   5.886
   7823SM  H13T10319   1.522   7.499   5.926
   7823SM  C14S10320   1.395   7.602   5.784
   7823SM  H14S10321   1.432   7.704   5.809
   7823SM  H14T10322   1.287   7.611   5.761
   7823SM  C15S10323   1.471   7.552   5.659
   7823SM  H15S10324   1.532   7.463   5.684
   7823SM  H15T10325   1.541   7.632   5.627
   7823SM  C16S10326   1.379   7.520   5.540
   7823SM  H16S10327   1.442   7.508   5.449
   7823SM  H16T10328   1.310   7.605   5.522
   7823SM  C17S10329   1.298   7.391   5.558
   7823SM  H17S10330   1.242   7.396   5.654
   7823SM  H17T10331   1.369   7.306   5.566
   7823SM  C18S10332   1.200   7.365   5.444
   7823SM  H18S10333   1.148   7.267   5.457
   7823SM  H18T10334   1.254   7.363   5.346
   7823SM  H18U10335   1.123   7.445   5.439
   7823SM   C1F10336   1.085   7.387   7.104
   7823SM    OF10337   1.099   7.493   7.164
   7823SM   C2F10338   0.950   7.337   7.062
   7823SM   H2F10339   0.890   7.316   7.153
   7823SM   H2G10340   0.962   7.241   7.007
   7823SM   C3F10341   0.876   7.437   6.970
   7823SM   H3F10342   0.855   7.531   7.024
   7823SM   H3G10343   0.779   7.392   6.941
   7823SM   C4F10344   0.955   7.469   6.841
   7823SM   H4F10345   0.981   7.374   6.789
   7823SM   H4G10346   1.050   7.520   6.868
   7823SM   C5F10347   0.876   7.560   6.745
   7823SM   H5F10348   0.835   7.645   6.803
   7823SM   H5G10349   0.791   7.503   6.702
   7823SM   C6F10350   0.964   7.616   6.632
   7823SM   H6F10351   1.049   7.671   6.678
   7823SM   H6G10352   0.905   7.690   6.574
   7823SM   C7F10353   1.020   7.511   6.535
   7823SM   H7F10354   1.073   7.431   6.590
   7823SM   H7G10355   1.095   7.562   6.471
   7823SM   C8F10356   0.914   7.449   6.442
   7823SM   H8F10357   0.855   7.533   6.399
   7823SM   H8G10358   0.844   7.385   6.501
   7823SM   C9F10359   0.974   7.368   6.326
   7823SM   H9F10360   1.066   7.418   6.290
   7823SM   H9G10361   0.902   7.367   6.241
   7823SM  C10F10362   1.004   7.221   6.362
   7823SM  H10F10363   0.909   7.167   6.378
   7823SM  H10G10364   1.061   7.218   6.458
   7823SM  C11F10365   1.087   7.152   6.253
   7823SM  H11F10366   1.182   7.208   6.241
   7823SM  H11G10367   1.032   7.157   6.157
   7823SM  C12F10368   1.120   7.006   6.286
   7823SM  H12F10369   1.028   6.944   6.288
   7823SM  H12G10370   1.163   7.004   6.389
   7823SM  C13F10371   1.224   6.944   6.191
   7823SM  H13F10372   1.291   6.879   6.251
   7823SM  H13G10373   1.286   7.025   6.146
   7823SM  C14F10374   1.166   6.856   6.078
   7823SM  H14F10375   1.108   6.773   6.124
   7823SM  H14G10376   1.251   6.809   6.023
   7823SM  C15F10377   1.078   6.928   5.975
   7823SM  H15F10378   1.141   6.999   5.916
   7823SM  H15G10379   0.999   6.986   6.026
   7823SM  C16F10380   1.011   6.827   5.880
   7823SM  H16F10381   0.938   6.768   5.940
   7823SM  H16G10382   1.086   6.755   5.843
   7823SM  C17F10383   0.935   6.892   5.763
   7823SM  H17F10384   0.893   6.989   5.796
   7823SM  H17G10385   0.850   6.826   5.737
   7823SM  C18F10386   1.019   6.911   5.635
   7823SM  H18F10387   1.101   6.984   5.653
   7823SM  H18G10388   0.952   6.953   5.557
   7823SM  C19F10389   1.078   6.779   5.583
   7823SM  H19F10390   1.008   6.696   5.609
   7823SM  H19G10391   1.174   6.758   5.634
   7823SM  C20F10392   1.098   6.775   5.431
   7823SM  H20F10393   1.169   6.855   5.400
   7823SM  H20G10394   1.001   6.795   5.381
   7823SM  C21F10395   1.150   6.638   5.386
   7823SM  H21F10396   1.081   6.559   5.422
   7823SM  H21G10397   1.250   6.619   5.432
   7823SM  C22F10398   1.163   6.626   5.233
   7823SM  H22F10399   1.233   6.704   5.197
   7823SM  H22G10400   1.064   6.646   5.187
   7823SM  C23F10401   1.212   6.488   5.188
   7823SM  H23F10402   1.143   6.408   5.222
   7823SM  H23G10403   1.313   6.467   5.229
   7823SM  H23H10404   1.218   6.484   5.077
   7923SM     N10405   6.918   0.535   7.787
   7923SM   C1510406   6.877   0.676   7.818
   7923SM  H15A10407   6.797   0.678   7.891
   7923SM  H15B10408   6.843   0.726   7.729
   7923SM  H15C10409   6.957   0.737   7.859
   7923SM   C1410410   7.013   0.529   7.671
   7923SM  H14A10411   7.044   0.427   7.654
   7923SM  H14B10412   7.102   0.589   7.682
   7923SM  H14C10413   6.961   0.559   7.582
   7923SM   C1310414   6.981   0.468   7.906
   7923SM  H13A10415   7.000   0.364   7.883
   7923SM  H13B10416   6.916   0.468   7.993
   7923SM  H13C10417   7.075   0.511   7.936
   7923SM   C1210418   6.793   0.456   7.748
   7923SM  H12A10419   6.725   0.453   7.832
   7923SM  H12B10420   6.822   0.354   7.729
   7923SM   C1110421   6.716   0.503   7.621
   7923SM  H11A10422   6.696   0.612   7.627
   7923SM  H11B10423   6.617   0.453   7.619
   7923SM     P10424   6.789   0.328   7.443
   7923SM   O1310425   6.791   0.234   7.557
   7923SM   O1410426   6.678   0.319   7.345
   7923SM   O1110427   6.928   0.317   7.367
   7923SM   O1210428   6.791   0.476   7.502
   7923SM   C1S10429   6.998   0.427   7.310
   7923SM   H1S10430   7.107   0.409   7.320
   7923SM   H1T10431   6.979   0.523   7.363
   7923SM    NF10432   6.831   0.492   7.144
   7923SM   HNF10433   6.762   0.421   7.151
   7923SM   C2S10434   6.969   0.447   7.157
   7923SM   H2S10435   7.036   0.525   7.118
   7923SM   C3S10436   6.999   0.315   7.080
   7923SM   H3S10437   6.942   0.231   7.125
   7923SM    O310438   7.137   0.275   7.081
   7923SM   HO310439   7.183   0.343   7.131
   7923SM   C4S10440   6.952   0.330   6.937
   7923SM   H4S10441   6.855   0.280   6.917
   7923SM   C5S10442   7.013   0.394   6.835
   7923SM   H5S10443   7.110   0.443   6.852
   7923SM   C6S10444   6.958   0.404   6.695
   7923SM   H6S10445   6.895   0.495   6.686
   7923SM   H6T10446   6.892   0.318   6.671
   7923SM   C7S10447   7.068   0.413   6.587
   7923SM   H7S10448   7.123   0.316   6.583
   7923SM   H7T10449   7.140   0.493   6.613
   7923SM   C8S10450   7.009   0.444   6.448
   7923SM   H8S10451   6.956   0.541   6.454
   7923SM   H8T10452   6.934   0.367   6.422
   7923SM   C9S10453   7.115   0.451   6.337
   7923SM   H9S10454   7.157   0.350   6.320
   7923SM   H9T10455   7.198   0.518   6.368
   7923SM  C10S10456   7.055   0.504   6.206
   7923SM  H10S10457   7.022   0.609   6.222
   7923SM  H10T10458   6.965   0.444   6.181
   7923SM  C11S10459   7.151   0.503   6.086
   7923SM  H11S10460   7.178   0.398   6.063
   7923SM  H11T10461   7.244   0.556   6.114
   7923SM  C12S10462   7.092   0.570   5.960
   7923SM  H12S10463   7.167   0.566   5.879
   7923SM  H12T10464   7.072   0.677   5.982
   7923SM  C13S10465   6.962   0.505   5.911
   7923SM  H13S10466   6.883   0.517   5.988
   7923SM  H13T10467   6.980   0.396   5.897
   7923SM  C14S10468   6.910   0.564   5.779
   7923SM  H14S10469   6.984   0.542   5.699
   7923SM  H14T10470   6.904   0.675   5.791
   7923SM  C15S10471   6.773   0.512   5.733
   7923SM  H15S10472   6.701   0.511   5.818
   7923SM  H15T10473   6.786   0.407   5.698
   7923SM  C16S10474   6.715   0.596   5.618
   7923SM  H16S10475   6.799   0.633   5.555
   7923SM  H16T10476   6.663   0.685   5.660
   7923SM  C17S10477   6.621   0.516   5.527
   7923SM  H17S10478   6.538   0.475   5.588
   7923SM  H17T10479   6.677   0.430   5.485
   7923SM  C18S10480   6.565   0.600   5.413
   7923SM  H18S10481   6.647   0.643   5.352
   7923SM  H18T10482   6.504   0.684   5.453
   7923SM  H18U10483   6.500   0.539   5.346
   7923SM   C1F10484   6.797   0.617   7.175
   7923SM    OF10485   6.883   0.701   7.198
   7923SM   C2F10486   6.651   0.647   7.188
   7923SM   H2F10487   6.629   0.666   7.295
   7923SM   H2G10488   6.593   0.558   7.156
   7923SM   C3F10489   6.610   0.771   7.104
   7923SM   H3F10490   6.668   0.860   7.139
   7923SM   H3G10491   6.503   0.792   7.123
   7923SM   C4F10492   6.631   0.757   6.952
   7923SM   H4F10493   6.738   0.737   6.930
   7923SM   H4G10494   6.605   0.854   6.905
   7923SM   C5F10495   6.544   0.647   6.888
   7923SM   H5F10496   6.438   0.667   6.911
   7923SM   H5G10497   6.571   0.548   6.931
   7923SM   C6F10498   6.561   0.640   6.735
   7923SM   H6F10499   6.666   0.613   6.711
   7923SM   H6G10500   6.540   0.739   6.690
   7923SM   C7F10501   6.466   0.536   6.673
   7923SM   H7F10502   6.362   0.570   6.690
   7923SM   H7G10503   6.478   0.439   6.727
   7923SM   C8F10504   6.487   0.511   6.523
   7923SM   H8F10505   6.488   0.607   6.467
   7923SM   H8G10506   6.399   0.453   6.487
   7923SM   C9F10507   6.613   0.430   6.491
   7923SM   H9F10508   6.638   0.367   6.579
   7923SM   H9G10509   6.699   0.498   6.474
   7923SM  C10F10510   6.596   0.334   6.371
   7923SM  H10F10511   6.512   0.265   6.394
   7923SM  H10G10512   6.688   0.273   6.361
   7923SM  C11F10513   6.566   0.404   6.237
   7923SM  H11F10514   6.655   0.463   6.206
   7923SM  H11G10515   6.482   0.476   6.252
   7923SM  C12F10516   6.525   0.306   6.125
   7923SM  H12F10517   6.504   0.365   6.033
   7923SM  H12G10518   6.430   0.257   6.155
   7923SM  C13F10519   6.628   0.197   6.092
   7923SM  H13F10520   6.590   0.135   6.008
   7923SM  H13G10521   6.641   0.130   6.180
   7923SM  C14F10522   6.765   0.254   6.052
   7923SM  H14F10523   6.809   0.301   6.142
   7923SM  H14G10524   6.750   0.334   5.976
   7923SM  C15F10525   6.863   0.150   5.997
   7923SM  H15F10526   6.843   0.051   6.044
   7923SM  H15G10527   6.965   0.181   6.026
   7923SM  C16F10528   6.861   0.138   5.843
   7923SM  H16F10529   6.865   0.241   5.801
   7923SM  H16G10530   6.765   0.092   5.809
   7923SM  C17F10531   6.980   0.059   5.787
   7923SM  H17F10532   6.963  -0.048   5.807
   7923SM  H17G10533   7.073   0.090   5.840
   7923SM  C18F10534   7.002   0.078   5.636
   7923SM  H18F10535   6.906   0.061   5.583
   7923SM  H18G10536   7.074   0.000   5.602
   7923SM  C19F10537   7.060   0.215   5.596
   7923SM  H19F10538   7.152   0.232   5.654
   7923SM  H19G10539   6.988   0.296   5.621
   7923SM  C20F10540   7.094   0.223   5.446
   7923SM  H20F10541   7.154   0.133   5.419
   7923SM  H20G10542   7.159   0.312   5.428
   7923SM  C21F10543   6.972   0.232   5.354
   7923SM  H21F10544   6.929   0.334   5.361
   7923SM  H21G10545   6.894   0.161   5.389
   7923SM  C22F10546   7.002   0.199   5.207
   7923SM  H22F10547   6.908   0.206   5.148
   7923SM  H22G10548   7.037   0.093   5.201
   7923SM  C23F10549   7.108   0.289   5.141
   7923SM  H23F10550   7.121   0.262   5.034
   7923SM  H23G10551   7.206   0.279   5.193
   7923SM  H23H10552   7.075   0.395   5.147
   8023SM     N10553   0.602   0.519   7.758
   8023SM   C1510554   0.729   0.561   7.825
   8023SM  H15A10555   0.754   0.493   7.905
   8023SM  H15B10556   0.721   0.660   7.866
   8023SM  H15C10557   0.811   0.559   7.755
   8023SM   C1410558   0.620   0.381   7.702
   8023SM  H14A10559   0.702   0.378   7.632
   8023SM  H14B10560   0.531   0.353   7.648
   8023SM  H14C10561   0.637   0.307   7.780
   8023SM   C1310562   0.491   0.517   7.859
   8023SM  H13A10563   0.504   0.437   7.930
   8023SM  H13B10564   0.396   0.501   7.809
   8023SM  H13C10565   0.485   0.610   7.913
   8023SM   C1210566   0.565   0.614   7.644
   8023SM  H12A10567   0.639   0.602   7.566
   8023SM  H12B10568   0.571   0.716   7.678
   8023SM   C1110569   0.426   0.596   7.578
   8023SM  H11A10570   0.421   0.662   7.490
   8023SM  H11B10571   0.348   0.631   7.650
   8023SM     P10572   0.262   0.409   7.495
   8023SM   O1310573   0.272   0.264   7.467
   8023SM   O1410574   0.162   0.450   7.595
   8023SM   O1110575   0.236   0.485   7.358
   8023SM   O1210576   0.403   0.460   7.540
   8023SM   C1S10577   0.343   0.499   7.261
   8023SM   H1S10578   0.441   0.517   7.310
   8023SM   H1T10579   0.323   0.589   7.199
   8023SM    NF10580   0.477   0.395   7.082
   8023SM   HNF10581   0.462   0.415   6.986
   8023SM   C2S10582   0.357   0.378   7.164
   8023SM   H2S10583   0.369   0.285   7.223
   8023SM   C3S10584   0.228   0.366   7.077
   8023SM   H3S10585   0.207   0.464   7.030
   8023SM    O310586   0.111   0.332   7.152
   8023SM   HO310587   0.129   0.369   7.238
   8023SM   C4S10588   0.251   0.263   6.968
   8023SM   H4S10589   0.273   0.162   7.005
   8023SM   C5S10590   0.247   0.288   6.836
   8023SM   H5S10591   0.224   0.389   6.801
   8023SM   C6S10592   0.273   0.186   6.727
   8023SM   H6S10593   0.178   0.150   6.682
   8023SM   H6T10594   0.325   0.096   6.767
   8023SM   C7S10595   0.360   0.248   6.616
   8023SM   H7S10596   0.448   0.299   6.660
   8023SM   H7T10597   0.300   0.324   6.562
   8023SM   C8S10598   0.413   0.147   6.512
   8023SM   H8S10599   0.329   0.087   6.471
   8023SM   H8T10600   0.483   0.078   6.563
   8023SM   C9S10601   0.487   0.217   6.396
   8023SM   H9S10602   0.560   0.289   6.440
   8023SM   H9T10603   0.413   0.276   6.337
   8023SM  C10S10604   0.564   0.123   6.302
   8023SM  H10S10605   0.493   0.051   6.255
   8023SM  H10T10606   0.637   0.065   6.362
   8023SM  C11S10607   0.639   0.200   6.192
   8023SM  H11S10608   0.689   0.287   6.241
   8023SM  H11T10609   0.566   0.241   6.119
   8023SM  C12S10610   0.747   0.120   6.118
   8023SM  H12S10611   0.797   0.053   6.190
   8023SM  H12T10612   0.824   0.191   6.080
   8023SM  C13S10613   0.696   0.038   5.998
   8023SM  H13S10614   0.612  -0.027   6.030
   8023SM  H13T10615   0.779  -0.028   5.965
   8023SM  C14S10616   0.652   0.122   5.876
   8023SM  H14S10617   0.720   0.209   5.864
   8023SM  H14T10618   0.550   0.161   5.895
   8023SM  C15S10619   0.655   0.039   5.747
   8023SM  H15S10620   0.607  -0.059   5.768
   8023SM  H15T10621   0.760   0.020   5.718
   8023SM  C16S10622   0.579   0.103   5.629
   8023SM  H16S10623   0.621   0.204   5.608
   8023SM  H16T10624   0.473   0.116   5.659
   8023SM  C17S10625   0.585   0.018   5.502
   8023SM  H17S10626   0.550  -0.085   5.525
   8023SM  H17T10627   0.691   0.011   5.468
   8023SM  C18S10628   0.500   0.075   5.387
   8023SM  H18S10629   0.511   0.013   5.296
   8023SM  H18T10630   0.531   0.179   5.363
   8023SM  H18U10631   0.393   0.076   5.416
   8023SM   C1F10632   0.603   0.387   7.128
   8023SM    OF10633   0.629   0.341   7.238
   8023SM   C2F10634   0.710   0.428   7.031
   8023SM   H2F10635   0.671   0.423   6.928
   8023SM   H2G10636   0.793   0.354   7.039
   8023SM   C3F10637   0.766   0.569   7.060
   8023SM   H3F10638   0.843   0.592   6.983
   8023SM   H3G10639   0.818   0.569   7.158
   8023SM   C4F10640   0.663   0.683   7.060
   8023SM   H4F10641   0.717   0.780   7.071
   8023SM   H4G10642   0.598   0.671   7.149
   8023SM   C5F10643   0.572   0.690   6.936
   8023SM   H5F10644   0.496   0.770   6.951
   8023SM   H5G10645   0.515   0.595   6.928
   8023SM   C6F10646   0.644   0.716   6.802
   8023SM   H6F10647   0.713   0.631   6.781
   8023SM   H6G10648   0.706   0.808   6.810
   8023SM   C7F10649   0.547   0.731   6.683
   8023SM   H7F10650   0.606   0.745   6.591
   8023SM   H7G10651   0.485   0.822   6.698
   8023SM   C8F10652   0.453   0.610   6.665
   8023SM   H8F10653   0.392   0.597   6.757
   8023SM   H8G10654   0.514   0.518   6.652
   8023SM   C9F10655   0.355   0.623   6.548
   8023SM   H9F10656   0.302   0.721   6.553
   8023SM   H9G10657   0.277   0.544   6.558
   8023SM  C10F10658   0.422   0.608   6.411
   8023SM  H10F10659   0.485   0.517   6.411
   8023SM  H10G10660   0.488   0.696   6.395
   8023SM  C11F10661   0.321   0.601   6.296
   8023SM  H11F10662   0.248   0.683   6.307
   8023SM  H11G10663   0.265   0.505   6.301
   8023SM  C12F10664   0.389   0.615   6.159
   8023SM  H12F10665   0.451   0.707   6.160
   8023SM  H12G10666   0.309   0.628   6.082
   8023SM  C13F10667   0.476   0.496   6.119
   8023SM  H13F10668   0.414   0.404   6.122
   8023SM  H13G10669   0.557   0.484   6.195
   8023SM  C14F10670   0.543   0.508   5.981
   8023SM  H14F10671   0.613   0.423   5.969
   8023SM  H14G10672   0.603   0.601   5.975
   8023SM  C15F10673   0.443   0.503   5.864
   8023SM  H15F10674   0.390   0.600   5.856
   8023SM  H15G10675   0.368   0.424   5.886
   8023SM  C16F10676   0.510   0.471   5.729
   8023SM  H16F10677   0.556   0.370   5.735
   8023SM  H16G10678   0.591   0.544   5.711
   8023SM  C17F10679   0.414   0.474   5.608
   8023SM  H17F10680   0.472   0.454   5.516
   8023SM  H17G10681   0.374   0.578   5.599
   8023SM  C18F10682   0.296   0.376   5.615
   8023SM  H18F10683   0.244   0.386   5.712
   8023SM  H18G10684   0.334   0.272   5.608
   8023SM  C19F10685   0.193   0.399   5.503
   8023SM  H19F10686   0.243   0.396   5.404
   8023SM  H19G10687   0.153   0.502   5.517
   8023SM  C20F10688   0.074   0.302   5.507
   8023SM  H20F10689  -0.020   0.359   5.488
   8023SM  H20G10690   0.066   0.258   5.608
   8023SM  C21F10691   0.082   0.190   5.402
   8023SM  H21F10692   0.006   0.113   5.426
   8023SM  H21G10693   0.182   0.141   5.409
   8023SM  C22F10694   0.058   0.238   5.258
   8023SM  H22F10695   0.134   0.314   5.232
   8023SM  H22G10696  -0.042   0.288   5.254
   8023SM  C23F10697   0.061   0.126   5.154
   8023SM  H23F10698   0.161   0.078   5.153
   8023SM  H23G10699   0.041   0.166   5.052
   8023SM  H23H10700  -0.015   0.048   5.177
   8123SM     N10701   3.405   3.740   2.226
   8123SM   C1510702   3.304   3.631   2.205
   8123SM  H15A10703   3.352   3.542   2.170
   8123SM  H15B10704   3.228   3.661   2.134
   8123SM  H15C10705   3.255   3.607   2.298
   8123SM   C1410706   3.479   3.766   2.099
   8123SM  H14A10707   3.549   3.847   2.112
   8123SM  H14B10708   3.410   3.794   2.020
   8123SM  H14C10709   3.534   3.679   2.068
   8123SM   C1310710   3.336   3.866   2.269
   8123SM  H13A10711   3.264   3.901   2.198
   8123SM  H13B10712   3.409   3.944   2.286
   8123SM  H13C10713   3.287   3.849   2.364
   8123SM   C1210714   3.505   3.696   2.333
   8123SM  H12A10715   3.576   3.777   2.348
   8123SM  H12B10716   3.559   3.611   2.295
   8123SM   C1110717   3.451   3.659   2.474
   8123SM  H11A10718   3.535   3.622   2.536
   8123SM  H11B10719   3.381   3.573   2.463
   8123SM     P10720   3.469   3.891   2.592
   8123SM   O1310721   3.572   3.928   2.493
   8123SM   O1410722   3.375   3.998   2.632
   8123SM   O1110723   3.537   3.831   2.722
   8123SM   O1210724   3.383   3.768   2.538
   8123SM   C1S10725   3.451   3.749   2.804
   8123SM   H1S10726   3.439   3.651   2.754
   8123SM   H1T10727   3.352   3.795   2.819
   8123SM    NF10728   3.394   3.670   3.031
   8123SM   HNF10729   3.388   3.707   3.123
   8123SM   C2S10730   3.505   3.718   2.947
   8123SM   H2S10731   3.580   3.636   2.940
   8123SM   C3S10732   3.577   3.844   3.006
   8123SM   H3S10733   3.504   3.928   3.005
   8123SM    O310734   3.690   3.887   2.930
   8123SM   HO310735   3.669   3.854   2.842
   8123SM   C4S10736   3.617   3.820   3.150
   8123SM   H4S10737   3.544   3.863   3.221
   8123SM   C5S10738   3.727   3.759   3.199
   8123SM   H5S10739   3.802   3.720   3.130
   8123SM   C6S10740   3.758   3.743   3.347
   8123SM   H6S10741   3.868   3.733   3.360
   8123SM   H6T10742   3.713   3.649   3.385
   8123SM   C7S10743   3.713   3.861   3.435
   8123SM   H7S10744   3.603   3.877   3.426
   8123SM   H7T10745   3.763   3.954   3.400
   8123SM   C8S10746   3.744   3.843   3.585
   8123SM   H8S10747   3.851   3.815   3.598
   8123SM   H8T10748   3.682   3.760   3.624
   8123SM   C9S10749   3.716   3.971   3.665
   8123SM   H9S10750   3.616   4.011   3.636
   8123SM   H9T10751   3.791   4.048   3.637
   8123SM  C10S10752   3.718   3.953   3.818
   8123SM  H10S10753   3.721   4.054   3.864
   8123SM  H10T10754   3.811   3.900   3.849
   8123SM  C11S10755   3.594   3.880   3.872
   8123SM  H11S10756   3.598   3.773   3.844
   8123SM  H11T10757   3.505   3.925   3.823
   8123SM  C12S10758   3.574   3.893   4.024
   8123SM  H12S10759   3.472   3.857   4.049
   8123SM  H12T10760   3.580   4.000   4.054
   8123SM  C13S10761   3.674   3.811   4.108
   8123SM  H13S10762   3.777   3.852   4.093
   8123SM  H13T10763   3.674   3.706   4.072
   8123SM  C14S10764   3.639   3.812   4.258
   8123SM  H14S10765   3.535   3.776   4.271
   8123SM  H14T10766   3.643   3.917   4.295
   8123SM  C15S10767   3.733   3.723   4.341
   8123SM  H15S10768   3.835   3.767   4.340
   8123SM  H15T10769   3.738   3.623   4.294
   8123SM  C16S10770   3.686   3.705   4.487
   8123SM  H16S10771   3.758   3.637   4.538
   8123SM  H16T10772   3.587   3.655   4.488
   8123SM  C17S10773   3.677   3.835   4.567
   8123SM  H17S10774   3.598   3.900   4.523
   8123SM  H17T10775   3.773   3.890   4.558
   8123SM  C18S10776   3.646   3.813   4.716
   8123SM  H18S10777   3.726   3.752   4.763
   8123SM  H18T10778   3.549   3.759   4.728
   8123SM  H18U10779   3.638   3.910   4.769
   8123SM   C1F10780   3.311   3.570   2.998
   8123SM    OF10781   3.312   3.517   2.888
   8123SM   C2F10782   3.209   3.528   3.100
   8123SM   H2F10783   3.123   3.484   3.044
   8123SM   H2G10784   3.171   3.616   3.155
   8123SM   C3F10785   3.263   3.420   3.197
   8123SM   H3F10786   3.307   3.336   3.138
   8123SM   H3G10787   3.176   3.378   3.252
   8123SM   C4F10788   3.366   3.470   3.299
   8123SM   H4F10789   3.458   3.504   3.248
   8123SM   H4G10790   3.394   3.384   3.364
   8123SM   C5F10791   3.310   3.582   3.389
   8123SM   H5F10792   3.212   3.549   3.429
   8123SM   H5G10793   3.293   3.674   3.329
   8123SM   C6F10794   3.404   3.616   3.506
   8123SM   H6F10795   3.505   3.639   3.465
   8123SM   H6G10796   3.413   3.527   3.571
   8123SM   C7F10797   3.356   3.737   3.589
   8123SM   H7F10798   3.352   3.826   3.523
   8123SM   H7G10799   3.432   3.758   3.668
   8123SM   C8F10800   3.219   3.719   3.656
   8123SM   H8F10801   3.143   3.695   3.578
   8123SM   H8G10802   3.188   3.816   3.701
   8123SM   C9F10803   3.214   3.611   3.765
   8123SM   H9F10804   3.261   3.517   3.729
   8123SM   H9G10805   3.107   3.589   3.787
   8123SM  C10F10806   3.279   3.655   3.897
   8123SM  H10F10807   3.228   3.748   3.932
   8123SM  H10G10808   3.386   3.679   3.881
   8123SM  C11F10809   3.268   3.548   4.007
   8123SM  H11F10810   3.338   3.465   3.982
   8123SM  H11G10811   3.166   3.505   4.009
   8123SM  C12F10812   3.301   3.602   4.147
   8123SM  H12F10813   3.392   3.666   4.141
   8123SM  H12G10814   3.326   3.517   4.214
   8123SM  C13F10815   3.185   3.681   4.210
   8123SM  H13F10816   3.098   3.614   4.223
   8123SM  H13G10817   3.155   3.762   4.140
   8123SM  C14F10818   3.219   3.746   4.346
   8123SM  H14F10819   3.132   3.807   4.378
   8123SM  H14G10820   3.305   3.814   4.333
   8123SM  C15F10821   3.251   3.644   4.457
   8123SM  H15F10822   3.337   3.582   4.424
   8123SM  H15G10823   3.164   3.577   4.473
   8123SM  C16F10824   3.291   3.711   4.589
   8123SM  H16F10825   3.370   3.787   4.568
   8123SM  H16G10826   3.336   3.635   4.656
   8123SM  C17F10827   3.174   3.777   4.665
   8123SM  H17F10828   3.099   3.698   4.687
   8123SM  H17G10829   3.125   3.853   4.601
   8123SM  C18F10830   3.218   3.843   4.797
   8123SM  H18F10831   3.280   3.770   4.854
   8123SM  H18G10832   3.128   3.866   4.858
   8123SM  C19F10833   3.298   3.972   4.775
   8123SM  H19F10834   3.232   4.048   4.727
   8123SM  H19G10835   3.382   3.953   4.706
   8123SM  C20F10836   3.356   4.031   4.905
   8123SM  H20F10837   3.420   3.954   4.954
   8123SM  H20G10838   3.273   4.055   4.975
   8123SM  C21F10839   3.440   4.156   4.878
   8123SM  H21F10840   3.375   4.234   4.833
   8123SM  H21G10841   3.518   4.131   4.802
   8123SM  C22F10842   3.511   4.214   5.001
   8123SM  H22F10843   3.574   4.299   4.968
   8123SM  H22G10844   3.578   4.137   5.044
   8123SM  C23F10845   3.416   4.265   5.111
   8123SM  H23F10846   3.473   4.313   5.193
   8123SM  H23G10847   3.358   4.180   5.154
   8123SM  H23H10848   3.344   4.339   5.069
   8223SM     N10849   3.929   4.294   2.316
   8223SM   C1510850   3.799   4.367   2.307
   8223SM  H15A10851   3.768   4.383   2.205
   8223SM  H15B10852   3.809   4.464   2.354
   8223SM  H15C10853   3.722   4.313   2.361
   8223SM   C1410854   3.906   4.152   2.272
   8223SM  H14A10855   3.998   4.097   2.274
   8223SM  H14B10856   3.864   4.148   2.173
   8223SM  H14C10857   3.835   4.104   2.338
   8223SM   C1310858   4.029   4.360   2.226
   8223SM  H13A10859   3.998   4.357   2.122
   8223SM  H13B10860   4.126   4.314   2.236
   8223SM  H13C10861   4.041   4.463   2.254
   8223SM   C1210862   3.981   4.297   2.459
   8223SM  H12A10863   4.063   4.226   2.466
   8223SM  H12B10864   3.903   4.260   2.524
   8223SM   C1110865   4.031   4.432   2.517
   8223SM  H11A10866   4.122   4.464   2.462
   8223SM  H11B10867   4.063   4.415   2.622
   8223SM     P10868   3.939   4.670   2.448
   8223SM   O1310869   4.054   4.671   2.355
   8223SM   O1410870   3.805   4.700   2.391
   8223SM   O1110871   3.971   4.765   2.570
   8223SM   O1210872   3.927   4.530   2.517
   8223SM   C1S10873   3.869   4.807   2.662
   8223SM   H1S10874   3.767   4.776   2.631
   8223SM   H1T10875   3.868   4.918   2.667
   8223SM    NF10876   3.775   4.775   2.889
   8223SM   HNF10877   3.776   4.851   2.953
   8223SM   C2S10878   3.895   4.755   2.807
   8223SM   H2S10879   3.915   4.645   2.802
   8223SM   C3S10880   4.021   4.826   2.865
   8223SM   H3S10881   4.003   4.936   2.863
   8223SM    O310882   4.140   4.804   2.789
   8223SM   HO310883   4.105   4.778   2.703
   8223SM   C4S10884   4.041   4.786   3.010
   8223SM   H4S10885   3.987   4.853   3.079
   8223SM   C5S10886   4.115   4.687   3.064
   8223SM   H5S10887   4.175   4.622   2.999
   8223SM   C6S10888   4.125   4.661   3.213
   8223SM   H6S10889   4.108   4.553   3.234
   8223SM   H6T10890   4.046   4.717   3.268
   8223SM   C7S10891   4.262   4.702   3.269
   8223SM   H7S10892   4.283   4.808   3.244
   8223SM   H7T10893   4.341   4.641   3.220
   8223SM   C8S10894   4.276   4.685   3.422
   8223SM   H8S10895   4.380   4.711   3.449
   8223SM   H8T10896   4.259   4.579   3.450
   8223SM   C9S10897   4.181   4.776   3.503
   8223SM   H9S10898   4.078   4.735   3.499
   8223SM   H9T10899   4.179   4.876   3.454
   8223SM  C10S10900   4.223   4.796   3.650
   8223SM  H10S10901   4.154   4.869   3.696
   8223SM  H10T10902   4.325   4.840   3.653
   8223SM  C11S10903   4.221   4.667   3.734
   8223SM  H11S10904   4.296   4.595   3.694
   8223SM  H11T10905   4.121   4.620   3.726
   8223SM  C12S10906   4.252   4.695   3.882
   8223SM  H12S10907   4.179   4.769   3.921
   8223SM  H12T10908   4.353   4.740   3.891
   8223SM  C13S10909   4.245   4.569   3.971
   8223SM  H13S10910   4.320   4.495   3.935
   8223SM  H13T10911   4.144   4.523   3.960
   8223SM  C14S10912   4.271   4.601   4.119
   8223SM  H14S10913   4.197   4.676   4.153
   8223SM  H14T10914   4.372   4.645   4.130
   8223SM  C15S10915   4.260   4.477   4.209
   8223SM  H15S10916   4.336   4.402   4.179
   8223SM  H15T10917   4.160   4.431   4.196
   8223SM  C16S10918   4.279   4.512   4.358
   8223SM  H16S10919   4.205   4.589   4.387
   8223SM  H16T10920   4.380   4.555   4.373
   8223SM  C17S10921   4.262   4.391   4.451
   8223SM  H17S10922   4.335   4.312   4.422
   8223SM  H17T10923   4.160   4.348   4.436
   8223SM  C18S10924   4.281   4.425   4.599
   8223SM  H18S10925   4.383   4.465   4.617
   8223SM  H18T10926   4.267   4.334   4.662
   8223SM  H18U10927   4.207   4.501   4.631
   8223SM   C1F10928   3.663   4.703   2.874
   8223SM    OF10929   3.648   4.626   2.780
   8223SM   C2F10930   3.555   4.724   2.976
   8223SM   H2F10931   3.461   4.743   2.922
   8223SM   H2G10932   3.578   4.814   3.038
   8223SM   C3F10933   3.537   4.600   3.067
   8223SM   H3F10934   3.515   4.511   3.003
   8223SM   H3G10935   3.450   4.616   3.133
   8223SM   C4F10936   3.659   4.564   3.155
   8223SM   H4F10937   3.743   4.531   3.090
   8223SM   H4G10938   3.632   4.476   3.219
   8223SM   C5F10939   3.709   4.677   3.247
   8223SM   H5F10940   3.747   4.759   3.183
   8223SM   H5G10941   3.796   4.639   3.305
   8223SM   C6F10942   3.604   4.734   3.343
   8223SM   H6F10943   3.517   4.771   3.286
   8223SM   H6G10944   3.650   4.822   3.393
   8223SM   C7F10945   3.556   4.639   3.455
   8223SM   H7F10946   3.502   4.553   3.410
   8223SM   H7G10947   3.484   4.695   3.518
   8223SM   C8F10948   3.670   4.587   3.544
   8223SM   H8F10949   3.736   4.672   3.572
   8223SM   H8G10950   3.730   4.514   3.487
   8223SM   C9F10951   3.619   4.520   3.674
   8223SM   H9F10952   3.534   4.454   3.648
   8223SM   H9G10953   3.581   4.599   3.742
   8223SM  C10F10954   3.725   4.435   3.746
   8223SM  H10F10955   3.751   4.350   3.680
   8223SM  H10G10956   3.682   4.394   3.839
   8223SM  C11F10957   3.856   4.509   3.780
   8223SM  H11F10958   3.894   4.560   3.688
   8223SM  H11G10959   3.933   4.434   3.808
   8223SM  C12F10960   3.846   4.612   3.893
   8223SM  H12F10961   3.756   4.677   3.879
   8223SM  H12G10962   3.935   4.678   3.888
   8223SM  C13F10963   3.843   4.549   4.034
   8223SM  H13F10964   3.925   4.474   4.041
   8223SM  H13G10965   3.747   4.496   4.050
   8223SM  C14F10966   3.865   4.654   4.144
   8223SM  H14F10967   3.780   4.725   4.143
   8223SM  H14G10968   3.957   4.711   4.118
   8223SM  C15F10969   3.885   4.596   4.285
   8223SM  H15F10970   3.928   4.677   4.348
   8223SM  H15G10971   3.958   4.513   4.282
   8223SM  C16F10972   3.755   4.548   4.351
   8223SM  H16F10973   3.713   4.465   4.290
   8223SM  H16G10974   3.680   4.630   4.351
   8223SM  C17F10975   3.775   4.496   4.495
   8223SM  H17F10976   3.856   4.420   4.493
   8223SM  H17G10977   3.683   4.445   4.530
   8223SM  C18F10978   3.812   4.604   4.599
   8223SM  H18F10979   3.896   4.665   4.559
   8223SM  H18G10980   3.849   4.554   4.691
   8223SM  C19F10981   3.697   4.697   4.638
   8223SM  H19F10982   3.624   4.641   4.701
   8223SM  H19G10983   3.643   4.729   4.546
   8223SM  C20F10984   3.741   4.825   4.711
   8223SM  H20F10985   3.652   4.888   4.733
   8223SM  H20G10986   3.806   4.883   4.642
   8223SM  C21F10987   3.819   4.802   4.842
   8223SM  H21F10988   3.905   4.734   4.822
   8223SM  H21G10989   3.753   4.752   4.915
   8223SM  C22F10990   3.873   4.933   4.901
   8223SM  H22F10991   3.787   5.000   4.924
   8223SM  H22G10992   3.934   4.984   4.824
   8223SM  C23F10993   3.958   4.913   5.027
   8223SM  H23F10994   3.897   4.866   5.107
   8223SM  H23G10995   3.996   5.010   5.064
   8223SM  H23H10996   4.044   4.847   5.005
   8323SM     N10997   4.820   4.542   2.251
   8323SM   C1510998   4.921   4.652   2.250
   8323SM  H15A10999   4.880   4.744   2.209
   8323SM  H15B11000   5.007   4.625   2.190
   8323SM  H15C11001   4.956   4.673   2.350
   8323SM   C1411002   4.780   4.509   2.110
   8323SM  H14A11003   4.736   4.594   2.060
   8323SM  H14B11004   4.708   4.428   2.106
   8323SM  H14C11005   4.866   4.478   2.052
   8323SM   C1311006   4.881   4.420   2.314
   8323SM  H13A11007   4.978   4.397   2.271
   8323SM  H13B11008   4.816   4.334   2.303
   8323SM  H13C11009   4.893   4.438   2.420
   8323SM   C1211010   4.696   4.583   2.330
   8323SM  H12A11011   4.623   4.504   2.324
   8323SM  H12B11012   4.651   4.669   2.283
   8323SM   C1111013   4.714   4.612   2.481
   8323SM  H11A11014   4.623   4.665   2.518
   8323SM  H11B11015   4.799   4.682   2.496
   8323SM     P11016   4.619   4.393   2.586
   8323SM   O1311017   4.539   4.370   2.463
   8323SM   O1411018   4.673   4.271   2.650
   8323SM   O1111019   4.527   4.468   2.690
   8323SM   O1211020   4.738   4.493   2.555
   8323SM   C1S11021   4.575   4.562   2.786
   8323SM   H1S11022   4.493   4.635   2.806
   8323SM   H1T11023   4.660   4.624   2.747
   8323SM    NF11024   4.754   4.459   2.924
   8323SM   HNF11025   4.773   4.362   2.915
   8323SM   C2S11026   4.614   4.501   2.925
   8323SM   H2S11027   4.603   4.582   3.001
   8323SM   C3S11028   4.518   4.385   2.964
   8323SM   H3S11029   4.536   4.298   2.897
   8323SM    O311030   4.380   4.417   2.947
   8323SM   HO311031   4.380   4.483   2.877
   8323SM   C4S11032   4.540   4.344   3.107
   8323SM   H4S11033   4.505   4.417   3.182
   8323SM   C5S11034   4.596   4.228   3.146
   8323SM   H5S11035   4.630   4.158   3.068
   8323SM   C6S11036   4.620   4.180   3.287
   8323SM   H6S11037   4.726   4.149   3.296
   8323SM   H6T11038   4.559   4.088   3.301
   8323SM   C7S11039   4.590   4.272   3.408
   8323SM   H7S11040   4.489   4.317   3.399
   8323SM   H7T11041   4.665   4.354   3.412
   8323SM   C8S11042   4.597   4.189   3.537
   8323SM   H8S11043   4.692   4.132   3.536
   8323SM   H8T11044   4.514   4.114   3.533
   8323SM   C9S11045   4.587   4.264   3.671
   8323SM   H9S11046   4.492   4.320   3.677
   8323SM   H9T11047   4.670   4.337   3.678
   8323SM  C10S11048   4.597   4.163   3.787
   8323SM  H10S11049   4.682   4.095   3.765
   8323SM  H10T11050   4.505   4.101   3.788
   8323SM  C11S11051   4.620   4.222   3.926
   8323SM  H11S11052   4.537   4.290   3.955
   8323SM  H11T11053   4.714   4.282   3.925
   8323SM  C12S11054   4.637   4.111   4.031
   8323SM  H12S11055   4.710   4.038   3.991
   8323SM  H12T11056   4.540   4.058   4.043
   8323SM  C13S11057   4.688   4.158   4.168
   8323SM  H13S11058   4.620   4.236   4.208
   8323SM  H13T11059   4.788   4.203   4.155
   8323SM  C14S11060   4.697   4.041   4.267
   8323SM  H14S11061   4.762   3.961   4.224
   8323SM  H14T11062   4.595   3.998   4.280
   8323SM  C15S11063   4.753   4.078   4.406
   8323SM  H15S11064   4.731   3.993   4.474
   8323SM  H15T11065   4.700   4.168   4.445
   8323SM  C16S11066   4.904   4.100   4.407
   8323SM  H16S11067   4.929   4.194   4.352
   8323SM  H16T11068   4.954   4.017   4.353
   8323SM  C17S11069   4.961   4.107   4.549
   8323SM  H17S11070   4.939   4.012   4.601
   8323SM  H17T11071   4.910   4.189   4.604
   8323SM  C18S11072   5.112   4.131   4.552
   8323SM  H18S11073   5.137   4.227   4.501
   8323SM  H18T11074   5.166   4.049   4.499
   8323SM  H18U11075   5.150   4.135   4.656
   8323SM   C1F11076   4.852   4.548   2.917
   8323SM    OF11077   4.829   4.668   2.935
   8323SM   C2F11078   4.989   4.498   2.880
   8323SM   H2F11079   5.044   4.582   2.832
   8323SM   H2G11080   4.978   4.417   2.804
   8323SM   C3F11081   5.072   4.447   3.000
   8323SM   H3F11082   5.077   4.525   3.079
   8323SM   H3G11083   5.176   4.432   2.963
   8323SM   C4F11084   5.023   4.313   3.059
   8323SM   H4F11085   5.004   4.244   2.974
   8323SM   H4G11086   4.927   4.328   3.112
   8323SM   C5F11087   5.126   4.245   3.151
   8323SM   H5F11088   5.224   4.244   3.099
   8323SM   H5G11089   5.096   4.140   3.169
   8323SM   C6F11090   5.143   4.315   3.287
   8323SM   H6F11091   5.139   4.425   3.273
   8323SM   H6G11092   5.244   4.290   3.327
   8323SM   C7F11093   5.039   4.272   3.392
   8323SM   H7F11094   5.041   4.162   3.401
   8323SM   H7G11095   4.937   4.302   3.357
   8323SM   C8F11096   5.065   4.333   3.531
   8323SM   H8F11097   5.051   4.443   3.525
   8323SM   H8G11098   5.171   4.314   3.560
   8323SM   C9F11099   4.973   4.274   3.638
   8323SM   H9F11100   4.994   4.165   3.647
   8323SM   H9G11101   4.868   4.285   3.604
   8323SM  C10F11102   4.986   4.338   3.777
   8323SM  H10F11103   5.089   4.325   3.815
   8323SM  H10G11104   4.918   4.282   3.846
   8323SM  C11F11105   4.949   4.488   3.781
   8323SM  H11F11106   4.899   4.515   3.686
   8323SM  H11G11107   5.042   4.548   3.789
   8323SM  C12F11108   4.854   4.529   3.895
   8323SM  H12F11109   4.754   4.484   3.877
   8323SM  H12G11110   4.840   4.639   3.891
   8323SM  C13F11111   4.900   4.491   4.037
   8323SM  H13F11112   5.001   4.533   4.055
   8323SM  H13G11113   4.907   4.381   4.046
   8323SM  C14F11114   4.802   4.543   4.144
   8323SM  H14F11115   4.699   4.514   4.115
   8323SM  H14G11116   4.806   4.654   4.145
   8323SM  C15F11117   4.828   4.492   4.287
   8323SM  H15F11118   4.811   4.382   4.292
   8323SM  H15G11119   4.753   4.539   4.354
   8323SM  C16F11120   4.968   4.523   4.341
   8323SM  H16F11121   5.017   4.596   4.272
   8323SM  H16G11122   5.031   4.432   4.341
   8323SM  C17F11123   4.967   4.586   4.482
   8323SM  H17F11124   4.891   4.667   4.485
   8323SM  H17G11125   5.066   4.635   4.499
   8323SM  C18F11126   4.944   4.486   4.595
   8323SM  H18F11127   5.015   4.401   4.581
   8323SM  H18G11128   4.841   4.445   4.589
   8323SM  C19F11129   4.969   4.545   4.735
   8323SM  H19F11130   5.072   4.586   4.739
   8323SM  H19G11131   4.963   4.461   4.809
   8323SM  C20F11132   4.868   4.653   4.776
   8323SM  H20F11133   4.766   4.609   4.776
   8323SM  H20G11134   4.869   4.735   4.700
   8323SM  C21F11135   4.895   4.716   4.914
   8323SM  H21F11136   4.816   4.791   4.934
   8323SM  H21G11137   4.993   4.769   4.913
   8323SM  C22F11138   4.895   4.614   5.028
   8323SM  H22F11139   4.986   4.550   5.021
   8323SM  H22G11140   4.807   4.547   5.015
   8323SM  C23F11141   4.887   4.675   5.168
   8323SM  H23F11142   4.980   4.732   5.191
   8323SM  H23G11143   4.875   4.596   5.245
   8323SM  H23H11144   4.801   4.745   5.176
   8423SM     N11145   4.251   2.290   2.269
   8423SM   C1511146   4.163   2.170   2.249
   8423SM  H15A11147   4.096   2.184   2.165
   8423SM  H15B11148   4.102   2.158   2.337
   8423SM  H15C11149   4.221   2.081   2.234
   8423SM   C1411150   4.342   2.260   2.385
   8423SM  H14A11151   4.285   2.247   2.476
   8423SM  H14B11152   4.413   2.339   2.401
   8423SM  H14C11153   4.397   2.168   2.369
   8423SM   C1311154   4.335   2.311   2.147
   8423SM  H13A11155   4.396   2.224   2.127
   8423SM  H13B11156   4.400   2.396   2.159
   8423SM  H13C11157   4.272   2.328   2.060
   8423SM   C1211158   4.166   2.413   2.296
   8423SM  H12A11159   4.143   2.460   2.201
   8423SM  H12B11160   4.223   2.487   2.350
   8423SM   C1111161   4.029   2.396   2.369
   8423SM  H11A11162   3.961   2.342   2.298
   8423SM  H11B11163   3.984   2.496   2.385
   8423SM     P11164   4.109   2.386   2.615
   8423SM   O1311165   4.207   2.288   2.668
   8423SM   O1411166   4.164   2.518   2.577
   8423SM   O1111167   3.990   2.405   2.718
   8423SM   O1211168   4.036   2.321   2.490
   8423SM   C1S11169   3.990   2.516   2.809
   8423SM   H1S11170   3.887   2.557   2.812
   8423SM   H1T11171   4.056   2.600   2.778
   8423SM    NF11172   4.173   2.462   2.966
   8423SM   HNF11173   4.210   2.370   2.953
   8423SM   C2S11174   4.029   2.476   2.955
   8423SM   H2S11175   3.998   2.561   3.020
   8423SM   C3S11176   3.955   2.348   3.002
   8423SM   H3S11177   3.997   2.258   2.952
   8423SM    O311178   3.815   2.350   2.971
   8423SM   HO311179   3.811   2.402   2.890
   8423SM   C4S11180   3.972   2.340   3.151
   8423SM   H4S11181   3.912   2.414   3.206
   8423SM   C5S11182   4.049   2.253   3.220
   8423SM   H5S11183   4.109   2.179   3.165
   8423SM   C6S11184   4.063   2.253   3.370
   8423SM   H6S11185   4.168   2.224   3.396
   8423SM   H6T11186   3.998   2.175   3.415
   8423SM   C7S11187   4.035   2.389   3.438
   8423SM   H7S11188   3.926   2.410   3.436
   8423SM   H7T11189   4.087   2.470   3.381
   8423SM   C8S11190   4.085   2.399   3.583
   8423SM   H8S11191   4.062   2.501   3.622
   8423SM   H8T11192   4.195   2.387   3.585
   8423SM   C9S11193   4.022   2.296   3.678
   8423SM   H9S11194   4.045   2.193   3.642
   8423SM   H9T11195   3.912   2.309   3.676
   8423SM  C10S11196   4.073   2.310   3.822
   8423SM  H10S11197   4.058   2.414   3.856
   8423SM  H10T11198   4.182   2.288   3.825
   8423SM  C11S11199   3.998   2.215   3.917
   8423SM  H11S11200   4.008   2.111   3.880
   8423SM  H11T11201   3.890   2.242   3.914
   8423SM  C12S11202   4.047   2.222   4.062
   8423SM  H12S11203   4.050   2.327   4.096
   8423SM  H12T11204   4.150   2.181   4.068
   8423SM  C13S11205   3.954   2.142   4.154
   8423SM  H13S11206   3.944   2.039   4.114
   8423SM  H13T11207   3.853   2.189   4.151
   8423SM  C14S11208   4.000   2.135   4.300
   8423SM  H14S11209   4.016   2.237   4.340
   8423SM  H14T11210   4.096   2.080   4.305
   8423SM  C15S11211   3.894   2.063   4.385
   8423SM  H15S11212   3.865   1.969   4.333
   8423SM  H15T11213   3.804   2.127   4.391
   8423SM  C16S11214   3.939   2.027   4.527
   8423SM  H16S11215   4.031   1.966   4.520
   8423SM  H16T11216   3.860   1.964   4.574
   8423SM  C17S11217   3.964   2.148   4.617
   8423SM  H17S11218   3.872   2.211   4.620
   8423SM  H17T11219   4.045   2.210   4.573
   8423SM  C18S11220   4.002   2.107   4.759
   8423SM  H18S11221   4.095   2.047   4.758
   8423SM  H18T11222   3.921   2.046   4.805
   8423SM  H18U11223   4.019   2.196   4.823
   8423SM   C1F11224   4.254   2.567   2.973
   8423SM    OF11225   4.209   2.678   2.994
   8423SM   C2F11226   4.401   2.543   2.953
   8423SM   H2F11227   4.439   2.619   2.880
   8423SM   H2G11228   4.417   2.442   2.910
   8423SM   C3F11229   4.478   2.557   3.087
   8423SM   H3F11230   4.455   2.656   3.131
   8423SM   H3G11231   4.587   2.555   3.065
   8423SM   C4F11232   4.444   2.447   3.188
   8423SM   H4F11233   4.476   2.348   3.147
   8423SM   H4G11234   4.334   2.442   3.202
   8423SM   C5F11235   4.507   2.467   3.327
   8423SM   H5F11236   4.474   2.565   3.368
   8423SM   H5G11237   4.618   2.469   3.319
   8423SM   C6F11238   4.465   2.356   3.423
   8423SM   H6F11239   4.506   2.259   3.387
   8423SM   H6G11240   4.354   2.348   3.421
   8423SM   C7F11241   4.509   2.377   3.569
   8423SM   H7F11242   4.465   2.472   3.608
   8423SM   H7G11243   4.619   2.386   3.573
   8423SM   C8F11244   4.464   2.260   3.658
   8423SM   H8F11245   4.506   2.166   3.615
   8423SM   H8G11246   4.354   2.251   3.656
   8423SM   C9F11247   4.511   2.272   3.804
   8423SM   H9F11248   4.465   2.362   3.850
   8423SM   H9G11249   4.621   2.287   3.805
   8423SM  C10F11250   4.476   2.147   3.886
   8423SM  H10F11251   4.497   2.057   3.825
   8423SM  H10G11252   4.366   2.147   3.907
   8423SM  C11F11253   4.554   2.135   4.017
   8423SM  H11F11254   4.662   2.123   3.994
   8423SM  H11G11255   4.521   2.042   4.070
   8423SM  C12F11256   4.536   2.254   4.112
   8423SM  H12F11257   4.428   2.267   4.133
   8423SM  H12G11258   4.572   2.347   4.062
   8423SM  C13F11259   4.613   2.236   4.243
   8423SM  H13F11260   4.719   2.214   4.220
   8423SM  H13G11261   4.572   2.148   4.298
   8423SM  C14F11262   4.609   2.359   4.335
   8423SM  H14F11263   4.653   2.446   4.282
   8423SM  H14G11264   4.672   2.338   4.423
   8423SM  C15F11265   4.467   2.395   4.384
   8423SM  H15F11266   4.421   2.304   4.428
   8423SM  H15G11267   4.406   2.426   4.297
   8423SM  C16F11268   4.466   2.509   4.487
   8423SM  H16F11269   4.527   2.593   4.449
   8423SM  H16G11270   4.514   2.474   4.581
   8423SM  C17F11271   4.325   2.561   4.519
   8423SM  H17F11272   4.282   2.602   4.424
   8423SM  H17G11273   4.332   2.646   4.590
   8423SM  C18F11274   4.227   2.456   4.574
   8423SM  H18F11275   4.228   2.367   4.508
   8423SM  H18G11276   4.124   2.497   4.571
   8423SM  C19F11277   4.256   2.412   4.719
   8423SM  H19F11278   4.362   2.379   4.730
   8423SM  H19G11279   4.192   2.323   4.740
   8423SM  C20F11280   4.222   2.520   4.822
   8423SM  H20F11281   4.129   2.571   4.789
   8423SM  H20G11282   4.302   2.596   4.826
   8423SM  C21F11283   4.195   2.464   4.963
   8423SM  H21F11284   4.124   2.379   4.956
   8423SM  H21G11285   4.146   2.544   5.024
   8423SM  C22F11286   4.321   2.419   5.037
   8423SM  H22F11287   4.395   2.502   5.039
   8423SM  H22G11288   4.368   2.335   4.981
   8423SM  C23F11289   4.293   2.375   5.181
   8423SM  H23F11290   4.385   2.337   5.230
   8423SM  H23G11291   4.216   2.294   5.183
   8423SM  H23H11292   4.255   2.461   5.241
   8523SM     N11293   5.937   3.527   2.349
   8523SM   C1511294   5.814   3.573   2.277
   8523SM  H15A11295   5.793   3.675   2.307
   8523SM  H15B11296   5.729   3.512   2.299
   8523SM  H15C11297   5.830   3.575   2.170
   8523SM   C1411298   5.906   3.519   2.495
   8523SM  H14A11299   5.825   3.450   2.514
   8523SM  H14B11300   5.877   3.616   2.532
   8523SM  H14C11301   5.991   3.487   2.553
   8523SM   C1311302   5.974   3.391   2.298
   8523SM  H13A11303   5.995   3.392   2.193
   8523SM  H13B11304   5.893   3.321   2.315
   8523SM  H13C11305   6.061   3.352   2.350
   8523SM   C1211306   6.051   3.625   2.323
   8523SM  H12A11307   6.059   3.639   2.216
   8523SM  H12B11308   6.144   3.583   2.357
   8523SM   C1111309   6.039   3.766   2.388
   8523SM  H11A11310   6.128   3.824   2.356
   8523SM  H11B11311   6.043   3.755   2.499
   8523SM     P11312   5.901   3.986   2.370
   8523SM   O1311313   5.993   4.054   2.276
   8523SM   O1411314   5.757   4.017   2.357
   8523SM   O1111315   5.949   4.007   2.520
   8523SM   O1211316   5.918   3.831   2.350
   8523SM   C1S11317   5.856   3.965   2.623
   8523SM   H1S11318   5.828   3.859   2.610
   8523SM   H1T11319   5.764   4.026   2.619
   8523SM    NF11320   5.815   3.936   2.862
   8523SM   HNF11321   5.758   4.004   2.907
   8523SM   C2S11322   5.914   3.981   2.766
   8523SM   H2S11323   6.005   3.917   2.775
   8523SM   C3S11324   5.957   4.129   2.789
   8523SM   H3S11325   5.869   4.194   2.770
   8523SM    O311326   6.060   4.173   2.701
   8523SM   HO311327   6.038   4.127   2.619
   8523SM   C4S11328   6.005   4.149   2.930
   8523SM   H4S11329   6.093   4.089   2.958
   8523SM   C5S11330   5.950   4.234   3.019
   8523SM   H5S11331   5.862   4.292   2.986
   8523SM   C6S11332   5.994   4.259   3.161
   8523SM   H6S11333   5.904   4.258   3.226
   8523SM   H6T11334   6.039   4.360   3.169
   8523SM   C7S11335   6.095   4.159   3.220
   8523SM   H7S11336   6.185   4.152   3.155
   8523SM   H7T11337   6.048   4.058   3.224
   8523SM   C8S11338   6.143   4.196   3.361
   8523SM   H8S11339   6.205   4.288   3.356
   8523SM   H8T11340   6.207   4.114   3.400
   8523SM   C9S11341   6.029   4.220   3.461
   8523SM   H9S11342   5.958   4.134   3.458
   8523SM   H9T11343   5.972   4.312   3.433
   8523SM  C10S11344   6.080   4.237   3.605
   8523SM  H10S11345   6.157   4.316   3.608
   8523SM  H10T11346   6.127   4.142   3.638
   8523SM  C11S11347   5.968   4.273   3.703
   8523SM  H11S11348   5.886   4.198   3.697
   8523SM  H11T11349   5.925   4.372   3.675
   8523SM  C12S11350   6.019   4.279   3.848
   8523SM  H12S11351   6.104   4.349   3.854
   8523SM  H12T11352   6.056   4.178   3.876
   8523SM  C13S11353   5.910   4.323   3.946
   8523SM  H13S11354   5.820   4.260   3.931
   8523SM  H13T11355   5.881   4.428   3.926
   8523SM  C14S11356   5.955   4.309   4.092
   8523SM  H14S11357   6.043   4.374   4.111
   8523SM  H14T11358   5.989   4.204   4.109
   8523SM  C15S11359   5.843   4.342   4.192
   8523SM  H15S11360   5.757   4.275   4.170
   8523SM  H15T11361   5.807   4.446   4.177
   8523SM  C16S11362   5.886   4.322   4.338
   8523SM  H16S11363   5.912   4.420   4.382
   8523SM  H16T11364   5.978   4.260   4.340
   8523SM  C17S11365   5.778   4.250   4.421
   8523SM  H17S11366   5.755   4.153   4.372
   8523SM  H17T11367   5.685   4.311   4.417
   8523SM  C18S11368   5.816   4.224   4.566
   8523SM  H18S11369   5.812   4.318   4.625
   8523SM  H18T11370   5.919   4.182   4.574
   8523SM  H18U11371   5.746   4.152   4.613
   8523SM   C1F11372   5.784   3.806   2.874
   8523SM    OF11373   5.858   3.720   2.827
   8523SM   C2F11374   5.654   3.774   2.941
   8523SM   H2F11375   5.592   3.719   2.867
   8523SM   H2G11376   5.600   3.867   2.967
   8523SM   C3F11377   5.668   3.685   3.067
   8523SM   H3F11378   5.735   3.599   3.046
   8523SM   H3G11379   5.567   3.643   3.087
   8523SM   C4F11380   5.714   3.757   3.195
   8523SM   H4F11381   5.686   3.691   3.280
   8523SM   H4G11382   5.656   3.852   3.209
   8523SM   C5F11383   5.865   3.786   3.204
   8523SM   H5F11384   5.889   3.873   3.139
   8523SM   H5G11385   5.920   3.698   3.164
   8523SM   C6F11386   5.914   3.813   3.347
   8523SM   H6F11387   5.850   3.890   3.395
   8523SM   H6G11388   6.018   3.853   3.343
   8523SM   C7F11389   5.916   3.686   3.435
   8523SM   H7F11390   5.981   3.610   3.387
   8523SM   H7G11391   5.813   3.644   3.439
   8523SM   C8F11392   5.961   3.709   3.580
   8523SM   H8F11393   5.939   3.614   3.634
   8523SM   H8G11394   5.901   3.789   3.627
   8523SM   C9F11395   6.111   3.739   3.597
   8523SM   H9F11396   6.127   3.849   3.596
   8523SM   H9G11397   6.167   3.697   3.510
   8523SM  C10F11398   6.172   3.679   3.725
   8523SM  H10F11399   6.279   3.707   3.733
   8523SM  H10G11400   6.168   3.568   3.717
   8523SM  C11F11401   6.098   3.717   3.854
   8523SM  H11F11402   5.990   3.692   3.841
   8523SM  H11G11403   6.105   3.827   3.870
   8523SM  C12F11404   6.148   3.643   3.979
   8523SM  H12F11405   6.238   3.696   4.018
   8523SM  H12G11406   6.179   3.540   3.952
   8523SM  C13F11407   6.041   3.634   4.090
   8523SM  H13F11408   5.988   3.731   4.097
   8523SM  H13G11409   6.090   3.614   4.188
   8523SM  C14F11410   5.938   3.523   4.063
   8523SM  H14F11411   5.990   3.425   4.073
   8523SM  H14G11412   5.904   3.533   3.957
   8523SM  C15F11413   5.813   3.523   4.152
   8523SM  H15F11414   5.751   3.434   4.126
   8523SM  H15G11415   5.751   3.612   4.131
   8523SM  C16F11416   5.844   3.516   4.302
   8523SM  H16F11417   5.905   3.604   4.333
   8523SM  H16G11418   5.907   3.426   4.319
   8523SM  C17F11419   5.720   3.505   4.392
   8523SM  H17F11420   5.749   3.456   4.487
   8523SM  H17G11421   5.643   3.440   4.344
   8523SM  C18F11422   5.659   3.642   4.428
   8523SM  H18F11423   5.610   3.685   4.338
   8523SM  H18G11424   5.740   3.710   4.459
   8523SM  C19F11425   5.558   3.633   4.544
   8523SM  H19F11426   5.609   3.588   4.631
   8523SM  H19G11427   5.474   3.567   4.515
   8523SM  C20F11428   5.503   3.770   4.585
   8523SM  H20F11429   5.444   3.813   4.501
   8523SM  H20G11430   5.587   3.839   4.606
   8523SM  C21F11431   5.414   3.761   4.710
   8523SM  H21F11432   5.475   3.726   4.796
   8523SM  H21G11433   5.334   3.687   4.692
   8523SM  C22F11434   5.349   3.895   4.748
   8523SM  H22F11435   5.289   3.931   4.662
   8523SM  H22G11436   5.429   3.970   4.767
   8523SM  C23F11437   5.258   3.885   4.871
   8523SM  H23F11438   5.176   3.813   4.853
   8523SM  H23G11439   5.214   3.984   4.896
   8523SM  H23H11440   5.316   3.850   4.960
   8623SM     N11441   3.673   1.555   2.238
   8623SM   C1511442   3.523   1.560   2.238
   8623SM  H15A11443   3.482   1.470   2.281
   8623SM  H15B11444   3.483   1.572   2.139
   8623SM  H15C11445   3.490   1.643   2.300
   8623SM   C1411446   3.717   1.432   2.164
   8623SM  H14A11447   3.684   1.343   2.213
   8623SM  H14B11448   3.825   1.428   2.156
   8623SM  H14C11449   3.678   1.430   2.063
   8623SM   C1311450   3.728   1.675   2.168
   8623SM  H13A11451   3.699   1.765   2.220
   8623SM  H13B11452   3.691   1.681   2.066
   8623SM  H13C11453   3.836   1.671   2.164
   8623SM   C1211454   3.723   1.549   2.382
   8623SM  H12A11455   3.825   1.516   2.382
   8623SM  H12B11456   3.665   1.475   2.435
   8623SM   C1111457   3.717   1.680   2.465
   8623SM  H11A11458   3.786   1.755   2.420
   8623SM  H11B11459   3.757   1.659   2.566
   8623SM     P11460   3.487   1.704   2.589
   8623SM   O1311461   3.370   1.794   2.575
   8623SM   O1411462   3.461   1.559   2.595
   8623SM   O1111463   3.569   1.750   2.715
   8623SM   O1211464   3.585   1.737   2.469
   8623SM   C1S11465   3.639   1.875   2.717
   8623SM   H1S11466   3.572   1.959   2.691
   8623SM   H1T11467   3.724   1.876   2.645
   8623SM    NF11468   3.816   1.824   2.881
   8623SM   HNF11469   3.807   1.733   2.920
   8623SM   C2S11470   3.695   1.900   2.859
   8623SM   H2S11471   3.721   2.008   2.868
   8623SM   C3S11472   3.584   1.868   2.962
   8623SM   H3S11473   3.554   1.761   2.956
   8623SM    O311474   3.466   1.945   2.937
   8623SM   HO311475   3.437   1.911   2.852
   8623SM   C4S11476   3.634   1.898   3.100
   8623SM   H4S11477   3.640   2.005   3.125
   8623SM   C5S11478   3.672   1.808   3.193
   8623SM   H5S11479   3.668   1.700   3.171
   8623SM   C6S11480   3.722   1.847   3.329
   8623SM   H6S11481   3.685   1.948   3.359
   8623SM   H6T11482   3.833   1.851   3.329
   8623SM   C7S11483   3.679   1.746   3.437
   8623SM   H7S11484   3.726   1.648   3.415
   8623SM   H7T11485   3.569   1.732   3.438
   8623SM   C8S11486   3.725   1.790   3.577
   8623SM   H8S11487   3.826   1.835   3.569
   8623SM   H8T11488   3.732   1.701   3.642
   8623SM   C9S11489   3.629   1.890   3.643
   8623SM   H9S11490   3.534   1.837   3.666
   8623SM   H9T11491   3.605   1.973   3.573
   8623SM  C10S11492   3.687   1.949   3.772
   8623SM  H10S11493   3.764   2.026   3.748
   8623SM  H10T11494   3.738   1.868   3.829
   8623SM  C11S11495   3.578   2.009   3.862
   8623SM  H11S11496   3.506   1.927   3.884
   8623SM  H11T11497   3.523   2.090   3.808
   8623SM  C12S11498   3.631   2.060   3.995
   8623SM  H12S11499   3.688   2.155   3.981
   8623SM  H12T11500   3.702   1.984   4.035
   8623SM  C13S11501   3.520   2.080   4.099
   8623SM  H13S11502   3.454   1.991   4.095
   8623SM  H13T11503   3.458   2.168   4.074
   8623SM  C14S11504   3.576   2.091   4.241
   8623SM  H14S11505   3.620   2.191   4.258
   8623SM  H14T11506   3.657   2.016   4.251
   8623SM  C15S11507   3.472   2.060   4.350
   8623SM  H15S11508   3.417   1.968   4.319
   8623SM  H15T11509   3.397   2.142   4.357
   8623SM  C16S11510   3.535   2.033   4.487
   8623SM  H16S11511   3.634   1.985   4.474
   8623SM  H16T11512   3.472   1.960   4.541
   8623SM  C17S11513   3.549   2.158   4.574
   8623SM  H17S11514   3.453   2.214   4.573
   8623SM  H17T11515   3.627   2.225   4.530
   8623SM  C18S11516   3.585   2.125   4.719
   8623SM  H18S11517   3.683   2.074   4.725
   8623SM  H18T11518   3.508   2.059   4.764
   8623SM  H18U11519   3.590   2.218   4.780
   8623SM   C1F11520   3.931   1.855   2.822
   8623SM    OF11521   3.943   1.959   2.757
   8623SM   C2F11522   4.046   1.760   2.842
   8623SM   H2F11523   4.060   1.744   2.951
   8623SM   H2G11524   4.138   1.810   2.803
   8623SM   C3F11525   4.029   1.624   2.770
   8623SM   H3F11526   4.122   1.566   2.786
   8623SM   H3G11527   4.021   1.641   2.661
   8623SM   C4F11528   3.911   1.535   2.816
   8623SM   H4F11529   3.922   1.437   2.766
   8623SM   H4G11530   3.815   1.578   2.780
   8623SM   C5F11531   3.904   1.511   2.967
   8623SM   H5F11532   3.883   1.605   3.023
   8623SM   H5G11533   4.004   1.474   3.001
   8623SM   C6F11534   3.801   1.404   3.008
   8623SM   H6F11535   3.813   1.385   3.117
   8623SM   H6G11536   3.826   1.309   2.956
   8623SM   C7F11537   3.656   1.443   2.977
   8623SM   H7F11538   3.645   1.446   2.866
   8623SM   H7G11539   3.633   1.544   3.015
   8623SM   C8F11540   3.554   1.342   3.033
   8623SM   H8F11541   3.600   1.241   3.038
   8623SM   H8G11542   3.471   1.336   2.959
   8623SM   C9F11543   3.494   1.381   3.169
   8623SM   H9F11544   3.410   1.312   3.192
   8623SM   H9G11545   3.452   1.484   3.163
   8623SM  C10F11546   3.592   1.374   3.287
   8623SM  H10F11547   3.676   1.445   3.271
   8623SM  H10G11548   3.636   1.272   3.292
   8623SM  C11F11549   3.525   1.407   3.420
   8623SM  H11F11550   3.435   1.343   3.434
   8623SM  H11G11551   3.492   1.513   3.417
   8623SM  C12F11552   3.617   1.387   3.542
   8623SM  H12F11553   3.713   1.439   3.524
   8623SM  H12G11554   3.640   1.279   3.553
   8623SM  C13F11555   3.554   1.439   3.672
   8623SM  H13F11556   3.456   1.390   3.687
   8623SM  H13G11557   3.537   1.548   3.663
   8623SM  C14F11558   3.643   1.410   3.794
   8623SM  H14F11559   3.744   1.454   3.777
   8623SM  H14G11560   3.656   1.300   3.801
   8623SM  C15F11561   3.587   1.462   3.927
   8623SM  H15F11562   3.649   1.419   4.009
   8623SM  H15G11563   3.483   1.424   3.941
   8623SM  C16F11564   3.588   1.615   3.940
   8623SM  H16F11565   3.518   1.657   3.865
   8623SM  H16G11566   3.690   1.653   3.916
   8623SM  C17F11567   3.548   1.666   4.080
   8623SM  H17F11568   3.452   1.618   4.108
   8623SM  H17G11569   3.531   1.775   4.074
   8623SM  C18F11570   3.653   1.639   4.188
   8623SM  H18F11571   3.748   1.690   4.162
   8623SM  H18G11572   3.674   1.530   4.193
   8623SM  C19F11573   3.607   1.685   4.327
   8623SM  H19F11574   3.506   1.641   4.347
   8623SM  H19G11575   3.596   1.796   4.328
   8623SM  C20F11576   3.703   1.642   4.439
   8623SM  H20F11577   3.804   1.680   4.416
   8623SM  H20G11578   3.708   1.531   4.441
   8623SM  C21F11579   3.664   1.692   4.580
   8623SM  H21F11580   3.673   1.802   4.584
   8623SM  H21G11581   3.736   1.650   4.653
   8623SM  C22F11582   3.522   1.652   4.624
   8623SM  H22F11583   3.512   1.542   4.618
   8623SM  H22G11584   3.448   1.696   4.553
   8623SM  C23F11585   3.486   1.699   4.765
   8623SM  H23F11586   3.556   1.655   4.839
   8623SM  H23G11587   3.383   1.668   4.791
   8623SM  H23H11588   3.492   1.810   4.772
   8723SM     N11589   4.527   1.642   2.148
   8723SM   C1511590   4.552   1.789   2.138
   8723SM  H15A11591   4.656   1.810   2.120
   8723SM  H15B11592   4.523   1.839   2.230
   8723SM  H15C11593   4.495   1.833   2.057
   8723SM   C1411594   4.381   1.618   2.168
   8723SM  H14A11595   4.358   1.512   2.166
   8723SM  H14B11596   4.322   1.668   2.092
   8723SM  H14C11597   4.353   1.654   2.265
   8723SM   C1311598   4.571   1.577   2.021
   8723SM  H13A11599   4.676   1.595   2.003
   8723SM  H13B11600   4.516   1.615   1.936
   8723SM  H13C11601   4.557   1.469   2.024
   8723SM   C1211602   4.607   1.584   2.265
   8723SM  H12A11603   4.713   1.595   2.246
   8723SM  H12B11604   4.589   1.478   2.272
   8723SM   C1111605   4.581   1.642   2.407
   8723SM  H11A11606   4.607   1.750   2.406
   8723SM  H11B11607   4.652   1.595   2.478
   8723SM     P11608   4.400   1.493   2.518
   8723SM   O1311609   4.253   1.500   2.541
   8723SM   O1411610   4.448   1.376   2.440
   8723SM   O1111611   4.476   1.501   2.655
   8723SM   O1211612   4.444   1.627   2.446
   8723SM   C1S11613   4.457   1.617   2.737
   8723SM   H1S11614   4.350   1.634   2.760
   8723SM   H1T11615   4.494   1.707   2.683
   8723SM    NF11616   4.441   1.563   2.977
   8723SM   HNF11617   4.407   1.631   3.041
   8723SM   C2S11618   4.534   1.606   2.873
   8723SM   H2S11619   4.615   1.531   2.863
   8723SM   C3S11620   4.599   1.745   2.901
   8723SM   H3S11621   4.522   1.824   2.886
   8723SM    O311622   4.707   1.777   2.813
   8723SM   HO311623   4.714   1.702   2.752
   8723SM   C4S11624   4.651   1.752   3.041
   8723SM   H4S11625   4.736   1.685   3.063
   8723SM   C5S11626   4.603   1.833   3.137
   8723SM   H5S11627   4.520   1.902   3.114
   8723SM   C6S11628   4.654   1.841   3.279
   8723SM   H6S11629   4.663   1.947   3.310
   8723SM   H6T11630   4.755   1.796   3.288
   8723SM   C7S11631   4.560   1.767   3.376
   8723SM   H7S11632   4.560   1.659   3.351
   8723SM   H7T11633   4.456   1.805   3.366
   8723SM   C8S11634   4.605   1.784   3.522
   8723SM   H8S11635   4.593   1.891   3.551
   8723SM   H8T11636   4.713   1.759   3.528
   8723SM   C9S11637   4.527   1.695   3.619
   8723SM   H9S11638   4.526   1.590   3.581
   8723SM   H9T11639   4.422   1.730   3.626
   8723SM  C10S11640   4.591   1.695   3.759
   8723SM  H10S11641   4.597   1.800   3.795
   8723SM  H10T11642   4.694   1.655   3.751
   8723SM  C11S11643   4.515   1.609   3.862
   8723SM  H11S11644   4.496   1.508   3.820
   8723SM  H11T11645   4.417   1.656   3.882
   8723SM  C12S11646   4.592   1.594   3.995
   8723SM  H12S11647   4.681   1.529   3.978
   8723SM  H12T11648   4.526   1.543   4.069
   8723SM  C13S11649   4.640   1.728   4.053
   8723SM  H13S11650   4.553   1.797   4.064
   8723SM  H13T11651   4.711   1.775   3.982
   8723SM  C14S11652   4.711   1.716   4.188
   8723SM  H14S11653   4.798   1.648   4.177
   8723SM  H14T11654   4.642   1.672   4.263
   8723SM  C15S11655   4.760   1.853   4.237
   8723SM  H15S11656   4.673   1.917   4.261
   8723SM  H15T11657   4.817   1.901   4.155
   8723SM  C16S11658   4.853   1.842   4.359
   8723SM  H16S11659   4.937   1.775   4.334
   8723SM  H16T11660   4.797   1.797   4.444
   8723SM  C17S11661   4.909   1.978   4.401
   8723SM  H17S11662   4.824   2.046   4.424
   8723SM  H17T11663   4.965   2.023   4.316
   8723SM  C18S11664   5.001   1.969   4.523
   8723SM  H18S11665   4.952   1.912   4.605
   8723SM  H18T11666   5.026   2.070   4.562
   8723SM  H18U11667   5.095   1.917   4.497
   8723SM   C1F11668   4.392   1.439   2.979
   8723SM    OF11669   4.454   1.345   2.930
   8723SM   C2F11670   4.257   1.421   3.040
   8723SM   H2F11671   4.193   1.372   2.963
   8723SM   H2G11672   4.213   1.520   3.063
   8723SM   C3F11673   4.255   1.332   3.166
   8723SM   H3F11674   4.296   1.232   3.140
   8723SM   H3G11675   4.149   1.316   3.196
   8723SM   C4F11676   4.333   1.387   3.287
   8723SM   H4F11677   4.441   1.388   3.263
   8723SM   H4G11678   4.319   1.315   3.371
   8723SM   C5F11679   4.291   1.527   3.336
   8723SM   H5F11680   4.320   1.603   3.261
   8723SM   H5G11681   4.349   1.548   3.428
   8723SM   C6F11682   4.141   1.543   3.367
   8723SM   H6F11683   4.104   1.455   3.424
   8723SM   H6G11684   4.085   1.545   3.271
   8723SM   C7F11685   4.109   1.671   3.447
   8723SM   H7F11686   4.001   1.692   3.441
   8723SM   H7G11687   4.163   1.755   3.399
   8723SM   C8F11688   4.150   1.665   3.596
   8723SM   H8F11689   4.187   1.765   3.626
   8723SM   H8G11690   4.233   1.592   3.609
   8723SM   C9F11691   4.034   1.627   3.690
   8723SM   H9F11692   3.986   1.534   3.652
   8723SM   H9G11693   3.958   1.708   3.688
   8723SM  C10F11694   4.075   1.604   3.836
   8723SM  H10F11695   4.152   1.523   3.838
   8723SM  H10G11696   3.987   1.568   3.893
   8723SM  C11F11697   4.132   1.729   3.907
   8723SM  H11F11698   4.055   1.809   3.908
   8723SM  H11G11699   4.219   1.766   3.849
   8723SM  C12F11700   4.177   1.699   4.051
   8723SM  H12F11701   4.241   1.608   4.049
   8723SM  H12G11702   4.089   1.676   4.114
   8723SM  C13F11703   4.259   1.813   4.114
   8723SM  H13F11704   4.195   1.902   4.128
   8723SM  H13G11705   4.339   1.840   4.042
   8723SM  C14F11706   4.324   1.773   4.247
   8723SM  H14F11707   4.410   1.840   4.266
   8723SM  H14G11708   4.365   1.669   4.239
   8723SM  C15F11709   4.229   1.783   4.367
   8723SM  H15F11710   4.137   1.724   4.347
   8723SM  H15G11711   4.199   1.890   4.377
   8723SM  C16F11712   4.291   1.737   4.500
   8723SM  H16F11713   4.394   1.778   4.508
   8723SM  H16G11714   4.299   1.626   4.502
   8723SM  C17F11715   4.209   1.788   4.620
   8723SM  H17F11716   4.104   1.754   4.611
   8723SM  H17G11717   4.210   1.899   4.614
   8723SM  C18F11718   4.264   1.750   4.758
   8723SM  H18F11719   4.219   1.821   4.831
   8723SM  H18G11720   4.374   1.764   4.761
   8723SM  C19F11721   4.228   1.609   4.805
   8723SM  H19F11722   4.288   1.534   4.749
   8723SM  H19G11723   4.120   1.589   4.785
   8723SM  C20F11724   4.253   1.594   4.956
   8723SM  H20F11725   4.183   1.661   5.012
   8723SM  H20G11726   4.356   1.628   4.978
   8723SM  C21F11727   4.235   1.450   5.007
   8723SM  H21F11728   4.309   1.385   4.956
   8723SM  H21G11729   4.134   1.414   4.978
   8723SM  C22F11730   4.251   1.435   5.159
   8723SM  H22F11731   4.240   1.327   5.185
   8723SM  H22G11732   4.168   1.489   5.209
   8723SM  C23F11733   4.385   1.486   5.215
   8723SM  H23F11734   4.470   1.437   5.162
   8723SM  H23G11735   4.393   1.463   5.323
   8723SM  H23H11736   4.393   1.596   5.202
   8823SM     N11737   1.759   2.339   2.194
   8823SM   C1511738   1.836   2.264   2.090
   8823SM  H15A11739   1.778   2.248   2.000
   8823SM  H15B11740   1.871   2.169   2.126
   8823SM  H15C11741   1.924   2.320   2.062
   8823SM   C1411742   1.848   2.353   2.314
   8823SM  H14A11743   1.870   2.257   2.358
   8823SM  H14B11744   1.799   2.413   2.390
   8823SM  H14C11745   1.941   2.402   2.288
   8823SM   C1311746   1.725   2.476   2.144
   8823SM  H13A11747   1.669   2.528   2.220
   8823SM  H13B11748   1.663   2.472   2.056
   8823SM  H13C11749   1.814   2.534   2.123
   8823SM   C1211750   1.632   2.263   2.233
   8823SM  H12A11751   1.658   2.161   2.254
   8823SM  H12B11752   1.565   2.263   2.148
   8823SM   C1111753   1.551   2.312   2.356
   8823SM  H11A11754   1.607   2.276   2.446
   8823SM  H11B11755   1.454   2.259   2.357
   8823SM     P11756   1.540   2.534   2.493
   8823SM   O1311757   1.670   2.499   2.556
   8823SM   O1411758   1.513   2.676   2.466
   8823SM   O1111759   1.418   2.474   2.576
   8823SM   O1211760   1.528   2.454   2.357
   8823SM   C1S11761   1.436   2.376   2.679
   8823SM   H1S11762   1.520   2.306   2.657
   8823SM   H1T11763   1.344   2.312   2.685
   8823SM    NF11764   1.481   2.329   2.915
   8823SM   HNF11765   1.402   2.293   2.965
   8823SM   C2S11766   1.458   2.437   2.821
   8823SM   H2S11767   1.549   2.500   2.816
   8823SM   C3S11768   1.338   2.527   2.863
   8823SM   H3S11769   1.248   2.463   2.880
   8823SM    O311770   1.297   2.622   2.764
   8823SM   HO311771   1.342   2.591   2.685
   8823SM   C4S11772   1.373   2.599   2.991
   8823SM   H4S11773   1.423   2.697   2.978
   8823SM   C5S11774   1.347   2.555   3.116
   8823SM   H5S11775   1.295   2.458   3.128
   8823SM   C6S11776   1.383   2.624   3.245
   8823SM   H6S11777   1.291   2.636   3.307
   8823SM   H6T11778   1.421   2.727   3.228
   8823SM   C7S11779   1.487   2.545   3.328
   8823SM   H7S11780   1.588   2.569   3.287
   8823SM   H7T11781   1.472   2.435   3.317
   8823SM   C8S11782   1.484   2.577   3.478
   8823SM   H8S11783   1.468   2.687   3.492
   8823SM   H8T11784   1.581   2.551   3.524
   8823SM   C9S11785   1.374   2.498   3.551
   8823SM   H9S11786   1.399   2.390   3.552
   8823SM   H9T11787   1.280   2.509   3.492
   8823SM  C10S11788   1.342   2.546   3.694
   8823SM  H10S11789   1.246   2.499   3.725
   8823SM  H10T11790   1.328   2.656   3.695
   8823SM  C11S11791   1.447   2.507   3.800
   8823SM  H11S11792   1.545   2.554   3.776
   8823SM  H11T11793   1.460   2.397   3.797
   8823SM  C12S11794   1.403   2.547   3.942
   8823SM  H12S11795   1.299   2.513   3.959
   8823SM  H12T11796   1.404   2.658   3.951
   8823SM  C13S11797   1.493   2.486   4.051
   8823SM  H13S11798   1.598   2.519   4.036
   8823SM  H13T11799   1.491   2.375   4.039
   8823SM  C14S11800   1.449   2.520   4.194
   8823SM  H14S11801   1.341   2.496   4.205
   8823SM  H14T11802   1.461   2.629   4.212
   8823SM  C15S11803   1.529   2.440   4.298
   8823SM  H15S11804   1.637   2.463   4.286
   8823SM  H15T11805   1.514   2.332   4.277
   8823SM  C16S11806   1.487   2.468   4.443
   8823SM  H16S11807   1.379   2.447   4.455
   8823SM  H16T11808   1.503   2.575   4.466
   8823SM  C17S11809   1.567   2.382   4.542
   8823SM  H17S11810   1.675   2.403   4.529
   8823SM  H17T11811   1.551   2.275   4.517
   8823SM  C18S11812   1.530   2.405   4.689
   8823SM  H18S11813   1.423   2.381   4.706
   8823SM  H18T11814   1.547   2.511   4.717
   8823SM  H18U11815   1.591   2.341   4.756
   8823SM   C1F11816   1.597   2.264   2.925
   8823SM    OF11817   1.690   2.289   2.850
   8823SM   C2F11818   1.607   2.157   3.029
   8823SM   H2F11819   1.645   2.064   2.981
   8823SM   H2G11820   1.507   2.136   3.072
   8823SM   C3F11821   1.703   2.201   3.142
   8823SM   H3F11822   1.663   2.293   3.189
   8823SM   H3G11823   1.803   2.224   3.100
   8823SM   C4F11824   1.719   2.093   3.250
   8823SM   H4F11825   1.762   2.002   3.202
   8823SM   H4G11826   1.619   2.064   3.290
   8823SM   C5F11827   1.810   2.137   3.364
   8823SM   H5F11828   1.901   2.185   3.322
   8823SM   H5G11829   1.842   2.047   3.420
   8823SM   C6F11830   1.743   2.233   3.465
   8823SM   H6F11831   1.659   2.178   3.513
   8823SM   H6G11832   1.700   2.321   3.413
   8823SM   C7F11833   1.842   2.281   3.572
   8823SM   H7F11834   1.905   2.362   3.529
   8823SM   H7G11835   1.910   2.197   3.598
   8823SM   C8F11836   1.776   2.328   3.702
   8823SM   H8F11837   1.706   2.411   3.682
   8823SM   H8G11838   1.856   2.367   3.769
   8823SM   C9F11839   1.703   2.215   3.777
   8823SM   H9F11840   1.736   2.117   3.735
   8823SM   H9G11841   1.594   2.222   3.758
   8823SM  C10F11842   1.732   2.211   3.927
   8823SM  H10F11843   1.710   2.310   3.973
   8823SM  H10G11844   1.840   2.191   3.941
   8823SM  C11F11845   1.652   2.102   4.000
   8823SM  H11F11846   1.633   2.020   3.927
   8823SM  H11G11847   1.552   2.141   4.031
   8823SM  C12F11848   1.726   2.041   4.119
   8823SM  H12F11849   1.826   2.007   4.084
   8823SM  H12G11850   1.671   1.950   4.153
   8823SM  C13F11851   1.744   2.135   4.240
   8823SM  H13F11852   1.646   2.146   4.291
   8823SM  H13G11853   1.777   2.235   4.206
   8823SM  C14F11854   1.847   2.078   4.338
   8823SM  H14F11855   1.948   2.088   4.294
   8823SM  H14G11856   1.828   1.970   4.351
   8823SM  C15F11857   1.847   2.144   4.477
   8823SM  H15F11858   1.748   2.128   4.525
   8823SM  H15G11859   1.863   2.253   4.467
   8823SM  C16F11860   1.957   2.082   4.564
   8823SM  H16F11861   2.055   2.106   4.519
   8823SM  H16G11862   1.944   1.972   4.561
   8823SM  C17F11863   1.958   2.126   4.712
   8823SM  H17F11864   1.959   2.237   4.719
   8823SM  H17G11865   2.053   2.089   4.755
   8823SM  C18F11866   1.843   2.067   4.794
   8823SM  H18F11867   1.823   1.964   4.759
   8823SM  H18G11868   1.750   2.126   4.776
   8823SM  C19F11869   1.873   2.060   4.945
   8823SM  H19F11870   1.963   1.998   4.961
   8823SM  H19G11871   1.788   2.007   4.995
   8823SM  C20F11872   1.891   2.196   5.012
   8823SM  H20F11873   1.804   2.260   4.989
   8823SM  H20G11874   1.981   2.247   4.971
   8823SM  C21F11875   1.905   2.185   5.165
   8823SM  H21F11876   1.992   2.121   5.190
   8823SM  H21G11877   1.814   2.134   5.205
   8823SM  C22F11878   1.920   2.321   5.235
   8823SM  H22F11879   1.843   2.390   5.196
   8823SM  H22G11880   2.019   2.363   5.208
   8823SM  C23F11881   1.908   2.313   5.387
   8823SM  H23F11882   1.923   2.413   5.433
   8823SM  H23G11883   1.983   2.243   5.429
   8823SM  H23H11884   1.807   2.277   5.416
   8923SM     N11885   6.029   2.587   2.151
   8923SM   C1511886   5.929   2.672   2.078
   8923SM  H15A11887   5.828   2.641   2.101
   8923SM  H15B11888   5.940   2.662   1.971
   8923SM  H15C11889   5.938   2.776   2.103
   8923SM   C1411890   6.008   2.444   2.109
   8923SM  H14A11891   5.905   2.414   2.125
   8923SM  H14B11892   6.070   2.378   2.168
   8923SM  H14C11893   6.031   2.430   2.005
   8923SM   C1311894   6.167   2.627   2.111
   8923SM  H13A11895   6.240   2.565   2.163
   8923SM  H13B11896   6.188   2.730   2.135
   8923SM  H13C11897   6.182   2.612   2.005
   8923SM   C1211898   6.009   2.600   2.302
   8923SM  H12A11899   5.909   2.567   2.326
   8923SM  H12B11900   6.016   2.704   2.329
   8923SM   C1111901   6.104   2.519   2.394
   8923SM  H11A11902   6.105   2.568   2.494
   8923SM  H11B11903   6.209   2.525   2.357
   8923SM     P11904   5.937   2.343   2.489
   8923SM   O1311905   5.817   2.396   2.420
   8923SM   O1411906   5.939   2.199   2.521
   8923SM   O1111907   5.951   2.429   2.621
   8923SM   O1211908   6.065   2.381   2.403
   8923SM   C1S11909   6.054   2.409   2.718
   8923SM   H1S11910   6.151   2.447   2.679
   8923SM   H1T11911   6.068   2.301   2.742
   8923SM    NF11912   6.135   2.473   2.942
   8923SM   HNF11913   6.131   2.402   3.012
   8923SM   C2S11914   6.021   2.483   2.851
   8923SM   H2S11915   6.004   2.590   2.827
   8923SM   C3S11916   5.888   2.426   2.910
   8923SM   H3S11917   5.901   2.316   2.923
   8923SM    O311918   5.777   2.444   2.822
   8923SM   HO311919   5.822   2.450   2.737
   8923SM   C4S11920   5.854   2.489   3.042
   8923SM   H4S11921   5.859   2.599   3.044
   8923SM   C5S11922   5.819   2.422   3.154
   8923SM   H5S11923   5.811   2.312   3.150
   8923SM   C6S11924   5.783   2.483   3.287
   8923SM   H6S11925   5.800   2.593   3.289
   8923SM   H6T11926   5.847   2.439   3.367
   8923SM   C7S11927   5.635   2.455   3.321
   8923SM   H7S11928   5.614   2.346   3.314
   8923SM   H7T11929   5.570   2.505   3.245
   8923SM   C8S11930   5.590   2.502   3.461
   8923SM   H8S11931   5.481   2.485   3.468
   8923SM   H8T11932   5.608   2.611   3.472
   8923SM   C9S11933   5.658   2.426   3.576
   8923SM   H9S11934   5.762   2.463   3.589
   8923SM   H9T11935   5.664   2.319   3.547
   8923SM  C10S11936   5.582   2.434   3.710
   8923SM  H10S11937   5.637   2.371   3.784
   8923SM  H10T11938   5.481   2.389   3.697
   8923SM  C11S11939   5.568   2.576   3.766
   8923SM  H11S11940   5.513   2.639   3.692
   8923SM  H11T11941   5.669   2.620   3.778
   8923SM  C12S11942   5.493   2.583   3.901
   8923SM  H12S11943   5.389   2.547   3.888
   8923SM  H12T11944   5.490   2.689   3.932
   8923SM  C13S11945   5.561   2.501   4.012
   8923SM  H13S11946   5.671   2.517   4.005
   8923SM  H13T11947   5.543   2.393   3.997
   8923SM  C14S11948   5.517   2.543   4.153
   8923SM  H14S11949   5.411   2.514   4.170
   8923SM  H14T11950   5.523   2.653   4.161
   8923SM  C15S11951   5.606   2.482   4.262
   8923SM  H15S11952   5.712   2.492   4.231
   8923SM  H15T11953   5.585   2.373   4.271
   8923SM  C16S11954   5.590   2.549   4.399
   8923SM  H16S11955   5.487   2.535   4.437
   8923SM  H16T11956   5.607   2.659   4.387
   8923SM  C17S11957   5.690   2.495   4.503
   8923SM  H17S11958   5.793   2.501   4.460
   8923SM  H17T11959   5.669   2.388   4.520
   8923SM  C18S11960   5.687   2.571   4.636
   8923SM  H18S11961   5.759   2.526   4.707
   8923SM  H18T11962   5.586   2.567   4.681
   8923SM  H18U11963   5.714   2.678   4.620
   8923SM   C1F11964   6.248   2.541   2.922
   8923SM    OF11965   6.250   2.636   2.843
   8923SM   C2F11966   6.368   2.494   3.000
   8923SM   H2F11967   6.400   2.397   2.958
   8923SM   H2G11968   6.337   2.477   3.106
   8923SM   C3F11969   6.489   2.590   2.998
   8923SM   H3F11970   6.527   2.598   2.894
   8923SM   H3G11971   6.570   2.544   3.058
   8923SM   C4F11972   6.468   2.733   3.051
   8923SM   H4F11973   6.400   2.790   2.984
   8923SM   H4G11974   6.567   2.784   3.047
   8923SM   C5F11975   6.417   2.743   3.196
   8923SM   H5F11976   6.452   2.840   3.238
   8923SM   H5G11977   6.460   2.662   3.258
   8923SM   C6F11978   6.263   2.745   3.205
   8923SM   H6F11979   6.221   2.646   3.180
   8923SM   H6G11980   6.226   2.818   3.131
   8923SM   C7F11981   6.211   2.789   3.342
   8923SM   H7F11982   6.101   2.803   3.333
   8923SM   H7G11983   6.254   2.888   3.367
   8923SM   C8F11984   6.238   2.692   3.458
   8923SM   H8F11985   6.203   2.742   3.550
   8923SM   H8G11986   6.347   2.674   3.469
   8923SM   C9F11987   6.163   2.558   3.444
   8923SM   H9F11988   6.231   2.485   3.396
   8923SM   H9G11989   6.075   2.572   3.378
   8923SM  C10F11990   6.112   2.502   3.578
   8923SM  H10F11991   6.072   2.400   3.560
   8923SM  H10G11992   6.027   2.564   3.614
   8923SM  C11F11993   6.218   2.496   3.689
   8923SM  H11F11994   6.251   2.599   3.715
   8923SM  H11G11995   6.307   2.441   3.650
   8923SM  C12F11996   6.168   2.426   3.816
   8923SM  H12F11997   6.138   2.322   3.789
   8923SM  H12G11998   6.079   2.478   3.856
   8923SM  C13F11999   6.277   2.419   3.924
   8923SM  H13F12000   6.291   2.519   3.971
   8923SM  H13G12001   6.372   2.392   3.875
   8923SM  C14F12002   6.250   2.313   4.032
   8923SM  H14F12003   6.344   2.296   4.088
   8923SM  H14G12004   6.222   2.218   3.981
   8923SM  C15F12005   6.138   2.348   4.132
   8923SM  H15F12006   6.044   2.363   4.076
   8923SM  H15G12007   6.163   2.444   4.183
   8923SM  C16F12008   6.115   2.238   4.238
   8923SM  H16F12009   6.104   2.141   4.184
   8923SM  H16G12010   6.020   2.257   4.291
   8923SM  C17F12011   6.228   2.224   4.342
   8923SM  H17F12012   6.326   2.229   4.291
   8923SM  H17G12013   6.222   2.124   4.390
   8923SM  C18F12014   6.222   2.330   4.453
   8923SM  H18F12015   6.139   2.306   4.523
   8923SM  H18G12016   6.199   2.428   4.408
   8923SM  C19F12017   6.355   2.341   4.530
   8923SM  H19F12018   6.435   2.362   4.456
   8923SM  H19G12019   6.379   2.244   4.578
   8923SM  C20F12020   6.356   2.454   4.635
   8923SM  H20F12021   6.303   2.542   4.591
   8923SM  H20G12022   6.461   2.485   4.655
   8923SM  C21F12023   6.290   2.419   4.769
   8923SM  H21F12024   6.191   2.372   4.751
   8923SM  H21G12025   6.273   2.513   4.826
   8923SM  C22F12026   6.376   2.326   4.857
   8923SM  H22F12027   6.475   2.375   4.872
   8923SM  H22G12028   6.394   2.231   4.803
   8923SM  C23F12029   6.313   2.296   4.993
   8923SM  H23F12030   6.302   2.389   5.052
   8923SM  H23G12031   6.377   2.225   5.050
   8923SM  H23H12032   6.213   2.250   4.980
   9023SM     N12033   5.712   1.977   2.242
   9023SM   C1512034   5.769   1.840   2.223
   9023SM  H15A12035   5.873   1.837   2.253
   9023SM  H15B12036   5.761   1.808   2.120
   9023SM  H15C12037   5.715   1.770   2.284
   9023SM   C1412038   5.778   2.072   2.147
   9023SM  H14A12039   5.885   2.073   2.158
   9023SM  H14B12040   5.742   2.173   2.161
   9023SM  H14C12041   5.757   2.044   2.045
   9023SM   C1312042   5.566   1.971   2.210
   9023SM  H13A12043   5.518   1.906   2.282
   9023SM  H13B12044   5.548   1.933   2.111
   9023SM  H13C12045   5.520   2.069   2.220
   9023SM   C1212046   5.729   2.022   2.386
   9023SM  H12A12047   5.670   2.111   2.403
   9023SM  H12B12048   5.831   2.051   2.405
   9023SM   C1112049   5.687   1.920   2.495
   9023SM  H11A12050   5.710   1.964   2.594
   9023SM  H11B12051   5.751   1.829   2.488
   9023SM     P12052   5.439   1.959   2.565
   9023SM   O1312053   5.462   2.104   2.544
   9023SM   O1412054   5.305   1.906   2.530
   9023SM   O1112055   5.470   1.919   2.715
   9023SM   O1212056   5.549   1.880   2.483
   9023SM   C1S12057   5.523   1.789   2.746
   9023SM   H1S12058   5.607   1.761   2.679
   9023SM   H1T12059   5.446   1.711   2.735
   9023SM    NF12060   5.691   1.692   2.904
   9023SM   HNF12061   5.679   1.614   2.964
   9023SM   C2S12062   5.578   1.786   2.893
   9023SM   H2S12063   5.616   1.888   2.917
   9023SM   C3S12064   5.460   1.751   2.987
   9023SM   H3S12065   5.435   1.644   2.973
   9023SM    O312066   5.340   1.823   2.959
   9023SM   HO312067   5.366   1.887   2.892
   9023SM   C4S12068   5.504   1.768   3.132
   9023SM   H4S12069   5.548   1.677   3.176
   9023SM   C5S12070   5.493   1.878   3.209
   9023SM   H5S12071   5.445   1.967   3.167
   9023SM   C6S12072   5.537   1.893   3.353
   9023SM   H6S12073   5.461   1.952   3.408
   9023SM   H6T12074   5.630   1.954   3.355
   9023SM   C7S12075   5.564   1.766   3.439
   9023SM   H7S12076   5.610   1.799   3.534
   9023SM   H7T12077   5.638   1.700   3.389
   9023SM   C8S12078   5.437   1.686   3.473
   9023SM   H8S12079   5.395   1.645   3.379
   9023SM   H8T12080   5.361   1.755   3.516
   9023SM   C9S12081   5.460   1.570   3.572
   9023SM   H9S12082   5.550   1.512   3.543
   9023SM   H9T12083   5.372   1.502   3.564
   9023SM  C10S12084   5.471   1.613   3.720
   9023SM  H10S12085   5.385   1.680   3.743
   9023SM  H10T12086   5.564   1.672   3.736
   9023SM  C11S12087   5.467   1.493   3.816
   9023SM  H11S12088   5.562   1.436   3.809
   9023SM  H11T12089   5.386   1.426   3.782
   9023SM  C12S12090   5.438   1.528   3.963
   9023SM  H12S12091   5.411   1.434   4.017
   9023SM  H12T12092   5.350   1.596   3.969
   9023SM  C13S12093   5.554   1.592   4.039
   9023SM  H13S12094   5.582   1.686   3.987
   9023SM  H13T12095   5.641   1.524   4.035
   9023SM  C14S12096   5.520   1.626   4.185
   9023SM  H14S12097   5.417   1.667   4.189
   9023SM  H14T12098   5.588   1.706   4.221
   9023SM  C15S12099   5.531   1.507   4.283
   9023SM  H15S12100   5.474   1.421   4.243
   9023SM  H15T12101   5.484   1.537   4.379
   9023SM  C16S12102   5.676   1.464   4.312
   9023SM  H16S12103   5.733   1.550   4.353
   9023SM  H16T12104   5.724   1.434   4.216
   9023SM  C17S12105   5.687   1.346   4.410
   9023SM  H17S12106   5.791   1.306   4.405
   9023SM  H17T12107   5.619   1.264   4.377
   9023SM  C18S12108   5.657   1.381   4.556
   9023SM  H18S12109   5.664   1.290   4.620
   9023SM  H18T12110   5.555   1.423   4.567
   9023SM  H18U12111   5.730   1.455   4.594
   9023SM   C1F12112   5.807   1.711   2.840
   9023SM    OF12113   5.833   1.816   2.782
   9023SM   C2F12114   5.904   1.596   2.836
   9023SM   H2F12115   5.949   1.593   2.735
   9023SM   H2G12116   5.850   1.500   2.852
   9023SM   C3F12117   6.017   1.611   2.940
   9023SM   H3F12118   6.058   1.715   2.937
   9023SM   H3G12119   6.101   1.544   2.913
   9023SM   C4F12120   5.973   1.577   3.083
   9023SM   H4F12121   5.952   1.468   3.090
   9023SM   H4G12122   5.879   1.632   3.107
   9023SM   C5F12123   6.077   1.615   3.189
   9023SM   H5F12124   6.085   1.726   3.191
   9023SM   H5G12125   6.177   1.576   3.161
   9023SM   C6F12126   6.038   1.563   3.328
   9023SM   H6F12127   6.075   1.459   3.340
   9023SM   H6G12128   5.927   1.561   3.334
   9023SM   C7F12129   6.088   1.652   3.442
   9023SM   H7F12130   6.046   1.754   3.428
   9023SM   H7G12131   6.199   1.660   3.439
   9023SM   C8F12132   6.043   1.598   3.579
   9023SM   H8F12133   6.110   1.515   3.610
   9023SM   H8G12134   5.941   1.556   3.568
   9023SM   C9F12135   6.038   1.705   3.688
   9023SM   H9F12136   5.968   1.786   3.656
   9023SM   H9G12137   6.138   1.751   3.702
   9023SM  C10F12138   5.988   1.647   3.821
   9023SM  H10F12139   6.067   1.581   3.863
   9023SM  H10G12140   5.898   1.585   3.802
   9023SM  C11F12141   5.950   1.754   3.925
   9023SM  H11F12142   5.866   1.815   3.886
   9023SM  H11G12143   6.036   1.822   3.941
   9023SM  C12F12144   5.909   1.689   4.058
   9023SM  H12F12145   5.993   1.628   4.098
   9023SM  H12G12146   5.826   1.618   4.035
   9023SM  C13F12147   5.861   1.787   4.165
   9023SM  H13F12148   5.809   1.728   4.244
   9023SM  H13G12149   5.788   1.859   4.123
   9023SM  C14F12150   5.977   1.862   4.232
   9023SM  H14F12151   6.024   1.930   4.158
   9023SM  H14G12152   6.053   1.787   4.262
   9023SM  C15F12153   5.940   1.940   4.359
   9023SM  H15F12154   5.863   2.017   4.337
   9023SM  H15G12155   6.031   1.993   4.392
   9023SM  C16F12156   5.894   1.850   4.476
   9023SM  H16F12157   5.948   1.884   4.567
   9023SM  H16G12158   5.925   1.745   4.458
   9023SM  C17F12159   5.743   1.856   4.503
   9023SM  H17F12160   5.688   1.816   4.416
   9023SM  H17G12161   5.715   1.963   4.515
   9023SM  C18F12162   5.700   1.781   4.630
   9023SM  H18F12163   5.721   1.672   4.619
   9023SM  H18G12164   5.590   1.793   4.642
   9023SM  C19F12165   5.770   1.833   4.756
   9023SM  H19F12166   5.765   1.944   4.755
   9023SM  H19G12167   5.877   1.804   4.754
   9023SM  C20F12168   5.709   1.784   4.888
   9023SM  H20F12169   5.721   1.674   4.896
   9023SM  H20G12170   5.600   1.806   4.889
   9023SM  C21F12171   5.775   1.854   5.008
   9023SM  H21F12172   5.764   1.963   4.995
   9023SM  H21G12173   5.884   1.831   5.009
   9023SM  C22F12174   5.714   1.815   5.143
   9023SM  H22F12175   5.603   1.823   5.136
   9023SM  H22G12176   5.748   1.888   5.219
   9023SM  C23F12177   5.752   1.674   5.190
   9023SM  H23F12178   5.862   1.662   5.190
   9023SM  H23G12179   5.708   1.598   5.123
   9023SM  H23H12180   5.715   1.657   5.293
   9123SM     N12181   6.551   4.505   2.310
   9123SM   C1512182   6.614   4.368   2.305
   9123SM  H15A12183   6.721   4.375   2.299
   9123SM  H15B12184   6.581   4.312   2.219
   9123SM  H15C12185   6.591   4.311   2.394
   9123SM   C1412186   6.604   4.575   2.431
   9123SM  H14A12187   6.564   4.675   2.435
   9123SM  H14B12188   6.712   4.583   2.426
   9123SM  H14C12189   6.578   4.522   2.522
   9123SM   C1312190   6.594   4.585   2.191
   9123SM  H13A12191   6.557   4.686   2.202
   9123SM  H13B12192   6.555   4.543   2.099
   9123SM  H13C12193   6.702   4.591   2.186
   9123SM   C1212194   6.399   4.494   2.314
   9123SM  H12A12195   6.369   4.446   2.406
   9123SM  H12B12196   6.367   4.428   2.235
   9123SM   C1112197   6.313   4.623   2.300
   9123SM  H11A12198   6.209   4.591   2.278
   9123SM  H11B12199   6.346   4.683   2.213
   9123SM     P12200   6.355   4.847   2.433
   9123SM   O1312201   6.495   4.858   2.388
   9123SM   O1412202   6.256   4.938   2.369
   9123SM   O1112203   6.350   4.866   2.592
   9123SM   O1212204   6.310   4.697   2.422
   9123SM   C1S12205   6.439   4.777   2.663
   9123SM   H1S12206   6.544   4.802   2.636
   9123SM   H1T12207   6.422   4.671   2.636
   9123SM    NF12208   6.540   4.719   2.877
   9123SM   HNF12209   6.526   4.630   2.920
   9123SM   C2S12210   6.425   4.785   2.817
   9123SM   H2S12211   6.426   4.892   2.849
   9123SM   C3S12212   6.288   4.723   2.861
   9123SM   H3S12213   6.285   4.618   2.826
   9123SM    O312214   6.174   4.788   2.804
   9123SM   HO312215   6.210   4.835   2.729
   9123SM   C4S12216   6.276   4.726   3.011
   9123SM   H4S12217   6.259   4.827   3.053
   9123SM   C5S12218   6.283   4.619   3.092
   9123SM   H5S12219   6.299   4.520   3.047
   9123SM   C6S12220   6.271   4.618   3.243
   9123SM   H6S12221   6.371   4.595   3.286
   9123SM   H6T12222   6.204   4.536   3.274
   9123SM   C7S12223   6.222   4.748   3.310
   9123SM   H7S12224   6.116   4.767   3.281
   9123SM   H7T12225   6.282   4.835   3.276
   9123SM   C8S12226   6.232   4.745   3.464
   9123SM   H8S12227   6.185   4.838   3.503
   9123SM   H8T12228   6.339   4.747   3.493
   9123SM   C9S12229   6.165   4.623   3.530
   9123SM   H9S12230   6.227   4.532   3.514
   9123SM   H9T12231   6.066   4.606   3.481
   9123SM  C10S12232   6.139   4.642   3.680
   9123SM  H10S12233   6.076   4.559   3.718
   9123SM  H10T12234   6.083   4.737   3.694
   9123SM  C11S12235   6.267   4.649   3.766
   9123SM  H11S12236   6.336   4.723   3.720
   9123SM  H11T12237   6.318   4.551   3.767
   9123SM  C12S12238   6.240   4.696   3.910
   9123SM  H12S12239   6.177   4.788   3.906
   9123SM  H12T12240   6.336   4.722   3.958
   9123SM  C13S12241   6.167   4.593   3.999
   9123SM  H13S12242   6.225   4.498   4.000
   9123SM  H13T12243   6.068   4.573   3.954
   9123SM  C14S12244   6.146   4.641   4.144
   9123SM  H14S12245   6.077   4.570   4.194
   9123SM  H14T12246   6.098   4.740   4.146
   9123SM  C15S12247   6.275   4.648   4.227
   9123SM  H15S12248   6.338   4.732   4.192
   9123SM  H15T12249   6.331   4.553   4.212
   9123SM  C16S12250   6.247   4.662   4.377
   9123SM  H16S12251   6.193   4.571   4.409
   9123SM  H16T12252   6.181   4.750   4.395
   9123SM  C17S12253   6.374   4.677   4.460
   9123SM  H17S12254   6.417   4.778   4.443
   9123SM  H17T12255   6.448   4.602   4.422
   9123SM  C18S12256   6.355   4.653   4.610
   9123SM  H18S12257   6.328   4.547   4.630
   9123SM  H18T12258   6.274   4.718   4.651
   9123SM  H18U12259   6.448   4.676   4.666
   9123SM   C1F12260   6.663   4.768   2.865
   9123SM    OF12261   6.682   4.882   2.825
   9123SM   C2F12262   6.777   4.677   2.900
   9123SM   H2F12263   6.839   4.660   2.809
   9123SM   H2G12264   6.737   4.578   2.933
   9123SM   C3F12265   6.864   4.737   3.011
   9123SM   H3F12266   6.917   4.827   2.973
   9123SM   H3G12267   6.941   4.661   3.038
   9123SM   C4F12268   6.785   4.773   3.138
   9123SM   H4F12269   6.721   4.686   3.166
   9123SM   H4G12270   6.717   4.859   3.117
   9123SM   C5F12271   6.874   4.807   3.257
   9123SM   H5F12272   6.944   4.890   3.232
   9123SM   H5G12273   6.936   4.717   3.280
   9123SM   C6F12274   6.792   4.843   3.381
   9123SM   H6F12275   6.695   4.790   3.376
   9123SM   H6G12276   6.770   4.952   3.383
   9123SM   C7F12277   6.863   4.802   3.510
   9123SM   H7F12278   6.962   4.852   3.516
   9123SM   H7G12279   6.883   4.692   3.506
   9123SM   C8F12280   6.785   4.834   3.639
   9123SM   H8F12281   6.778   4.944   3.649
   9123SM   H8G12282   6.844   4.796   3.725
   9123SM   C9F12283   6.642   4.776   3.648
   9123SM   H9F12284   6.577   4.832   3.578
   9123SM   H9G12285   6.604   4.797   3.750
   9123SM  C10F12286   6.627   4.626   3.618
   9123SM  H10F12287   6.641   4.609   3.509
   9123SM  H10G12288   6.522   4.597   3.641
   9123SM  C11F12289   6.722   4.530   3.692
   9123SM  H11F12290   6.824   4.539   3.649
   9123SM  H11G12291   6.688   4.426   3.673
   9123SM  C12F12292   6.733   4.551   3.844
   9123SM  H12F12293   6.785   4.646   3.865
   9123SM  H12G12294   6.796   4.469   3.884
   9123SM  C13F12295   6.600   4.548   3.920
   9123SM  H13F12296   6.539   4.462   3.886
   9123SM  H13G12297   6.543   4.641   3.896
   9123SM  C14F12298   6.618   4.539   4.073
   9123SM  H14F12299   6.652   4.436   4.098
   9123SM  H14G12300   6.519   4.555   4.121
   9123SM  C15F12301   6.718   4.640   4.131
   9123SM  H15F12302   6.700   4.740   4.085
   9123SM  H15G12303   6.821   4.609   4.103
   9123SM  C16F12304   6.711   4.655   4.284
   9123SM  H16F12305   6.620   4.714   4.310
   9123SM  H16G12306   6.799   4.713   4.320
   9123SM  C17F12307   6.705   4.521   4.359
   9123SM  H17F12308   6.789   4.457   4.326
   9123SM  H17G12309   6.611   4.469   4.330
   9123SM  C18F12310   6.706   4.534   4.512
   9123SM  H18F12311   6.644   4.622   4.541
   9123SM  H18G12312   6.809   4.553   4.548
   9123SM  C19F12313   6.647   4.410   4.581
   9123SM  H19F12314   6.711   4.322   4.559
   9123SM  H19G12315   6.547   4.389   4.538
   9123SM  C20F12316   6.632   4.422   4.733
   9123SM  H20F12317   6.560   4.503   4.756
   9123SM  H20G12318   6.730   4.449   4.779
   9123SM  C21F12319   6.582   4.290   4.795
   9123SM  H21F12320   6.662   4.214   4.785
   9123SM  H21G12321   6.494   4.253   4.738
   9123SM  C22F12322   6.542   4.303   4.943
   9123SM  H22F12323   6.618   4.363   4.997
   9123SM  H22G12324   6.543   4.201   4.988
   9123SM  C23F12325   6.402   4.362   4.963
   9123SM  H23F12326   6.396   4.464   4.919
   9123SM  H23G12327   6.378   4.370   5.072
   9123SM  H23H12328   6.325   4.299   4.915
   9223SM     N12329   5.326   1.142   2.212
   9223SM   C1512330   5.194   1.073   2.204
   9223SM  H15A12331   5.144   1.090   2.109
   9223SM  H15B12332   5.129   1.109   2.282
   9223SM  H15C12333   5.205   0.966   2.217
   9223SM   C1412334   5.383   1.113   2.347
   9223SM  H14A12335   5.480   1.158   2.360
   9223SM  H14B12336   5.389   1.007   2.366
   9223SM  H14C12337   5.318   1.156   2.421
   9223SM   C1312338   5.417   1.090   2.105
   9223SM  H13A12339   5.511   1.143   2.105
   9223SM  H13B12340   5.374   1.099   2.007
   9223SM  H13C12341   5.439   0.985   2.122
   9223SM   C1212342   5.310   1.293   2.197
   9223SM  H12A12343   5.291   1.316   2.093
   9223SM  H12B12344   5.404   1.340   2.222
   9223SM   C1112345   5.200   1.363   2.282
   9223SM  H11A12346   5.102   1.334   2.237
   9223SM  H11B12347   5.209   1.473   2.268
   9223SM     P12348   5.079   1.294   2.500
   9223SM   O1312349   4.987   1.410   2.496
   9223SM   O1412350   5.029   1.166   2.446
   9223SM   O1112351   5.132   1.271   2.648
   9223SM   O1212352   5.211   1.332   2.421
   9223SM   C1S12353   5.047   1.309   2.758
   9223SM   H1S12354   4.942   1.277   2.742
   9223SM   H1T12355   5.048   1.420   2.770
   9223SM    NF12356   5.004   1.285   3.000
   9223SM   HNF12357   5.038   1.353   3.065
   9223SM   C2S12358   5.094   1.245   2.893
   9223SM   H2S12359   5.088   1.135   2.881
   9223SM   C3S12360   5.241   1.284   2.924
   9223SM   H3S12361   5.246   1.393   2.943
   9223SM    O312362   5.333   1.259   2.817
   9223SM   HO312363   5.275   1.248   2.742
   9223SM   C4S12364   5.290   1.209   3.045
   9223SM   H4S12365   5.296   1.100   3.031
   9223SM   C5S12366   5.327   1.263   3.163
   9223SM   H5S12367   5.320   1.372   3.177
   9223SM   C6S12368   5.377   1.186   3.283
   9223SM   H6S12369   5.476   1.226   3.312
   9223SM   H6T12370   5.392   1.079   3.259
   9223SM   C7S12371   5.285   1.194   3.407
   9223SM   H7S12372   5.193   1.134   3.389
   9223SM   H7T12373   5.255   1.299   3.426
   9223SM   C8S12374   5.357   1.140   3.532
   9223SM   H8S12375   5.442   1.208   3.555
   9223SM   H8T12376   5.399   1.040   3.511
   9223SM   C9S12377   5.267   1.130   3.657
   9223SM   H9S12378   5.195   1.046   3.643
   9223SM   H9T12379   5.207   1.224   3.667
   9223SM  C10S12380   5.349   1.108   3.784
   9223SM  H10S12381   5.410   1.200   3.802
   9223SM  H10T12382   5.421   1.025   3.768
   9223SM  C11S12383   5.266   1.079   3.910
   9223SM  H11S12384   5.223   0.977   3.903
   9223SM  H11T12385   5.181   1.150   3.916
   9223SM  C12S12386   5.352   1.092   4.037
   9223SM  H12S12387   5.389   1.196   4.042
   9223SM  H12T12388   5.440   1.026   4.029
   9223SM  C13S12389   5.279   1.059   4.168
   9223SM  H13S12390   5.259   0.950   4.175
   9223SM  H13T12391   5.181   1.112   4.170
   9223SM  C14S12392   5.362   1.106   4.289
   9223SM  H14S12393   5.386   1.213   4.275
   9223SM  H14T12394   5.457   1.050   4.292
   9223SM  C15S12395   5.291   1.091   4.424
   9223SM  H15S12396   5.279   0.984   4.449
   9223SM  H15T12397   5.189   1.136   4.418
   9223SM  C16S12398   5.369   1.163   4.536
   9223SM  H16S12399   5.376   1.271   4.511
   9223SM  H16T12400   5.472   1.122   4.540
   9223SM  C17S12401   5.305   1.148   4.674
   9223SM  H17S12402   5.302   1.040   4.700
   9223SM  H17T12403   5.200   1.184   4.669
   9223SM  C18S12404   5.378   1.224   4.785
   9223SM  H18S12405   5.483   1.188   4.793
   9223SM  H18T12406   5.328   1.210   4.883
   9223SM  H18U12407   5.380   1.333   4.762
   9223SM   C1F12408   4.879   1.241   3.010
   9223SM    OF12409   4.839   1.148   2.942
   9223SM   C2F12410   4.792   1.313   3.109
   9223SM   H2F12411   4.687   1.310   3.074
   9223SM   H2G12412   4.825   1.419   3.114
   9223SM   C3F12413   4.804   1.246   3.248
   9223SM   H3F12414   4.908   1.210   3.265
   9223SM   H3G12415   4.737   1.158   3.250
   9223SM   C4F12416   4.772   1.340   3.366
   9223SM   H4F12417   4.769   1.278   3.458
   9223SM   H4G12418   4.672   1.386   3.353
   9223SM   C5F12419   4.879   1.448   3.385
   9223SM   H5F12420   4.867   1.527   3.309
   9223SM   H5G12421   4.979   1.402   3.372
   9223SM   C6F12422   4.875   1.510   3.525
   9223SM   H6F12423   4.893   1.430   3.600
   9223SM   H6G12424   4.773   1.551   3.544
   9223SM   C7F12425   4.980   1.621   3.543
   9223SM   H7F12426   4.967   1.696   3.462
   9223SM   H7G12427   5.081   1.577   3.532
   9223SM   C8F12428   4.971   1.694   3.678
   9223SM   H8F12429   4.877   1.754   3.680
   9223SM   H8G12430   5.056   1.766   3.686
   9223SM   C9F12431   4.972   1.603   3.802
   9223SM   H9F12432   4.887   1.531   3.798
   9223SM   H9G12433   4.958   1.665   3.893
   9223SM  C10F12434   5.103   1.525   3.816
   9223SM  H10F12435   5.186   1.598   3.828
   9223SM  H10G12436   5.123   1.468   3.722
   9223SM  C11F12437   5.105   1.426   3.933
   9223SM  H11F12438   5.204   1.375   3.934
   9223SM  H11G12439   5.029   1.347   3.914
   9223SM  C12F12440   5.080   1.489   4.071
   9223SM  H12F12441   4.974   1.521   4.077
   9223SM  H12G12442   5.144   1.579   4.083
   9223SM  C13F12443   5.111   1.390   4.184
   9223SM  H13F12444   5.220   1.371   4.189
   9223SM  H13G12445   5.062   1.293   4.158
   9223SM  C14F12446   5.059   1.433   4.321
   9223SM  H14F12447   5.070   1.347   4.391
   9223SM  H14G12448   4.950   1.455   4.313
   9223SM  C15F12449   5.131   1.554   4.381
   9223SM  H15F12450   5.124   1.638   4.309
   9223SM  H15G12451   5.239   1.530   4.394
   9223SM  C16F12452   5.072   1.598   4.515
   9223SM  H16F12453   4.962   1.610   4.504
   9223SM  H16G12454   5.114   1.697   4.542
   9223SM  C17F12455   5.100   1.501   4.631
   9223SM  H17F12456   5.210   1.497   4.648
   9223SM  H17G12457   5.067   1.399   4.605
   9223SM  C18F12458   5.029   1.545   4.760
   9223SM  H18F12459   4.919   1.535   4.747
   9223SM  H18G12460   5.051   1.652   4.779
   9223SM  C19F12461   5.074   1.464   4.881
   9223SM  H19F12462   5.184   1.478   4.894
   9223SM  H19G12463   5.056   1.356   4.863
   9223SM  C20F12464   5.001   1.506   5.010
   9223SM  H20F12465   4.893   1.487   4.995
   9223SM  H20G12466   5.013   1.615   5.026
   9223SM  C21F12467   5.050   1.429   5.134
   9223SM  H21F12468   5.048   1.320   5.111
   9223SM  H21G12469   4.980   1.446   5.218
   9223SM  C22F12470   5.192   1.467   5.180
   9223SM  H22F12471   5.263   1.447   5.097
   9223SM  H22G12472   5.219   1.400   5.264
   9223SM  C23F12473   5.210   1.613   5.225
   9223SM  H23F12474   5.148   1.634   5.316
   9223SM  H23G12475   5.181   1.684   5.145
   9223SM  H23H12476   5.316   1.633   5.251
   9323SM     N12477   6.882   3.736   2.239
   9323SM   C1512478   6.794   3.656   2.329
   9323SM  H15A12479   6.838   3.560   2.354
   9323SM  H15B12480   6.698   3.638   2.282
   9323SM  H15C12481   6.775   3.710   2.420
   9323SM   C1412482   6.908   3.656   2.114
   9323SM  H14A12483   6.961   3.566   2.137
   9323SM  H14B12484   6.966   3.713   2.043
   9323SM  H14C12485   6.814   3.629   2.066
   9323SM   C1312486   6.810   3.862   2.203
   9323SM  H13A12487   6.790   3.918   2.293
   9323SM  H13B12488   6.716   3.841   2.155
   9323SM  H13C12489   6.869   3.927   2.141
   9323SM   C1212490   7.014   3.767   2.309
   9323SM  H12A12491   7.077   3.824   2.242
   9323SM  H12B12492   7.065   3.673   2.327
   9323SM   C1112493   7.008   3.844   2.443
   9323SM  H11A12494   7.110   3.845   2.488
   9323SM  H11B12495   6.944   3.788   2.514
   9323SM     P12496   6.859   4.047   2.517
   9323SM   O1312497   6.887   4.192   2.527
   9323SM   O1412498   6.722   4.010   2.473
   9323SM   O1112499   6.887   3.978   2.656
   9323SM   O1212500   6.965   3.979   2.422
   9323SM   C1S12501   6.925   4.055   2.770
   9323SM   H1S12502   6.834   4.101   2.814
   9323SM   H1T12503   6.995   4.136   2.743
   9323SM    NF12504   6.914   3.854   2.916
   9323SM   HNF12505   6.860   3.859   3.000
   9323SM   C2S12506   6.993   3.971   2.882
   9323SM   H2S12507   7.092   3.936   2.845
   9323SM   C3S12508   7.016   4.064   3.004
   9323SM   H3S12509   6.919   4.111   3.032
   9323SM    O312510   7.107   4.171   2.978
   9323SM   HO312511   7.144   4.155   2.892
   9323SM   C4S12512   7.066   3.979   3.118
   9323SM   H4S12513   7.168   3.942   3.106
   9323SM   C5S12514   6.995   3.947   3.228
   9323SM   H5S12515   6.893   3.986   3.242
   9323SM   C6S12516   7.046   3.857   3.337
   9323SM   H6S12517   7.151   3.827   3.318
   9323SM   H6T12518   6.987   3.763   3.335
   9323SM   C7S12519   7.039   3.910   3.482
   9323SM   H7S12520   6.942   3.961   3.501
   9323SM   H7T12521   7.120   3.984   3.499
   9323SM   C8S12522   7.054   3.792   3.580
   9323SM   H8S12523   7.151   3.741   3.561
   9323SM   H8T12524   6.972   3.720   3.557
   9323SM   C9S12525   7.043   3.829   3.728
   9323SM   H9S12526   7.030   3.735   3.786
   9323SM   H9T12527   6.954   3.892   3.746
   9323SM  C10S12528   7.168   3.899   3.783
   9323SM  H10S12529   7.174   4.002   3.741
   9323SM  H10T12530   7.259   3.844   3.751
   9323SM  C11S12531   7.166   3.906   3.936
   9323SM  H11S12532   7.165   3.802   3.977
   9323SM  H11T12533   7.071   3.955   3.968
   9323SM  C12S12534   7.284   3.983   3.996
   9323SM  H12S12535   7.286   4.085   3.952
   9323SM  H12T12536   7.379   3.932   3.968
   9323SM  C13S12537   7.275   3.993   4.149
   9323SM  H13S12538   7.285   3.892   4.193
   9323SM  H13T12539   7.174   4.031   4.176
   9323SM  C14S12540   7.380   4.087   4.208
   9323SM  H14S12541   7.372   4.186   4.158
   9323SM  H14T12542   7.481   4.046   4.185
   9323SM  C15S12543   7.367   4.109   4.360
   9323SM  H15S12544   7.442   4.186   4.388
   9323SM  H15T12545   7.267   4.151   4.385
   9323SM  C16S12546   7.393   3.983   4.445
   9323SM  H16S12547   7.449   4.013   4.536
   9323SM  H16T12548   7.457   3.912   4.388
   9323SM  C17S12549   7.265   3.913   4.491
   9323SM  H17S12550   7.204   3.885   4.403
   9323SM  H17T12551   7.206   3.987   4.550
   9323SM  C18S12552   7.290   3.790   4.578
   9323SM  H18S12553   7.194   3.746   4.611
   9323SM  H18T12554   7.348   3.818   4.669
   9323SM  H18U12555   7.347   3.714   4.522
   9323SM   C1F12556   6.910   3.742   2.845
   9323SM    OF12557   6.997   3.715   2.763
   9323SM   C2F12558   6.797   3.647   2.875
   9323SM   H2F12559   6.838   3.544   2.878
   9323SM   H2G12560   6.723   3.653   2.792
   9323SM   C3F12561   6.727   3.678   3.010
   9323SM   H3F12562   6.685   3.781   3.009
   9323SM   H3G12563   6.801   3.671   3.092
   9323SM   C4F12564   6.611   3.583   3.041
   9323SM   H4F12565   6.649   3.479   3.049
   9323SM   H4G12566   6.539   3.587   2.957
   9323SM   C5F12567   6.535   3.617   3.171
   9323SM   H5F12568   6.447   3.549   3.175
   9323SM   H5G12569   6.496   3.721   3.167
   9323SM   C6F12570   6.615   3.594   3.300
   9323SM   H6F12571   6.692   3.516   3.281
   9323SM   H6G12572   6.547   3.554   3.378
   9323SM   C7F12573   6.683   3.720   3.358
   9323SM   H7F12574   6.742   3.772   3.279
   9323SM   H7G12575   6.755   3.687   3.436
   9323SM   C8F12576   6.586   3.819   3.424
   9323SM   H8F12577   6.525   3.764   3.498
   9323SM   H8G12578   6.516   3.861   3.347
   9323SM   C9F12579   6.660   3.934   3.493
   9323SM   H9F12580   6.722   3.988   3.418
   9323SM   H9G12581   6.731   3.891   3.568
   9323SM  C10F12582   6.570   4.036   3.564
   9323SM  H10F12583   6.505   4.086   3.489
   9323SM  H10G12584   6.636   4.114   3.609
   9323SM  C11F12585   6.481   3.980   3.676
   9323SM  H11F12586   6.400   3.917   3.632
   9323SM  H11G12587   6.432   4.065   3.728
   9323SM  C12F12588   6.557   3.896   3.780
   9323SM  H12F12589   6.651   3.948   3.809
   9323SM  H12G12590   6.587   3.800   3.732
   9323SM  C13F12591   6.474   3.864   3.906
   9323SM  H13F12592   6.512   3.770   3.951
   9323SM  H13G12593   6.369   3.846   3.875
   9323SM  C14F12594   6.477   3.975   4.012
   9323SM  H14F12595   6.395   3.957   4.085
   9323SM  H14G12596   6.457   4.072   3.962
   9323SM  C15F12597   6.609   3.984   4.089
   9323SM  H15F12598   6.611   4.081   4.144
   9323SM  H15G12599   6.695   3.985   4.018
   9323SM  C16F12600   6.630   3.872   4.192
   9323SM  H16F12601   6.619   3.773   4.144
   9323SM  H16G12602   6.550   3.881   4.269
   9323SM  C17F12603   6.768   3.879   4.259
   9323SM  H17F12604   6.787   3.985   4.288
   9323SM  H17G12605   6.845   3.851   4.184
   9323SM  C18F12606   6.783   3.792   4.384
   9323SM  H18F12607   6.890   3.794   4.415
   9323SM  H18G12608   6.757   3.686   4.361
   9323SM  C19F12609   6.698   3.842   4.502
   9323SM  H19F12610   6.591   3.817   4.484
   9323SM  H19G12611   6.705   3.953   4.505
   9323SM  C20F12612   6.744   3.788   4.638
   9323SM  H20F12613   6.850   3.817   4.652
   9323SM  H20G12614   6.740   3.677   4.638
   9323SM  C21F12615   6.662   3.844   4.755
   9323SM  H21F12616   6.620   3.943   4.727
   9323SM  H21G12617   6.731   3.862   4.841
   9323SM  C22F12618   6.549   3.752   4.805
   9323SM  H22F12619   6.497   3.803   4.888
   9323SM  H22G12620   6.595   3.660   4.846
   9323SM  C23F12621   6.447   3.712   4.698
   9323SM  H23F12622   6.363   3.656   4.744
   9323SM  H23G12623   6.494   3.648   4.621
   9323SM  H23H12624   6.406   3.802   4.648
   9423SM     N12625   5.167   6.724   2.205
   9423SM   C1512626   5.054   6.736   2.302
   9423SM  H15A12627   5.081   6.688   2.395
   9423SM  H15B12628   4.964   6.692   2.265
   9423SM  H15C12629   5.032   6.839   2.326
   9423SM   C1412630   5.190   6.579   2.176
   9423SM  H14A12631   5.100   6.531   2.138
   9423SM  H14B12632   5.222   6.530   2.267
   9423SM  H14C12633   5.269   6.567   2.103
   9423SM   C1312634   5.131   6.793   2.077
   9423SM  H13A12635   5.105   6.897   2.095
   9423SM  H13B12636   5.045   6.746   2.031
   9423SM  H13C12637   5.212   6.789   2.007
   9423SM   C1212638   5.295   6.782   2.264
   9423SM  H12A12639   5.292   6.890   2.257
   9423SM  H12B12640   5.377   6.751   2.201
   9423SM   C1112641   5.330   6.743   2.410
   9423SM  H11A12642   5.260   6.796   2.478
   9423SM  H11B12643   5.432   6.783   2.432
   9423SM     P12644   5.429   6.519   2.511
   9423SM   O1312645   5.385   6.378   2.514
   9423SM   O1412646   5.563   6.547   2.454
   9423SM   O1112647   5.424   6.577   2.658
   9423SM   O1212648   5.320   6.602   2.433
   9423SM   C1S12649   5.305   6.628   2.716
   9423SM   H1S12650   5.215   6.573   2.681
   9423SM   H1T12651   5.291   6.735   2.689
   9423SM    NF12652   5.388   6.726   2.926
   9423SM   HNF12653   5.486   6.711   2.932
   9423SM   C2S12654   5.307   6.618   2.872
   9423SM   H2S12655   5.202   6.630   2.906
   9423SM   C3S12656   5.356   6.476   2.916
   9423SM   H3S12657   5.466   6.471   2.903
   9423SM    O312658   5.304   6.368   2.838
   9423SM   HO312659   5.301   6.404   2.749
   9423SM   C4S12660   5.321   6.455   3.060
   9423SM   H4S12661   5.217   6.482   3.086
   9423SM   C5S12662   5.400   6.407   3.158
   9423SM   H5S12663   5.503   6.376   3.136
   9423SM   C6S12664   5.353   6.390   3.300
   9423SM   H6S12665   5.290   6.477   3.331
   9423SM   H6T12666   5.440   6.388   3.369
   9423SM   C7S12667   5.268   6.263   3.321
   9423SM   H7S12668   5.330   6.173   3.303
   9423SM   H7T12669   5.185   6.262   3.247
   9423SM   C8S12670   5.204   6.254   3.461
   9423SM   H8S12671   5.134   6.168   3.464
   9423SM   H8T12672   5.146   6.347   3.479
   9423SM   C9S12673   5.305   6.238   3.575
   9423SM   H9S12674   5.376   6.323   3.574
   9423SM   H9T12675   5.363   6.144   3.560
   9423SM  C10S12676   5.237   6.233   3.713
   9423SM  H10S12677   5.175   6.141   3.719
   9423SM  H10T12678   5.169   6.321   3.723
   9423SM  C11S12679   5.339   6.236   3.828
   9423SM  H11S12680   5.400   6.328   3.819
   9423SM  H11T12681   5.407   6.149   3.818
   9423SM  C12S12682   5.274   6.233   3.967
   9423SM  H12S12683   5.223   6.135   3.982
   9423SM  H12T12684   5.196   6.313   3.973
   9423SM  C13S12685   5.378   6.256   4.077
   9423SM  H13S12686   5.418   6.359   4.066
   9423SM  H13T12687   5.462   6.185   4.062
   9423SM  C14S12688   5.324   6.239   4.220
   9423SM  H14S12689   5.282   6.137   4.231
   9423SM  H14T12690   5.241   6.312   4.237
   9423SM  C15S12691   5.435   6.260   4.323
   9423SM  H15S12692   5.474   6.363   4.311
   9423SM  H15T12693   5.517   6.189   4.302
   9423SM  C16S12694   5.390   6.243   4.469
   9423SM  H16S12695   5.342   6.144   4.482
   9423SM  H16T12696   5.315   6.321   4.494
   9423SM  C17S12697   5.507   6.256   4.568
   9423SM  H17S12698   5.562   6.351   4.547
   9423SM  H17T12699   5.578   6.172   4.551
   9423SM  C18S12700   5.463   6.257   4.714
   9423SM  H18S12701   5.551   6.266   4.782
   9423SM  H18T12702   5.409   6.164   4.739
   9423SM  H18U12703   5.395   6.343   4.733
   9423SM   C1F12704   5.338   6.850   2.932
   9423SM    OF12705   5.217   6.867   2.932
   9423SM   C2F12706   5.434   6.965   2.933
   9423SM   H2F12707   5.419   7.024   2.840
   9423SM   H2G12708   5.539   6.928   2.933
   9423SM   C3F12709   5.412   7.057   3.055
   9423SM   H3F12710   5.307   7.094   3.053
   9423SM   H3G12711   5.479   7.145   3.046
   9423SM   C4F12712   5.440   6.987   3.189
   9423SM   H4F12713   5.548   6.963   3.196
   9423SM   H4G12714   5.384   6.891   3.193
   9423SM   C5F12715   5.397   7.070   3.311
   9423SM   H5F12716   5.290   7.096   3.300
   9423SM   H5G12717   5.455   7.165   3.313
   9423SM   C6F12718   5.418   6.993   3.442
   9423SM   H6F12719   5.527   6.980   3.460
   9423SM   H6G12720   5.375   6.891   3.428
   9423SM   C7F12721   5.351   7.060   3.562
   9423SM   H7F12722   5.241   7.057   3.548
   9423SM   H7G12723   5.381   7.168   3.565
   9423SM   C8F12724   5.385   6.998   3.699
   9423SM   H8F12725   5.303   7.025   3.769
   9423SM   H8G12726   5.478   7.044   3.739
   9423SM   C9F12727   5.404   6.845   3.699
   9423SM   H9F12728   5.511   6.824   3.678
   9423SM   H9G12729   5.345   6.799   3.618
   9423SM  C10F12730   5.363   6.776   3.830
   9423SM  H10F12731   5.398   6.671   3.827
   9423SM  H10G12732   5.252   6.774   3.837
   9423SM  C11F12733   5.417   6.842   3.958
   9423SM  H11F12734   5.375   6.945   3.970
   9423SM  H11G12735   5.527   6.852   3.950
   9423SM  C12F12736   5.382   6.760   4.083
   9423SM  H12F12737   5.422   6.657   4.068
   9423SM  H12G12738   5.272   6.751   4.093
   9423SM  C13F12739   5.441   6.817   4.212
   9423SM  H13F12740   5.386   6.909   4.241
   9423SM  H13G12741   5.547   6.845   4.195
   9423SM  C14F12742   5.437   6.715   4.326
   9423SM  H14F12743   5.500   6.628   4.296
   9423SM  H14G12744   5.333   6.676   4.339
   9423SM  C15F12745   5.489   6.769   4.460
   9423SM  H15F12746   5.406   6.821   4.513
   9423SM  H15G12747   5.569   6.844   4.440
   9423SM  C16F12748   5.548   6.658   4.547
   9423SM  H16F12749   5.641   6.624   4.497
   9423SM  H16G12750   5.479   6.571   4.553
   9423SM  C17F12751   5.585   6.705   4.688
   9423SM  H17F12752   5.622   6.810   4.683
   9423SM  H17G12753   5.668   6.643   4.728
   9423SM  C18F12754   5.467   6.694   4.786
   9423SM  H18F12755   5.451   6.586   4.809
   9423SM  H18G12756   5.374   6.732   4.739
   9423SM  C19F12757   5.491   6.771   4.916
   9423SM  H19F12758   5.596   6.755   4.949
   9423SM  H19G12759   5.425   6.732   4.996
   9423SM  C20F12760   5.463   6.921   4.900
   9423SM  H20F12761   5.354   6.937   4.886
   9423SM  H20G12762   5.514   6.958   4.808
   9423SM  C21F12763   5.513   7.005   5.018
   9423SM  H21F12764   5.623   6.989   5.030
   9423SM  H21G12765   5.464   6.971   5.112
   9423SM  C22F12766   5.487   7.154   4.997
   9423SM  H22F12767   5.377   7.172   4.996
   9423SM  H22G12768   5.526   7.184   4.898
   9423SM  C23F12769   5.551   7.242   5.105
   9423SM  H23F12770   5.525   7.349   5.088
   9423SM  H23G12771   5.662   7.232   5.101
   9423SM  H23H12772   5.517   7.213   5.206
   9523SM     N12773   1.156   1.770   2.165
   9523SM   C1512774   1.012   1.777   2.121
   9523SM  H15A12775   0.977   1.879   2.117
   9523SM  H15B12776   0.948   1.722   2.188
   9523SM  H15C12777   1.001   1.732   2.023
   9523SM   C1412778   1.199   1.627   2.166
   9523SM  H14A12779   1.301   1.617   2.201
   9523SM  H14B12780   1.194   1.584   2.067
   9523SM  H14C12781   1.136   1.567   2.230
   9523SM   C1312782   1.239   1.846   2.066
   9523SM  H13A12783   1.344   1.840   2.093
   9523SM  H13B12784   1.211   1.950   2.063
   9523SM  H13C12785   1.229   1.805   1.967
   9523SM   C1212786   1.175   1.831   2.301
   9523SM  H12A12787   1.142   1.934   2.301
   9523SM  H12B12788   1.280   1.835   2.325
   9523SM   C1112789   1.106   1.759   2.418
   9523SM  H11A12790   1.148   1.657   2.434
   9523SM  H11B12791   0.998   1.747   2.398
   9523SM     P12792   1.259   1.844   2.611
   9523SM   O1312793   1.370   1.872   2.516
   9523SM   O1412794   1.238   1.935   2.725
   9523SM   O1112795   1.265   1.694   2.659
   9523SM   O1212796   1.123   1.842   2.531
   9523SM   C1S12797   1.350   1.652   2.766
   9523SM   H1S12798   1.437   1.720   2.780
   9523SM   H1T12799   1.393   1.552   2.742
   9523SM    NF12800   1.368   1.613   3.009
   9523SM   HNF12801   1.372   1.522   3.049
   9523SM   C2S12802   1.273   1.639   2.901
   9523SM   H2S12803   1.224   1.737   2.921
   9523SM   C3S12804   1.163   1.530   2.891
   9523SM   H3S12805   1.210   1.430   2.881
   9523SM    O312806   1.077   1.544   2.777
   9523SM   HO312807   1.128   1.602   2.720
   9523SM   C4S12808   1.076   1.534   3.013
   9523SM   H4S12809   1.005   1.618   3.015
   9523SM   C5S12810   1.078   1.449   3.117
   9523SM   H5S12811   1.150   1.366   3.122
   9523SM   C6S12812   0.986   1.463   3.236
   9523SM   H6S12813   0.964   1.363   3.279
   9523SM   H6T12814   0.889   1.509   3.209
   9523SM   C7S12815   1.051   1.550   3.345
   9523SM   H7S12816   1.077   1.651   3.306
   9523SM   H7T12817   1.146   1.500   3.376
   9523SM   C8S12818   0.962   1.564   3.469
   9523SM   H8S12819   0.924   1.463   3.494
   9523SM   H8T12820   0.874   1.629   3.447
   9523SM   C9S12821   1.040   1.618   3.590
   9523SM   H9S12822   1.067   1.724   3.576
   9523SM   H9T12823   1.134   1.560   3.594
   9523SM  C10S12824   0.966   1.596   3.723
   9523SM  H10S12825   0.902   1.505   3.714
   9523SM  H10T12826   0.900   1.683   3.745
   9523SM  C11S12827   1.064   1.571   3.839
   9523SM  H11S12828   1.134   1.656   3.847
   9523SM  H11T12829   1.123   1.480   3.815
   9523SM  C12S12830   0.994   1.548   3.973
   9523SM  H12S12831   0.914   1.472   3.961
   9523SM  H12T12832   0.945   1.643   4.006
   9523SM  C13S12833   1.092   1.500   4.080
   9523SM  H13S12834   1.178   1.571   4.084
   9523SM  H13T12835   1.133   1.401   4.049
   9523SM  C14S12836   1.030   1.489   4.219
   9523SM  H14S12837   0.948   1.415   4.220
   9523SM  H14T12838   0.986   1.588   4.245
   9523SM  C15S12839   1.135   1.454   4.326
   9523SM  H15S12840   1.095   1.479   4.426
   9523SM  H15T12841   1.225   1.516   4.309
   9523SM  C16S12842   1.175   1.305   4.325
   9523SM  H16S12843   1.187   1.270   4.221
   9523SM  H16T12844   1.093   1.247   4.371
   9523SM  C17S12845   1.306   1.277   4.401
   9523SM  H17S12846   1.391   1.312   4.339
   9523SM  H17T12847   1.316   1.167   4.413
   9523SM  C18S12848   1.314   1.345   4.538
   9523SM  H18S12849   1.223   1.323   4.598
   9523SM  H18T12850   1.321   1.456   4.527
   9523SM  H18U12851   1.403   1.311   4.594
   9523SM   C1F12852   1.455   1.707   3.047
   9523SM    OF12853   1.437   1.824   3.017
   9523SM   C2F12854   1.576   1.666   3.125
   9523SM   H2F12855   1.620   1.758   3.169
   9523SM   H2G12856   1.651   1.622   3.056
   9523SM   C3F12857   1.547   1.565   3.239
   9523SM   H3F12858   1.516   1.466   3.198
   9523SM   H3G12859   1.465   1.603   3.303
   9523SM   C4F12860   1.672   1.547   3.326
   9523SM   H4F12861   1.708   1.648   3.356
   9523SM   H4G12862   1.753   1.498   3.267
   9523SM   C5F12863   1.648   1.466   3.454
   9523SM   H5F12864   1.633   1.359   3.429
   9523SM   H5G12865   1.555   1.502   3.504
   9523SM   C6F12866   1.766   1.483   3.551
   9523SM   H6F12867   1.778   1.592   3.573
   9523SM   H6G12868   1.859   1.448   3.501
   9523SM   C7F12869   1.750   1.409   3.684
   9523SM   H7F12870   1.752   1.299   3.666
   9523SM   H7G12871   1.651   1.434   3.728
   9523SM   C8F12872   1.861   1.449   3.782
   9523SM   H8F12873   1.853   1.558   3.802
   9523SM   H8G12874   1.959   1.431   3.733
   9523SM   C9F12875   1.859   1.374   3.916
   9523SM   H9F12876   1.948   1.404   3.975
   9523SM   H9G12877   1.866   1.265   3.897
   9523SM  C10F12878   1.733   1.404   4.000
   9523SM  H10F12879   1.646   1.360   3.947
   9523SM  H10G12880   1.717   1.513   4.006
   9523SM  C11F12881   1.742   1.344   4.141
   9523SM  H11F12882   1.798   1.248   4.134
   9523SM  H11G12883   1.640   1.320   4.178
   9523SM  C12F12884   1.810   1.436   4.243
   9523SM  H12F12885   1.898   1.485   4.197
   9523SM  H12G12886   1.846   1.375   4.329
   9523SM  C13F12887   1.714   1.542   4.299
   9523SM  H13F12888   1.626   1.491   4.344
   9523SM  H13G12889   1.676   1.605   4.215
   9523SM  C14F12890   1.779   1.632   4.404
   9523SM  H14F12891   1.869   1.679   4.358
   9523SM  H14G12892   1.814   1.570   4.490
   9523SM  C15F12893   1.687   1.745   4.454
   9523SM  H15F12894   1.650   1.801   4.366
   9523SM  H15G12895   1.746   1.815   4.516
   9523SM  C16F12896   1.566   1.698   4.537
   9523SM  H16F12897   1.509   1.620   4.482
   9523SM  H16G12898   1.499   1.786   4.549
   9523SM  C17F12899   1.604   1.645   4.677
   9523SM  H17F12900   1.666   1.723   4.728
   9523SM  H17G12901   1.667   1.554   4.666
   9523SM  C18F12902   1.484   1.611   4.767
   9523SM  H18F12903   1.524   1.582   4.867
   9523SM  H18G12904   1.430   1.523   4.727
   9523SM  C19F12905   1.385   1.728   4.783
   9523SM  H19F12906   1.333   1.744   4.686
   9523SM  H19G12907   1.442   1.820   4.805
   9523SM  C20F12908   1.279   1.708   4.892
   9523SM  H20F12909   1.221   1.615   4.872
   9523SM  H20G12910   1.207   1.793   4.887
   9523SM  C21F12911   1.336   1.702   5.034
   9523SM  H21F12912   1.402   1.790   5.051
   9523SM  H21G12913   1.400   1.611   5.045
   9523SM  C22F12914   1.227   1.700   5.142
   9523SM  H22F12915   1.158   1.617   5.120
   9523SM  H22G12916   1.169   1.795   5.136
   9523SM  C23F12917   1.282   1.684   5.284
   9523SM  H23F12918   1.198   1.678   5.357
   9523SM  H23G12919   1.347   1.770   5.312
   9523SM  H23H12920   1.341   1.591   5.293
   9623SM     N12921   2.680   0.422   2.296
   9623SM   C1512922   2.828   0.431   2.279
   9623SM  H15A12923   2.858   0.436   2.175
   9623SM  H15B12924   2.875   0.343   2.321
   9623SM  H15C12925   2.869   0.516   2.331
   9623SM   C1412926   2.614   0.540   2.232
   9623SM  H14A12927   2.507   0.537   2.245
   9623SM  H14B12928   2.634   0.542   2.126
   9623SM  H14C12929   2.651   0.632   2.275
   9623SM   C1312930   2.633   0.295   2.230
   9623SM  H13A12931   2.678   0.211   2.281
   9623SM  H13B12932   2.661   0.292   2.126
   9623SM  H13C12933   2.526   0.283   2.238
   9623SM   C1212934   2.647   0.416   2.445
   9623SM  H12A12935   2.543   0.391   2.458
   9623SM  H12B12936   2.661   0.515   2.487
   9623SM   C1112937   2.729   0.318   2.531
   9623SM  H11A12938   2.687   0.320   2.634
   9623SM  H11B12939   2.833   0.356   2.538
   9623SM     P12940   2.850   0.091   2.485
   9623SM   O1312941   2.807  -0.049   2.460
   9623SM   O1412942   2.953   0.149   2.398
   9623SM   O1112943   2.895   0.105   2.637
   9623SM   O1212944   2.722   0.184   2.481
   9623SM   C1S12945   2.806   0.045   2.733
   9623SM   H1S12946   2.816  -0.066   2.725
   9623SM   H1T12947   2.700   0.071   2.714
   9623SM    NF12948   2.750   0.017   2.973
   9623SM   HNF12949   2.681   0.071   3.021
   9623SM   C2S12950   2.835   0.090   2.879
   9623SM   H2S12951   2.941   0.065   2.903
   9623SM   C3S12952   2.817   0.245   2.888
   9623SM   H3S12953   2.714   0.269   2.857
   9623SM    O312954   2.903   0.320   2.802
   9623SM   HO312955   2.932   0.254   2.738
   9623SM   C4S12956   2.839   0.290   3.029
   9623SM   H4S12957   2.944   0.287   3.063
   9623SM   C5S12958   2.741   0.332   3.112
   9623SM   H5S12959   2.637   0.333   3.076
   9623SM   C6S12960   2.761   0.376   3.254
   9623SM   H6S12961   2.700   0.466   3.276
   9623SM   H6T12962   2.867   0.403   3.274
   9623SM   C7S12963   2.721   0.261   3.348
   9623SM   H7S12964   2.786   0.174   3.328
   9623SM   H7T12965   2.616   0.229   3.328
   9623SM   C8S12966   2.735   0.299   3.496
   9623SM   H8S12967   2.824   0.363   3.509
   9623SM   H8T12968   2.750   0.207   3.556
   9623SM   C9S12969   2.613   0.373   3.551
   9623SM   H9S12970   2.529   0.301   3.568
   9623SM   H9T12971   2.579   0.447   3.476
   9623SM  C10S12972   2.644   0.448   3.681
   9623SM  H10S12973   2.552   0.503   3.711
   9623SM  H10T12974   2.725   0.522   3.662
   9623SM  C11S12975   2.685   0.359   3.799
   9623SM  H11S12976   2.767   0.290   3.770
   9623SM  H11T12977   2.596   0.298   3.826
   9623SM  C12S12978   2.730   0.440   3.922
   9623SM  H12S12979   2.666   0.529   3.933
   9623SM  H12T12980   2.834   0.475   3.908
   9623SM  C13S12981   2.718   0.355   4.050
   9623SM  H13S12982   2.788   0.269   4.043
   9623SM  H13T12983   2.615   0.316   4.053
   9623SM  C14S12984   2.742   0.429   4.182
   9623SM  H14S12985   2.683   0.523   4.183
   9623SM  H14T12986   2.849   0.455   4.193
   9623SM  C15S12987   2.696   0.340   4.298
   9623SM  H15S12988   2.750   0.243   4.293
   9623SM  H15T12989   2.588   0.318   4.284
   9623SM  C16S12990   2.715   0.402   4.437
   9623SM  H16S12991   2.684   0.509   4.433
   9623SM  H16T12992   2.823   0.399   4.464
   9623SM  C17S12993   2.632   0.331   4.545
   9623SM  H17S12994   2.524   0.345   4.520
   9623SM  H17T12995   2.650   0.380   4.643
   9623SM  C18S12996   2.660   0.181   4.556
   9623SM  H18S12997   2.594   0.135   4.633
   9623SM  H18T12998   2.766   0.163   4.585
   9623SM  H18U12999   2.641   0.129   4.460
   9623SM   C1F13000   2.755  -0.115   2.994
   9623SM    OF13001   2.813  -0.191   2.916
   9623SM   C2F13002   2.678  -0.172   3.108
   9623SM   H2F13003   2.597  -0.236   3.067
   9623SM   H2G13004   2.632  -0.090   3.167
   9623SM   C3F13005   2.769  -0.259   3.199
   9623SM   H3F13006   2.831  -0.191   3.261
   9623SM   H3G13007   2.838  -0.322   3.141
   9623SM   C4F13008   2.687  -0.351   3.291
   9623SM   H4F13009   2.655  -0.442   3.236
   9623SM   H4G13010   2.595  -0.296   3.321
   9623SM   C5F13011   2.763  -0.390   3.419
   9623SM   H5F13012   2.806  -0.297   3.462
   9623SM   H5G13013   2.848  -0.457   3.394
   9623SM   C6F13014   2.672  -0.454   3.525
   9623SM   H6F13015   2.649  -0.559   3.498
   9623SM   H6G13016   2.576  -0.397   3.525
   9623SM   C7F13017   2.732  -0.445   3.666
   9623SM   H7F13018   2.782  -0.347   3.676
   9623SM   H7G13019   2.811  -0.523   3.678
   9623SM   C8F13020   2.627  -0.455   3.777
   9623SM   H8F13021   2.592  -0.560   3.787
   9623SM   H8G13022   2.540  -0.392   3.750
   9623SM   C9F13023   2.682  -0.404   3.911
   9623SM   H9F13024   2.722  -0.301   3.896
   9623SM   H9G13025   2.769  -0.467   3.940
   9623SM  C10F13026   2.579  -0.402   4.024
   9623SM  H10F13027   2.556  -0.507   4.052
   9623SM  H10G13028   2.486  -0.354   3.989
   9623SM  C11F13029   2.629  -0.326   4.149
   9623SM  H11F13030   2.610  -0.218   4.136
   9623SM  H11G13031   2.739  -0.340   4.159
   9623SM  C12F13032   2.563  -0.376   4.278
   9623SM  H12F13033   2.581  -0.485   4.288
   9623SM  H12G13034   2.453  -0.361   4.271
   9623SM  C13F13035   2.613  -0.306   4.406
   9623SM  H13F13036   2.591  -0.197   4.401
   9623SM  H13G13037   2.724  -0.316   4.411
   9623SM  C14F13038   2.550  -0.367   4.532
   9623SM  H14F13039   2.576  -0.475   4.534
   9623SM  H14G13040   2.440  -0.359   4.525
   9623SM  C15F13041   2.597  -0.302   4.663
   9623SM  H15F13042   2.708  -0.290   4.661
   9623SM  H15G13043   2.573  -0.371   4.746
   9623SM  C16F13044   2.529  -0.168   4.691
   9623SM  H16F13045   2.419  -0.182   4.681
   9623SM  H16G13046   2.559  -0.094   4.613
   9623SM  C17F13047   2.558  -0.110   4.830
   9623SM  H17F13048   2.529  -0.185   4.907
   9623SM  H17G13049   2.494  -0.021   4.844
   9623SM  C18F13050   2.705  -0.071   4.851
   9623SM  H18F13051   2.734   0.003   4.774
   9623SM  H18G13052   2.769  -0.160   4.837
   9623SM  C19F13053   2.736  -0.012   4.991
   9623SM  H19F13054   2.842   0.019   4.993
   9623SM  H19G13055   2.723  -0.093   5.066
   9623SM  C20F13056   2.649   0.108   5.034
   9623SM  H20F13057   2.679   0.138   5.136
   9623SM  H20G13058   2.542   0.076   5.039
   9623SM  C21F13059   2.660   0.230   4.941
   9623SM  H21F13060   2.641   0.197   4.836
   9623SM  H21G13061   2.763   0.270   4.945
   9623SM  C22F13062   2.559   0.342   4.973
   9623SM  H22F13063   2.457   0.302   4.957
   9623SM  H22G13064   2.574   0.424   4.900
   9623SM  C23F13065   2.569   0.400   5.115
   9623SM  H23F13066   2.670   0.444   5.132
   9623SM  H23G13067   2.551   0.321   5.191
   9623SM  H23H13068   2.493   0.480   5.129
   9723SM     N13069   4.305   7.577   2.206
   9723SM   C1513070   4.158   7.581   2.176
   9723SM  H15A13071   4.140   7.610   2.073
   9723SM  H15B13072   4.110   7.654   2.240
   9723SM  H15C13073   4.111   7.486   2.193
   9723SM   C1413074   4.372   7.479   2.115
   9723SM  H14A13075   4.329   7.380   2.123
   9723SM  H14B13076   4.477   7.471   2.135
   9723SM  H14C13077   4.363   7.509   2.012
   9723SM   C1313078   4.363   7.712   2.179
   9723SM  H13A13079   4.347   7.743   2.077
   9723SM  H13B13080   4.469   7.714   2.199
   9723SM  H13C13081   4.316   7.785   2.245
   9723SM   C1213082   4.328   7.540   2.352
   9723SM  H12A13083   4.430   7.562   2.376
   9723SM  H12B13084   4.317   7.433   2.363
   9723SM   C1113085   4.239   7.608   2.459
   9723SM  H11A13086   4.269   7.569   2.559
   9723SM  H11B13087   4.133   7.575   2.445
   9723SM     P13088   4.353   7.832   2.532
   9723SM   O1313089   4.487   7.786   2.491
   9723SM   O1413090   4.324   7.977   2.518
   9723SM   O1113091   4.331   7.790   2.684
   9723SM   O1213092   4.244   7.750   2.453
   9723SM   C1S13093   4.196   7.785   2.735
   9723SM   H1S13094   4.153   7.685   2.716
   9723SM   H1T13095   4.129   7.860   2.688
   9723SM    NF13096   4.227   7.949   2.914
   9723SM   HNF13097   4.324   7.969   2.920
   9723SM   C2S13098   4.191   7.811   2.889
   9723SM   H2S13099   4.086   7.794   2.923
   9723SM   C3S13100   4.282   7.710   2.965
   9723SM   H3S13101   4.386   7.714   2.926
   9723SM    O313102   4.240   7.574   2.956
   9723SM   HO313103   4.155   7.575   2.912
   9723SM   C4S13104   4.283   7.745   3.112
   9723SM   H4S13105   4.186   7.729   3.161
   9723SM   C5S13106   4.387   7.790   3.184
   9723SM   H5S13107   4.486   7.802   3.136
   9723SM   C6S13108   4.380   7.823   3.332
   9723SM   H6S13109   4.278   7.804   3.372
   9723SM   H6T13110   4.401   7.931   3.348
   9723SM   C7S13111   4.480   7.741   3.416
   9723SM   H7S13112   4.584   7.767   3.388
   9723SM   H7T13113   4.465   7.633   3.394
   9723SM   C8S13114   4.462   7.760   3.568
   9723SM   H8S13115   4.526   7.686   3.620
   9723SM   H8T13116   4.357   7.737   3.596
   9723SM   C9S13117   4.498   7.900   3.620
   9723SM   H9S13118   4.426   7.974   3.578
   9723SM   H9T13119   4.600   7.929   3.585
   9723SM  C10S13120   4.494   7.909   3.774
   9723SM  H10S13121   4.572   7.843   3.817
   9723SM  H10T13122   4.395   7.871   3.808
   9723SM  C11S13123   4.512   8.052   3.828
   9723SM  H11S13124   4.447   8.119   3.769
   9723SM  H11T13125   4.617   8.085   3.813
   9723SM  C12S13126   4.473   8.066   3.976
   9723SM  H12S13127   4.371   8.023   3.991
   9723SM  H12T13128   4.467   8.174   4.001
   9723SM  C13S13129   4.569   7.999   4.075
   9723SM  H13S13130   4.668   8.048   4.068
   9723SM  H13T13131   4.583   7.892   4.048
   9723SM  C14S13132   4.517   8.007   4.219
   9723SM  H14S13133   4.423   7.949   4.227
   9723SM  H14T13134   4.493   8.113   4.244
   9723SM  C15S13135   4.618   7.955   4.323
   9723SM  H15S13136   4.709   8.018   4.319
   9723SM  H15T13137   4.647   7.851   4.298
   9723SM  C16S13138   4.561   7.958   4.466
   9723SM  H16S13139   4.474   7.888   4.472
   9723SM  H16T13140   4.524   8.060   4.488
   9723SM  C17S13141   4.664   7.918   4.572
   9723SM  H17S13142   4.749   7.990   4.567
   9723SM  H17T13143   4.705   7.817   4.549
   9723SM  C18S13144   4.608   7.918   4.714
   9723SM  H18S13145   4.553   8.012   4.734
   9723SM  H18T13146   4.689   7.908   4.789
   9723SM  H18U13147   4.537   7.833   4.728
   9723SM   C1F13148   4.139   8.047   2.906
   9723SM    OF13149   4.030   8.032   2.852
   9723SM   C2F13150   4.176   8.176   2.972
   9723SM   H2F13151   4.105   8.255   2.942
   9723SM   H2G13152   4.279   8.206   2.942
   9723SM   C3F13153   4.168   8.154   3.125
   9723SM   H3F13154   4.241   8.076   3.157
   9723SM   H3G13155   4.066   8.117   3.149
   9723SM   C4F13156   4.193   8.280   3.209
   9723SM   H4F13157   4.114   8.355   3.188
   9723SM   H4G13158   4.291   8.326   3.180
   9723SM   C5F13159   4.195   8.249   3.360
   9723SM   H5F13160   4.234   8.337   3.415
   9723SM   H5G13161   4.266   8.165   3.377
   9723SM   C6F13162   4.058   8.211   3.417
   9723SM   H6F13163   3.993   8.171   3.336
   9723SM   H6G13164   4.008   8.303   3.454
   9723SM   C7F13165   4.064   8.105   3.528
   9723SM   H7F13166   4.112   8.013   3.489
   9723SM   H7G13167   3.960   8.080   3.557
   9723SM   C8F13168   4.140   8.153   3.652
   9723SM   H8F13169   4.088   8.243   3.691
   9723SM   H8G13170   4.243   8.183   3.624
   9723SM   C9F13171   4.149   8.049   3.765
   9723SM   H9F13172   4.208   8.093   3.849
   9723SM   H9G13173   4.205   7.961   3.728
   9723SM  C10F13174   4.014   8.002   3.820
   9723SM  H10F13175   3.958   7.953   3.737
   9723SM  H10G13176   3.954   8.090   3.852
   9723SM  C11F13177   4.025   7.901   3.935
   9723SM  H11F13178   4.112   7.834   3.917
   9723SM  H11G13179   3.934   7.838   3.935
   9723SM  C12F13180   4.036   7.965   4.074
   9723SM  H12F13181   3.947   8.030   4.090
   9723SM  H12G13182   4.126   8.029   4.080
   9723SM  C13F13183   4.040   7.860   4.186
   9723SM  H13F13184   4.138   7.808   4.182
   9723SM  H13G13185   3.961   7.784   4.168
   9723SM  C14F13186   4.018   7.920   4.326
   9723SM  H14F13187   3.917   7.965   4.329
   9723SM  H14G13188   4.092   8.001   4.344
   9723SM  C15F13189   4.028   7.816   4.439
   9723SM  H15F13190   3.967   7.727   4.413
   9723SM  H15G13191   3.986   7.859   4.532
   9723SM  C16F13192   4.173   7.772   4.468
   9723SM  H16F13193   4.234   7.862   4.489
   9723SM  H16G13194   4.215   7.724   4.377
   9723SM  C17F13195   4.186   7.675   4.586
   9723SM  H17F13196   4.120   7.587   4.570
   9723SM  H17G13197   4.152   7.727   4.678
   9723SM  C18F13198   4.331   7.626   4.604
   9723SM  H18F13199   4.397   7.714   4.616
   9723SM  H18G13200   4.361   7.576   4.510
   9723SM  C19F13201   4.354   7.528   4.720
   9723SM  H19F13202   4.451   7.479   4.702
   9723SM  H19G13203   4.277   7.448   4.721
   9723SM  C20F13204   4.363   7.595   4.859
   9723SM  H20F13205   4.404   7.697   4.846
   9723SM  H20G13206   4.436   7.538   4.922
   9723SM  C21F13207   4.230   7.598   4.935
   9723SM  H21F13208   4.211   7.498   4.979
   9723SM  H21G13209   4.147   7.620   4.864
   9723SM  C22F13210   4.227   7.704   5.046
   9723SM  H22F13211   4.318   7.694   5.110
   9723SM  H22G13212   4.139   7.685   5.111
   9723SM  C23F13213   4.217   7.848   4.994
   9723SM  H23F13214   4.306   7.875   4.934
   9723SM  H23G13215   4.209   7.920   5.078
   9723SM  H23H13216   4.127   7.859   4.930
   9823SM     N13217   6.500   7.460   2.300
   9823SM   C1513218   6.559   7.596   2.276
   9823SM  H15A13219   6.529   7.665   2.353
   9823SM  H15B13220   6.528   7.636   2.180
   9823SM  H15C13221   6.666   7.589   2.277
   9823SM   C1413222   6.350   7.468   2.297
   9823SM  H14A13223   6.314   7.499   2.200
   9823SM  H14B13224   6.314   7.539   2.371
   9823SM  H14C13225   6.307   7.372   2.321
   9823SM   C1313226   6.545   7.367   2.192
   9823SM  H13A13227   6.519   7.401   2.092
   9823SM  H13B13228   6.505   7.268   2.207
   9823SM  H13C13229   6.653   7.357   2.196
   9823SM   C1213230   6.543   7.406   2.436
   9823SM  H12A13231   6.502   7.306   2.446
   9823SM  H12B13232   6.495   7.464   2.513
   9823SM   C1113233   6.694   7.397   2.468
   9823SM  H11A13234   6.706   7.363   2.573
   9823SM  H11B13235   6.738   7.500   2.464
   9823SM     P13236   6.754   7.156   2.386
   9823SM   O1313237   6.612   7.117   2.379
   9823SM   O1413238   6.841   7.098   2.281
   9823SM   O1113239   6.809   7.117   2.529
   9823SM   O1213240   6.766   7.313   2.378
   9823SM   C1S13241   6.930   7.169   2.584
   9823SM   H1S13242   6.966   7.258   2.529
   9823SM   H1T13243   7.010   7.091   2.577
   9823SM    NF13244   7.035   7.267   2.784
   9823SM   HNF13245   7.096   7.208   2.837
   9823SM   C2S13246   6.911   7.208   2.734
   9823SM   H2S13247   6.831   7.284   2.739
   9823SM   C3S13248   6.866   7.084   2.817
   9823SM   H3S13249   6.951   7.014   2.824
   9823SM    O313250   6.759   7.009   2.759
   9823SM   HO313251   6.756   7.042   2.669
   9823SM   C4S13252   6.824   7.127   2.955
   9823SM   H4S13253   6.750   7.208   2.956
   9823SM   C5S13254   6.866   7.075   3.072
   9823SM   H5S13255   6.936   6.990   3.073
   9823SM   C6S13256   6.818   7.124   3.206
   9823SM   H6S13257   6.743   7.053   3.247
   9823SM   H6T13258   6.766   7.222   3.197
   9823SM   C7S13259   6.927   7.138   3.314
   9823SM   H7S13260   6.883   7.195   3.399
   9823SM   H7T13261   7.013   7.199   3.276
   9823SM   C8S13262   6.977   7.003   3.369
   9823SM   H8S13263   7.022   6.944   3.286
   9823SM   H8T13264   6.891   6.945   3.407
   9823SM   C9S13265   7.081   7.017   3.482
   9823SM   H9S13266   7.167   7.078   3.447
   9823SM   H9T13267   7.119   6.915   3.505
   9823SM  C10S13268   7.022   7.078   3.609
   9823SM  H10S13269   6.932   7.018   3.637
   9823SM  H10T13270   6.988   7.182   3.590
   9823SM  C11S13271   7.118   7.079   3.729
   9823SM  H11S13272   7.205   7.144   3.706
   9823SM  H11T13273   7.155   6.975   3.746
   9823SM  C12S13274   7.047   7.128   3.856
   9823SM  H12S13275   6.966   7.057   3.880
   9823SM  H12T13276   7.001   7.227   3.835
   9823SM  C13S13277   7.137   7.142   3.979
   9823SM  H13S13278   7.226   7.205   3.954
   9823SM  H13T13279   7.174   7.042   4.008
   9823SM  C14S13280   7.062   7.207   4.097
   9823SM  H14S13281   6.971   7.147   4.120
   9823SM  H14T13282   7.029   7.308   4.065
   9823SM  C15S13283   7.147   7.222   4.225
   9823SM  H15S13284   7.095   7.291   4.295
   9823SM  H15T13285   7.244   7.267   4.198
   9823SM  C16S13286   7.170   7.088   4.297
   9823SM  H16S13287   7.209   7.016   4.222
   9823SM  H16T13288   7.075   7.048   4.336
   9823SM  C17S13289   7.274   7.097   4.410
   9823SM  H17S13290   7.362   7.153   4.371
   9823SM  H17T13291   7.309   6.994   4.434
   9823SM  C18S13292   7.224   7.163   4.538
   9823SM  H18S13293   7.308   7.179   4.609
   9823SM  H18T13294   7.148   7.099   4.588
   9823SM  H18U13295   7.176   7.261   4.517
   9823SM   C1F13296   7.077   7.385   2.740
   9823SM    OF13297   6.999   7.461   2.683
   9823SM   C2F13298   7.222   7.417   2.759
   9823SM   H2F13299   7.275   7.385   2.666
   9823SM   H2G13300   7.263   7.358   2.843
   9823SM   C3F13301   7.252   7.567   2.782
   9823SM   H3F13302   7.196   7.628   2.707
   9823SM   H3G13303   7.360   7.583   2.761
   9823SM   C4F13304   7.226   7.622   2.924
   9823SM   H4F13305   7.252   7.730   2.922
   9823SM   H4G13306   7.295   7.574   2.996
   9823SM   C5F13307   7.082   7.609   2.976
   9823SM   H5F13308   7.065   7.505   3.010
   9823SM   H5G13309   7.011   7.630   2.894
   9823SM   C6F13310   7.055   7.707   3.091
   9823SM   H6F13311   7.056   7.809   3.048
   9823SM   H6G13312   7.139   7.702   3.164
   9823SM   C7F13313   6.921   7.684   3.162
   9823SM   H7F13314   6.843   7.662   3.086
   9823SM   H7G13315   6.891   7.779   3.213
   9823SM   C8F13316   6.922   7.573   3.269
   9823SM   H8F13317   6.955   7.477   3.223
   9823SM   H8G13318   6.818   7.559   3.305
   9823SM   C9F13319   7.013   7.607   3.389
   9823SM   H9F13320   6.989   7.710   3.423
   9823SM   H9G13321   7.118   7.606   3.354
   9823SM  C10F13322   6.999   7.511   3.508
   9823SM  H10F13323   7.081   7.533   3.580
   9823SM  H10G13324   7.010   7.405   3.474
   9823SM  C11F13325   6.867   7.529   3.582
   9823SM  H11F13326   6.783   7.489   3.520
   9823SM  H11G13327   6.849   7.638   3.597
   9823SM  C12F13328   6.863   7.463   3.721
   9823SM  H12F13329   6.943   7.507   3.785
   9823SM  H12G13330   6.883   7.354   3.711
   9823SM  C13F13331   6.727   7.484   3.787
   9823SM  H13F13332   6.652   7.422   3.732
   9823SM  H13G13333   6.697   7.590   3.773
   9823SM  C14F13334   6.719   7.452   3.937
   9823SM  H14F13335   6.779   7.362   3.961
   9823SM  H14G13336   6.613   7.429   3.960
   9823SM  C15F13337   6.760   7.570   4.026
   9823SM  H15F13338   6.715   7.663   3.984
   9823SM  H15G13339   6.871   7.583   4.025
   9823SM  C16F13340   6.710   7.558   4.171
   9823SM  H16F13341   6.600   7.541   4.170
   9823SM  H16G13342   6.727   7.655   4.222
   9823SM  C17F13343   6.777   7.446   4.253
   9823SM  H17F13344   6.852   7.395   4.188
   9823SM  H17G13345   6.701   7.371   4.282
   9823SM  C18F13346   6.849   7.498   4.379
   9823SM  H18F13347   6.921   7.577   4.350
   9823SM  H18G13348   6.907   7.414   4.423
   9823SM  C19F13349   6.753   7.553   4.486
   9823SM  H19F13350   6.684   7.472   4.518
   9823SM  H19G13351   6.691   7.635   4.443
   9823SM  C20F13352   6.829   7.607   4.608
   9823SM  H20F13353   6.898   7.687   4.575
   9823SM  H20G13354   6.890   7.524   4.650
   9823SM  C21F13355   6.737   7.663   4.718
   9823SM  H21F13356   6.666   7.583   4.750
   9823SM  H21G13357   6.677   7.746   4.674
   9823SM  C22F13358   6.812   7.716   4.841
   9823SM  H22F13359   6.739   7.764   4.909
   9823SM  H22G13360   6.883   7.795   4.808
   9823SM  C23F13361   6.888   7.609   4.920
   9823SM  H23F13362   6.819   7.528   4.953
   9823SM  H23G13363   6.935   7.654   5.011
   9823SM  H23H13364   6.969   7.563   4.859
   9923SM     N13365   0.518   7.191   2.183
   9923SM   C1513366   0.487   7.063   2.256
   9923SM  H15A13367   0.550   7.054   2.344
   9923SM  H15B13368   0.506   6.977   2.194
   9923SM  H15C13369   0.384   7.061   2.289
   9923SM   C1413370   0.662   7.189   2.142
   9923SM  H14A13371   0.689   7.280   2.091
   9923SM  H14B13372   0.685   7.106   2.077
   9923SM  H14C13373   0.724   7.184   2.230
   9923SM   C1313374   0.433   7.200   2.060
   9923SM  H13A13375   0.464   7.284   2.000
   9923SM  H13B13376   0.329   7.212   2.086
   9923SM  H13C13377   0.444   7.111   1.999
   9923SM   C1213378   0.491   7.310   2.274
   9923SM  H12A13379   0.385   7.318   2.291
   9923SM  H12B13380   0.520   7.401   2.223
   9923SM   C1113381   0.561   7.312   2.413
   9923SM  H11A13382   0.527   7.225   2.472
   9923SM  H11B13383   0.530   7.403   2.468
   9923SM     P13384   0.801   7.422   2.423
   9923SM   O1313385   0.935   7.377   2.379
   9923SM   O1413386   0.747   7.546   2.361
   9923SM   O1113387   0.804   7.435   2.580
   9923SM   O1213388   0.703   7.303   2.398
   9923SM   C1S13389   0.826   7.315   2.656
   9923SM   H1S13390   0.935   7.301   2.671
   9923SM   H1T13391   0.789   7.223   2.606
   9923SM    NF13392   0.619   7.293   2.790
   9923SM   HNF13393   0.554   7.369   2.789
   9923SM   C2S13394   0.761   7.324   2.797
   9923SM   H2S13395   0.809   7.248   2.862
   9923SM   C3S13396   0.791   7.465   2.857
   9923SM   H3S13397   0.733   7.543   2.801
   9923SM    O313398   0.929   7.499   2.839
   9923SM   HO313399   0.943   7.474   2.747
   9923SM   C4S13400   0.750   7.471   3.003
   9923SM   H4S13401   0.667   7.403   3.027
   9923SM   C5S13402   0.802   7.547   3.102
   9923SM   H5S13403   0.883   7.617   3.078
   9923SM   C6S13404   0.757   7.549   3.246
   9923SM   H6S13405   0.753   7.655   3.281
   9923SM   H6T13406   0.831   7.497   3.311
   9923SM   C7S13407   0.617   7.488   3.273
   9923SM   H7S13408   0.617   7.382   3.240
   9923SM   H7T13409   0.543   7.545   3.212
   9923SM   C8S13410   0.574   7.493   3.420
   9923SM   H8S13411   0.463   7.493   3.423
   9923SM   H8T13412   0.610   7.586   3.469
   9923SM   C9S13413   0.619   7.370   3.499
   9923SM   H9S13414   0.728   7.376   3.516
   9923SM   H9T13415   0.598   7.280   3.436
   9923SM  C10S13416   0.547   7.349   3.633
   9923SM  H10S13417   0.559   7.242   3.662
   9923SM  H10T13418   0.438   7.368   3.623
   9923SM  C11S13419   0.606   7.433   3.746
   9923SM  H11S13420   0.595   7.541   3.724
   9923SM  H11T13421   0.715   7.412   3.753
   9923SM  C12S13422   0.542   7.401   3.882
   9923SM  H12S13423   0.546   7.291   3.899
   9923SM  H12T13424   0.435   7.432   3.883
   9923SM  C13S13425   0.617   7.470   3.996
   9923SM  H13S13426   0.620   7.579   3.976
   9923SM  H13T13427   0.722   7.433   3.995
   9923SM  C14S13428   0.560   7.447   4.136
   9923SM  H14S13429   0.558   7.338   4.158
   9923SM  H14T13430   0.456   7.485   4.141
   9923SM  C15S13431   0.647   7.519   4.239
   9923SM  H15S13432   0.654   7.626   4.210
   9923SM  H15T13433   0.749   7.476   4.234
   9923SM  C16S13434   0.600   7.511   4.385
   9923SM  H16S13435   0.603   7.406   4.419
   9923SM  H16T13436   0.495   7.547   4.393
   9923SM  C17S13437   0.690   7.595   4.476
   9923SM  H17S13438   0.685   7.702   4.446
   9923SM  H17T13439   0.795   7.562   4.458
   9923SM  C18S13440   0.660   7.581   4.624
   9923SM  H18S13441   0.733   7.638   4.685
   9923SM  H18T13442   0.663   7.474   4.655
   9923SM  H18U13443   0.558   7.620   4.646
   9923SM   C1F13444   0.573   7.171   2.762
   9923SM    OF13445   0.647   7.079   2.728
   9923SM   C2F13446   0.425   7.150   2.772
   9923SM   H2F13447   0.404   7.041   2.768
   9923SM   H2G13448   0.376   7.198   2.684
   9923SM   C3F13449   0.367   7.209   2.902
   9923SM   H3F13450   0.257   7.198   2.899
   9923SM   H3G13451   0.388   7.318   2.908
   9923SM   C4F13452   0.418   7.142   3.031
   9923SM   H4F13453   0.529   7.135   3.032
   9923SM   H4G13454   0.378   7.039   3.035
   9923SM   C5F13455   0.371   7.221   3.153
   9923SM   H5F13456   0.270   7.260   3.130
   9923SM   H5G13457   0.436   7.310   3.169
   9923SM   C6F13458   0.359   7.138   3.282
   9923SM   H6F13459   0.460   7.109   3.319
   9923SM   H6G13460   0.304   7.045   3.257
   9923SM   C7F13461   0.281   7.215   3.388
   9923SM   H7F13462   0.186   7.247   3.341
   9923SM   H7G13463   0.339   7.304   3.419
   9923SM   C8F13464   0.244   7.132   3.512
   9923SM   H8F13465   0.337   7.098   3.564
   9923SM   H8G13466   0.190   7.041   3.478
   9923SM   C9F13467   0.154   7.210   3.608
   9923SM   H9F13468   0.072   7.257   3.549
   9923SM   H9G13469   0.212   7.292   3.656
   9923SM  C10F13470   0.089   7.123   3.716
   9923SM  H10F13471   0.027   7.045   3.665
   9923SM  H10G13472   0.020   7.185   3.777
   9923SM  C11F13473   0.187   7.052   3.810
   9923SM  H11F13474   0.253   6.983   3.753
   9923SM  H11G13475   0.127   6.990   3.880
   9923SM  C12F13476   0.275   7.148   3.892
   9923SM  H12F13477   0.212   7.227   3.937
   9923SM  H12G13478   0.347   7.196   3.823
   9923SM  C13F13479   0.352   7.076   4.004
   9923SM  H13F13480   0.431   7.145   4.042
   9923SM  H13G13481   0.402   6.986   3.963
   9923SM  C14F13482   0.263   7.035   4.122
   9923SM  H14F13483   0.180   6.971   4.086
   9923SM  H14G13484   0.216   7.126   4.166
   9923SM  C15F13485   0.337   6.958   4.232
   9923SM  H15F13486   0.375   6.863   4.188
   9923SM  H15G13487   0.265   6.931   4.313
   9923SM  C16F13488   0.457   7.030   4.294
   9923SM  H16F13489   0.537   7.038   4.217
   9923SM  H16G13490   0.497   6.967   4.377
   9923SM  C17F13491   0.428   7.171   4.349
   9923SM  H17F13492   0.377   7.232   4.272
   9923SM  H17G13493   0.525   7.220   4.370
   9923SM  C18F13494   0.346   7.171   4.479
   9923SM  H18F13495   0.405   7.123   4.560
   9923SM  H18G13496   0.254   7.109   4.465
   9923SM  C19F13497   0.305   7.313   4.522
   9923SM  H19F13498   0.195   7.325   4.512
   9923SM  H19G13499   0.352   7.387   4.453
   9923SM  C20F13500   0.346   7.348   4.666
   9923SM  H20F13501   0.457   7.340   4.675
   9923SM  H20G13502   0.301   7.274   4.735
   9923SM  C21F13503   0.301   7.490   4.706
   9923SM  H21F13504   0.194   7.501   4.679
   9923SM  H21G13505   0.357   7.565   4.645
   9923SM  C22F13506   0.317   7.520   4.856
   9923SM  H22F13507   0.251   7.449   4.911
   9923SM  H22G13508   0.278   7.622   4.875
   9923SM  C23F13509   0.459   7.509   4.911
   9923SM  H23F13510   0.460   7.527   5.021
   9923SM  H23G13511   0.525   7.585   4.864
   9923SM  H23H13512   0.502   7.408   4.892
  10023SM     N13513   0.268   0.492   2.221
  10023SM   C1513514   0.334   0.454   2.092
  10023SM  H15A13515   0.429   0.505   2.080
  10023SM  H15B13516   0.271   0.476   2.008
  10023SM  H15C13517   0.354   0.348   2.093
  10023SM   C1413518   0.234   0.638   2.218
  10023SM  H14A13519   0.322   0.699   2.201
  10023SM  H14B13520   0.191   0.670   2.312
  10023SM  H14C13521   0.162   0.661   2.141
  10023SM   C1313522   0.142   0.412   2.236
  10023SM  H13A13523   0.167   0.307   2.240
  10023SM  H13B13524   0.073   0.429   2.155
  10023SM  H13C13525   0.093   0.436   2.329
  10023SM   C1213526   0.361   0.464   2.339
  10023SM  H12A13527   0.306   0.481   2.430
  10023SM  H12B13528   0.441   0.537   2.336
  10023SM   C1113529   0.427   0.324   2.348
  10023SM  H11A13530   0.499   0.324   2.432
  10023SM  H11B13531   0.488   0.306   2.256
  10023SM     P13532   0.258   0.192   2.498
  10023SM   O1313533   0.169   0.306   2.530
  10023SM   O1413534   0.199   0.057   2.496
  10023SM   O1113535   0.378   0.198   2.601
  10023SM   O1213536   0.331   0.218   2.360
  10023SM   C1S13537   0.471   0.090   2.615
  10023SM   H1S13538   0.565   0.115   2.563
  10023SM   H1T13539   0.434  -0.006   2.572
  10023SM    NF13540   0.378   0.028   2.835
  10023SM   HNF13541   0.331   0.100   2.884
  10023SM   C2S13542   0.501   0.066   2.766
  10023SM   H2S13543   0.573  -0.018   2.775
  10023SM   C3S13544   0.567   0.194   2.825
  10023SM   H3S13545   0.510   0.284   2.796
  10023SM    O313546   0.701   0.212   2.777
  10023SM   HO313547   0.711   0.149   2.706
  10023SM   C4S13548   0.569   0.182   2.975
  10023SM   H4S13549   0.649   0.119   3.017
  10023SM   C5S13550   0.483   0.246   3.057
  10023SM   H5S13551   0.410   0.316   3.014
  10023SM   C6S13552   0.479   0.234   3.207
  10023SM   H6S13553   0.527   0.322   3.255
  10023SM   H6T13554   0.535   0.144   3.241
  10023SM   C7S13555   0.331   0.227   3.253
  10023SM   H7S13556   0.282   0.141   3.203
  10023SM   H7T13557   0.279   0.319   3.221
  10023SM   C8S13558   0.312   0.213   3.405
  10023SM   H8S13559   0.204   0.199   3.426
  10023SM   H8T13560   0.344   0.307   3.455
  10023SM   C9S13561   0.391   0.096   3.464
  10023SM   H9S13562   0.498   0.126   3.469
  10023SM   H9T13563   0.387   0.011   3.392
  10023SM  C10S13564   0.345   0.050   3.603
  10023SM  H10S13565   0.403  -0.041   3.629
  10023SM  H10T13566   0.237   0.023   3.603
  10023SM  C11S13567   0.372   0.154   3.713
  10023SM  H11S13568   0.301   0.239   3.703
  10023SM  H11T13569   0.475   0.194   3.699
  10023SM  C12S13570   0.363   0.093   3.853
  10023SM  H12S13571   0.436   0.009   3.861
  10023SM  H12T13572   0.261   0.050   3.869
  10023SM  C13S13573   0.393   0.194   3.965
  10023SM  H13S13574   0.317   0.275   3.962
  10023SM  H13T13575   0.492   0.241   3.946
  10023SM  C14S13576   0.394   0.129   4.104
  10023SM  H14S13577   0.470   0.048   4.107
  10023SM  H14T13578   0.295   0.084   4.124
  10023SM  C15S13579   0.426   0.230   4.216
  10023SM  H15S13580   0.354   0.314   4.210
  10023SM  H15T13581   0.528   0.271   4.201
  10023SM  C16S13582   0.416   0.169   4.357
  10023SM  H16S13583   0.489   0.086   4.365
  10023SM  H16T13584   0.314   0.127   4.372
  10023SM  C17S13585   0.444   0.273   4.466
  10023SM  H17S13586   0.376   0.359   4.450
  10023SM  H17T13587   0.548   0.309   4.454
  10023SM  C18S13588   0.426   0.221   4.609
  10023SM  H18S13589   0.324   0.179   4.623
  10023SM  H18T13590   0.440   0.303   4.682
  10023SM  H18U13591   0.500   0.142   4.631
  10023SM   C1F13592   0.319  -0.088   2.815
  10023SM    OF13593   0.374  -0.176   2.750
  10023SM   C2F13594   0.184  -0.109   2.879
  10023SM   H2F13595   0.190  -0.081   2.987
  10023SM   H2G13596   0.162  -0.218   2.874
  10023SM   C3F13597   0.068  -0.033   2.810
  10023SM   H3F13598  -0.027  -0.077   2.845
  10023SM   H3G13599   0.074  -0.049   2.700
  10023SM   C4F13600   0.061   0.119   2.836
  10023SM   H4F13601  -0.011   0.162   2.762
  10023SM   H4G13602   0.159   0.168   2.816
  10023SM   C5F13603   0.009   0.156   2.975
  10023SM   H5F13604   0.074   0.110   3.053
  10023SM   H5G13605  -0.093   0.114   2.986
  10023SM   C6F13606   0.003   0.308   2.998
  10023SM   H6F13607  -0.038   0.357   2.908
  10023SM   H6G13608   0.106   0.346   3.012
  10023SM   C7F13609  -0.084   0.350   3.119
  10023SM   H7F13610  -0.191   0.335   3.094
  10023SM   H7G13611  -0.068   0.458   3.136
  10023SM   C8F13612  -0.053   0.272   3.247
  10023SM   H8F13613   0.057   0.274   3.265
  10023SM   H8G13614  -0.083   0.166   3.233
  10023SM   C9F13615  -0.125   0.325   3.372
  10023SM   H9F13616  -0.104   0.257   3.457
  10023SM   H9G13617  -0.235   0.323   3.354
  10023SM  C10F13618  -0.087   0.468   3.415
  10023SM  H10F13619  -0.135   0.489   3.513
  10023SM  H10G13620  -0.126   0.542   3.342
  10023SM  C11F13621   0.065   0.489   3.428
  10023SM  H11F13622   0.109   0.501   3.327
  10023SM  H11G13623   0.110   0.398   3.473
  10023SM  C12F13624   0.103   0.609   3.516
  10023SM  H12F13625   0.015   0.675   3.530
  10023SM  H12G13626   0.182   0.669   3.466
  10023SM  C13F13627   0.157   0.563   3.653
  10023SM  H13F13628   0.244   0.496   3.637
  10023SM  H13G13629   0.076   0.505   3.702
  10023SM  C14F13630   0.201   0.679   3.744
  10023SM  H14F13631   0.114   0.748   3.758
  10023SM  H14G13632   0.281   0.737   3.693
  10023SM  C15F13633   0.250   0.635   3.883
  10023SM  H15F13634   0.259   0.724   3.948
  10023SM  H15G13635   0.351   0.590   3.873
  10023SM  C16F13636   0.157   0.532   3.950
  10023SM  H16F13637   0.164   0.438   3.893
  10023SM  H16G13638   0.052   0.567   3.945
  10023SM  C17F13639   0.194   0.501   4.096
  10023SM  H17F13640   0.304   0.502   4.109
  10023SM  H17G13641   0.159   0.398   4.117
  10023SM  C18F13642   0.127   0.593   4.199
  10023SM  H18F13643   0.021   0.610   4.169
  10023SM  H18G13644   0.178   0.692   4.201
  10023SM  C19F13645   0.128   0.528   4.339
  10023SM  H19F13646   0.233   0.510   4.370
  10023SM  H19G13647   0.078   0.430   4.331
  10023SM  C20F13648   0.055   0.611   4.446
  10023SM  H20F13649  -0.036   0.656   4.399
  10023SM  H20G13650   0.120   0.693   4.480
  10023SM  C21F13651   0.009   0.526   4.566
  10023SM  H21F13652  -0.064   0.450   4.530
  10023SM  H21G13653  -0.044   0.591   4.638
  10023SM  C22F13654   0.122   0.454   4.640
  10023SM  H22F13655   0.191   0.531   4.681
  10023SM  H22G13656   0.180   0.392   4.568
  10023SM  C23F13657   0.073   0.364   4.753
  10023SM  H23F13658   0.158   0.319   4.808
  10023SM  H23G13659   0.010   0.281   4.712
  10023SM  H23H13660   0.011   0.422   4.825
  101CHL1    C313661   4.009   4.605   6.750
  101CHL1    H313662   4.117   4.593   6.732
  101CHL1    O313663   3.989   4.630   6.889
  101CHL1   H3'13664   3.897   4.658   6.897
  101CHL1    C413665   3.956   4.725   6.669
  101CHL1   H4A13666   3.852   4.747   6.700
  101CHL1   H4B13667   4.016   4.814   6.698
  101CHL1    C513668   3.961   4.700   6.520
  101CHL1    C613669   4.027   4.783   6.437
  101CHL1    H613670   4.076   4.873   6.477
  101CHL1    C713671   4.029   4.767   6.287
  101CHL1   H7A13672   4.016   4.866   6.237
  101CHL1   H7B13673   4.128   4.727   6.255
  101CHL1    C813674   3.918   4.671   6.238
  101CHL1    H813675   3.821   4.723   6.253
  101CHL1   C1413676   3.934   4.640   6.090
  101CHL1   H1413677   4.032   4.588   6.079
  101CHL1   C1513678   3.940   4.759   5.993
  101CHL1  H15A13679   3.861   4.833   6.020
  101CHL1  H15B13680   4.039   4.810   5.994
  101CHL1   C1613681   3.909   4.697   5.856
  101CHL1  H16A13682   3.826   4.754   5.808
  101CHL1  H16B13683   3.997   4.699   5.788
  101CHL1   C1713684   3.866   4.548   5.881
  101CHL1   H1713685   3.956   4.486   5.869
  101CHL1   C1313686   3.830   4.544   6.032
  101CHL1   C1813687   3.688   4.602   6.050
  101CHL1  H18A13688   3.611   4.532   6.011
  101CHL1  H18B13689   3.664   4.619   6.157
  101CHL1  H18C13690   3.677   4.698   5.996
  101CHL1   C1213691   3.849   4.410   6.107
  101CHL1  H12A13692   3.777   4.333   6.071
  101CHL1  H12B13693   3.952   4.372   6.087
  101CHL1   C1113694   3.831   4.428   6.259
  101CHL1  H11A13695   3.723   4.448   6.275
  101CHL1  H11B13696   3.854   4.332   6.310
  101CHL1    C913697   3.918   4.542   6.321
  101CHL1    H913698   4.022   4.504   6.315
  101CHL1   C1013699   3.891   4.571   6.472
  101CHL1   C1913700   3.738   4.586   6.495
  101CHL1  H19A13701   3.686   4.490   6.477
  101CHL1  H19B13702   3.714   4.617   6.599
  101CHL1  H19C13703   3.696   4.662   6.426
  101CHL1    C113704   3.944   4.452   6.559
  101CHL1   H1A13705   3.887   4.361   6.533
  101CHL1   H1B13706   4.051   4.434   6.532
  101CHL1    C213707   3.936   4.476   6.711
  101CHL1   H2A13708   3.981   4.390   6.765
  101CHL1   H2B13709   3.829   4.483   6.741
  101CHL1   C2013710   3.762   4.502   5.777
  101CHL1   H2013711   3.676   4.572   5.780
  101CHL1   C2113712   3.710   4.360   5.808
  101CHL1  H21A13713   3.653   4.357   5.903
  101CHL1  H21B13714   3.794   4.288   5.814
  101CHL1  H21C13715   3.641   4.327   5.727
  101CHL1   C2213716   3.817   4.502   5.632
  101CHL1  H22A13717   3.886   4.588   5.617
  101CHL1  H22B13718   3.876   4.409   5.617
  101CHL1   C2313719   3.707   4.513   5.524
  101CHL1  H23A13720   3.619   4.452   5.555
  101CHL1  H23B13721   3.673   4.618   5.519
  101CHL1   C2413722   3.748   4.464   5.384
  101CHL1  H24A13723   3.763   4.354   5.388
  101CHL1  H24B13724   3.664   4.484   5.314
  101CHL1   C2513725   3.876   4.527   5.325
  101CHL1   H2513726   3.961   4.498   5.392
  101CHL1   C2613727   3.906   4.471   5.185
  101CHL1  H26A13728   4.001   4.512   5.146
  101CHL1  H26B13729   3.914   4.360   5.189
  101CHL1  H26C13730   3.824   4.498   5.115
  101CHL1   C2713731   3.870   4.680   5.320
  101CHL1  H27A13732   3.859   4.723   5.422
  101CHL1  H27B13733   3.964   4.721   5.276
  101CHL1  H27C13734   3.784   4.713   5.258
  102CHL1    C313735   2.737   4.601   6.766
  102CHL1    H313736   2.764   4.707   6.752
  102CHL1    O313737   2.742   4.570   6.904
  102CHL1   H3'13738   2.657   4.597   6.939
  102CHL1    C413739   2.594   4.578   6.715
  102CHL1   H4A13740   2.564   4.473   6.736
  102CHL1   H4B13741   2.525   4.643   6.773
  102CHL1    C513742   2.586   4.606   6.566
  102CHL1    C613743   2.504   4.701   6.520
  102CHL1    H613744   2.438   4.756   6.589
  102CHL1    C713745   2.487   4.731   6.374
  102CHL1   H7A13746   2.379   4.743   6.350
  102CHL1   H7B13747   2.538   4.826   6.348
  102CHL1    C813748   2.543   4.618   6.284
  102CHL1    H813749   2.474   4.531   6.292
  102CHL1   C1413750   2.549   4.665   6.140
  102CHL1   H1413751   2.622   4.748   6.137
  102CHL1   C1513752   2.419   4.722   6.084
  102CHL1  H15A13753   2.335   4.655   6.111
  102CHL1  H15B13754   2.397   4.825   6.121
  102CHL1   C1613755   2.440   4.719   5.933
  102CHL1  H16A13756   2.354   4.666   5.887
  102CHL1  H16B13757   2.447   4.821   5.889
  102CHL1   C1713758   2.573   4.639   5.907
  102CHL1   H1713759   2.654   4.715   5.899
  102CHL1   C1313760   2.598   4.562   6.039
  102CHL1   C1813761   2.508   4.435   6.039
  102CHL1  H18A13762   2.506   4.387   6.139
  102CHL1  H18B13763   2.403   4.459   6.011
  102CHL1  H18C13764   2.547   4.360   5.967
  102CHL1   C1213765   2.743   4.529   6.079
  102CHL1  H12A13766   2.785   4.450   6.012
  102CHL1  H12B13767   2.806   4.620   6.068
  102CHL1   C1113768   2.752   4.480   6.226
  102CHL1  H11A13769   2.704   4.380   6.228
  102CHL1  H11B13770   2.859   4.466   6.254
  102CHL1    C913771   2.683   4.574   6.330
  102CHL1    H913772   2.743   4.668   6.328
  102CHL1   C1013773   2.683   4.525   6.477
  102CHL1   C1913774   2.637   4.377   6.480
  102CHL1  H19A13775   2.710   4.311   6.429
  102CHL1  H19B13776   2.628   4.337   6.584
  102CHL1  H19C13777   2.538   4.365   6.431
  102CHL1    C113778   2.826   4.537   6.537
  102CHL1   H1A13779   2.893   4.466   6.484
  102CHL1   H1B13780   2.864   4.640   6.516
  102CHL1    C213781   2.836   4.512   6.689
  102CHL1   H2A13782   2.939   4.533   6.724
  102CHL1   H2B13783   2.813   4.406   6.710
  102CHL1   C2013784   2.567   4.564   5.773
  102CHL1   H2013785   2.491   4.483   5.780
  102CHL1   C2113786   2.703   4.501   5.740
  102CHL1  H21A13787   2.727   4.420   5.812
  102CHL1  H21B13788   2.784   4.577   5.743
  102CHL1  H21C13789   2.701   4.455   5.639
  102CHL1   C2213790   2.520   4.657   5.657
  102CHL1  H22A13791   2.429   4.713   5.688
  102CHL1  H22B13792   2.598   4.733   5.635
  102CHL1   C2313793   2.477   4.584   5.528
  102CHL1  H23A13794   2.566   4.570   5.461
  102CHL1  H23B13795   2.438   4.484   5.554
  102CHL1   C2413796   2.367   4.664   5.456
  102CHL1  H24A13797   2.277   4.666   5.521
  102CHL1  H24B13798   2.401   4.769   5.443
  102CHL1   C2513799   2.324   4.611   5.318
  102CHL1   H2513800   2.411   4.621   5.249
  102CHL1   C2613801   2.283   4.464   5.320
  102CHL1  H26A13802   2.251   4.432   5.218
  102CHL1  H26B13803   2.368   4.399   5.351
  102CHL1  H26C13804   2.198   4.448   5.389
  102CHL1   C2713805   2.208   4.696   5.263
  102CHL1  H27A13806   2.177   4.659   5.163
  102CHL1  H27B13807   2.120   4.691   5.331
  102CHL1  H27C13808   2.239   4.802   5.253
  103CHL1    C313809   2.707   2.876   6.739
  103CHL1    H313810   2.797   2.938   6.720
  103CHL1    O313811   2.689   2.864   6.879
  103CHL1   H3'13812   2.643   2.945   6.905
  103CHL1    C413813   2.584   2.943   6.676
  103CHL1   H4A13814   2.493   2.883   6.699
  103CHL1   H4B13815   2.568   3.042   6.724
  103CHL1    C513816   2.602   2.955   6.526
  103CHL1    C613817   2.599   3.074   6.466
  103CHL1    H613818   2.577   3.164   6.525
  103CHL1    C713819   2.616   3.093   6.318
  103CHL1   H7A13820   2.544   3.168   6.280
  103CHL1   H7B13821   2.718   3.132   6.297
  103CHL1    C813822   2.597   2.961   6.239
  103CHL1    H813823   2.489   2.936   6.241
  103CHL1   C1413824   2.644   2.981   6.096
  103CHL1   H1413825   2.753   3.004   6.102
  103CHL1   C1513826   2.583   3.098   6.017
  103CHL1  H15A13827   2.473   3.099   6.030
  103CHL1  H15B13828   2.624   3.197   6.049
  103CHL1   C1613829   2.619   3.065   5.871
  103CHL1  H16A13830   2.528   3.075   5.809
  103CHL1  H16B13831   2.697   3.134   5.832
  103CHL1   C1713832   2.673   2.918   5.870
  103CHL1   H1713833   2.784   2.926   5.873
  103CHL1   C1313834   2.632   2.858   6.007
  103CHL1   C1813835   2.484   2.812   5.997
  103CHL1  H18A13836   2.474   2.721   5.934
  103CHL1  H18B13837   2.442   2.788   6.097
  103CHL1  H18C13838   2.421   2.892   5.952
  103CHL1   C1213839   2.724   2.750   6.069
  103CHL1  H12A13840   2.720   2.655   6.011
  103CHL1  H12B13841   2.829   2.787   6.067
  103CHL1   C1113842   2.684   2.720   6.215
  103CHL1  H11A13843   2.585   2.671   6.212
  103CHL1  H11B13844   2.757   2.648   6.258
  103CHL1    C913845   2.677   2.848   6.305
  103CHL1    H913846   2.782   2.886   6.309
  103CHL1   C1013847   2.634   2.822   6.452
  103CHL1   C1913848   2.506   2.735   6.452
  103CHL1  H19A13849   2.426   2.781   6.389
  103CHL1  H19B13850   2.526   2.633   6.414
  103CHL1  H19C13851   2.464   2.722   6.554
  103CHL1    C113852   2.748   2.747   6.527
  103CHL1   H1A13853   2.758   2.645   6.484
  103CHL1   H1B13854   2.843   2.800   6.508
  103CHL1    C213855   2.727   2.736   6.679
  103CHL1   H2A13856   2.813   2.685   6.727
  103CHL1   H2B13857   2.636   2.676   6.699
  103CHL1   C2013858   2.637   2.845   5.740
  103CHL1   H2013859   2.526   2.841   5.730
  103CHL1   C2113860   2.690   2.701   5.743
  103CHL1  H21A13861   2.668   2.648   5.648
  103CHL1  H21B13862   2.639   2.642   5.823
  103CHL1  H21C13863   2.799   2.700   5.761
  103CHL1   C2213864   2.691   2.922   5.616
  103CHL1  H22A13865   2.642   3.021   5.610
  103CHL1  H22B13866   2.800   2.938   5.629
  103CHL1   C2313867   2.669   2.851   5.481
  103CHL1  H23A13868   2.730   2.758   5.479
  103CHL1  H23B13869   2.562   2.823   5.471
  103CHL1   C2413870   2.710   2.940   5.362
  103CHL1  H24A13871   2.644   3.029   5.361
  103CHL1  H24B13872   2.814   2.975   5.375
  103CHL1   C2513873   2.698   2.869   5.225
  103CHL1   H2513874   2.597   2.824   5.219
  103CHL1   C2613875   2.711   2.971   5.110
  103CHL1  H26A13876   2.633   3.050   5.120
  103CHL1  H26B13877   2.811   3.019   5.113
  103CHL1  H26C13878   2.698   2.920   5.012
  103CHL1   C2713879   2.801   2.756   5.209
  103CHL1  H27A13880   2.791   2.708   5.110
  103CHL1  H27B13881   2.904   2.797   5.218
  103CHL1  H27C13882   2.787   2.678   5.287
  104CHL1    C313883   6.179   4.103   6.831
  104CHL1    H313884   6.288   4.111   6.852
  104CHL1    O313885   6.108   4.094   6.954
  104CHL1   H3'13886   6.138   4.012   6.994
  104CHL1    C413887   6.131   4.227   6.755
  104CHL1   H4A13888   6.021   4.220   6.741
  104CHL1   H4B13889   6.149   4.316   6.819
  104CHL1    C513890   6.199   4.240   6.620
  104CHL1    C613891   6.269   4.350   6.588
  104CHL1    H613892   6.275   4.434   6.659
  104CHL1    C713893   6.337   4.370   6.456
  104CHL1   H7A13894   6.313   4.470   6.415
  104CHL1   H7B13895   6.447   4.366   6.471
  104CHL1    C813896   6.297   4.264   6.350
  104CHL1    H813897   6.198   4.293   6.308
  104CHL1   C1413898   6.402   4.262   6.239
  104CHL1   H1413899   6.495   4.225   6.287
  104CHL1   C1513900   6.441   4.395   6.174
  104CHL1  H15A13901   6.350   4.454   6.149
  104CHL1  H15B13902   6.506   4.456   6.241
  104CHL1   C1613903   6.514   4.351   6.047
  104CHL1  H16A13904   6.470   4.405   5.960
  104CHL1  H16B13905   6.622   4.376   6.050
  104CHL1   C1713906   6.494   4.197   6.032
  104CHL1   H1713907   6.582   4.150   6.081
  104CHL1   C1313908   6.374   4.165   6.124
  104CHL1   C1813909   6.243   4.202   6.050
  104CHL1  H18A13910   6.248   4.304   6.006
  104CHL1  H18B13911   6.222   4.130   5.968
  104CHL1  H18C13912   6.156   4.200   6.120
  104CHL1   C1213913   6.369   4.023   6.186
  104CHL1  H12A13914   6.344   3.947   6.109
  104CHL1  H12B13915   6.470   3.999   6.226
  104CHL1   C1113916   6.266   4.015   6.300
  104CHL1  H11A13917   6.165   4.026   6.256
  104CHL1  H11B13918   6.273   3.915   6.347
  104CHL1    C913919   6.288   4.124   6.410
  104CHL1    H913920   6.389   4.104   6.452
  104CHL1   C1013921   6.190   4.115   6.530
  104CHL1   C1913922   6.045   4.105   6.478
  104CHL1  H19A13923   6.021   4.191   6.410
  104CHL1  H19B13924   6.029   4.011   6.421
  104CHL1  H19C13925   5.971   4.105   6.561
  104CHL1    C113926   6.226   3.987   6.613
  104CHL1   H1A13927   6.203   3.896   6.553
  104CHL1   H1B13928   6.335   3.987   6.633
  104CHL1    C213929   6.154   3.976   6.749
  104CHL1   H2A13930   6.192   3.887   6.804
  104CHL1   H2B13931   6.045   3.963   6.733
  104CHL1   C2013932   6.496   4.152   5.885
  104CHL1   H2013933   6.416   4.206   5.829
  104CHL1   C2113934   6.469   4.001   5.874
  104CHL1  H21A13935   6.540   3.945   5.937
  104CHL1  H21B13936   6.477   3.966   5.769
  104CHL1  H21C13937   6.365   3.977   5.906
  104CHL1   C2213938   6.632   4.189   5.819
  104CHL1  H22A13939   6.646   4.299   5.825
  104CHL1  H22B13940   6.713   4.142   5.880
  104CHL1   C2313941   6.655   4.148   5.672
  104CHL1  H23A13942   6.759   4.176   5.647
  104CHL1  H23B13943   6.648   4.037   5.661
  104CHL1   C2413944   6.561   4.216   5.572
  104CHL1  H24A13945   6.456   4.189   5.597
  104CHL1  H24B13946   6.571   4.326   5.582
  104CHL1   C2513947   6.588   4.178   5.425
  104CHL1   H2513948   6.586   4.067   5.417
  104CHL1   C2613949   6.477   4.233   5.333
  104CHL1  H26A13950   6.378   4.196   5.365
  104CHL1  H26B13951   6.477   4.344   5.336
  104CHL1  H26C13952   6.494   4.201   5.228
  104CHL1   C2713953   6.725   4.227   5.376
  104CHL1  H27A13954   6.732   4.337   5.388
  104CHL1  H27B13955   6.807   4.179   5.433
  104CHL1  H27C13956   6.739   4.202   5.268
  105CHL1    C313957   6.124   3.277   6.778
  105CHL1    H313958   6.185   3.368   6.758
  105CHL1    O313959   6.106   3.264   6.918
  105CHL1   H3'13960   6.170   3.198   6.946
  105CHL1    C413961   5.988   3.292   6.709
  105CHL1   H4A13962   5.924   3.205   6.737
  105CHL1   H4B13963   5.938   3.382   6.752
  105CHL1    C513964   6.000   3.301   6.558
  105CHL1    C613965   5.950   3.405   6.490
  105CHL1    H613966   5.896   3.484   6.543
  105CHL1    C713967   5.956   3.418   6.340
  105CHL1   H7A13968   5.856   3.447   6.300
  105CHL1   H7B13969   6.027   3.498   6.313
  105CHL1    C813970   6.000   3.287   6.269
  105CHL1    H813971   5.913   3.218   6.269
  105CHL1   C1413972   6.042   3.317   6.126
  105CHL1   H1413973   6.131   3.383   6.134
  105CHL1   C1513974   5.942   3.393   6.036
  105CHL1  H15A13975   5.840   3.354   6.053
  105CHL1  H15B13976   5.944   3.502   6.058
  105CHL1   C1613977   5.988   3.361   5.893
  105CHL1  H16A13978   5.905   3.312   5.839
  105CHL1  H16B13979   6.017   3.454   5.840
  105CHL1   C1713980   6.110   3.264   5.906
  105CHL1   H1713981   6.199   3.329   5.917
  105CHL1   C1313982   6.089   3.196   6.045
  105CHL1   C1813983   5.976   3.091   6.032
  105CHL1  H18A13984   5.889   3.130   5.976
  105CHL1  H18B13985   6.014   3.000   5.980
  105CHL1  H18C13986   5.940   3.058   6.132
  105CHL1   C1213987   6.212   3.138   6.116
  105CHL1  H12A13988   6.246   3.045   6.065
  105CHL1  H12B13989   6.295   3.212   6.114
  105CHL1   C1113990   6.180   3.103   6.263
  105CHL1  H11A13991   6.110   3.016   6.262
  105CHL1  H11B13992   6.274   3.069   6.313
  105CHL1    C913993   6.117   3.220   6.344
  105CHL1    H913994   6.196   3.298   6.347
  105CHL1   C1013995   6.082   3.187   6.492
  105CHL1   C1913996   5.994   3.060   6.496
  105CHL1  H19A13997   6.051   2.971   6.460
  105CHL1  H19B13998   5.960   3.036   6.599
  105CHL1  H19C13999   5.903   3.071   6.433
  105CHL1    C114000   6.214   3.163   6.571
  105CHL1   H1A14001   6.262   3.070   6.534
  105CHL1   H1B14002   6.283   3.247   6.548
  105CHL1    C214003   6.197   3.154   6.724
  105CHL1   H2A14004   6.297   3.144   6.772
  105CHL1   H2B14005   6.138   3.063   6.748
  105CHL1   C2014006   6.136   3.173   5.785
  105CHL1   H2014007   6.074   3.082   5.794
  105CHL1   C2114008   6.284   3.130   5.782
  105CHL1  H21A14009   6.305   3.071   5.690
  105CHL1  H21B14010   6.309   3.067   5.870
  105CHL1  H21C14011   6.351   3.219   5.782
  105CHL1   C2214012   6.096   3.234   5.647
  105CHL1  H22A14013   6.116   3.156   5.570
  105CHL1  H22B14014   5.987   3.252   5.645
  105CHL1   C2314015   6.171   3.362   5.604
  105CHL1  H23A14016   6.145   3.445   5.673
  105CHL1  H23B14017   6.280   3.346   5.614
  105CHL1   C2414018   6.142   3.405   5.459
  105CHL1  H24A14019   6.198   3.498   5.437
  105CHL1  H24B14020   6.180   3.325   5.391
  105CHL1   C2514021   5.993   3.429   5.425
  105CHL1   H2514022   5.937   3.335   5.445
  105CHL1   C2614023   5.931   3.541   5.509
  105CHL1  H26A14024   5.938   3.518   5.617
  105CHL1  H26B14025   5.983   3.637   5.489
  105CHL1  H26C14026   5.823   3.554   5.483
  105CHL1   C2714027   5.977   3.461   5.275
  105CHL1  H27A14028   5.870   3.473   5.249
  105CHL1  H27B14029   6.031   3.555   5.250
  105CHL1  H27C14030   6.020   3.378   5.214
  106CHL1    C314031   1.974   2.416   6.790
  106CHL1    H314032   2.045   2.501   6.793
  106CHL1    O314033   1.958   2.361   6.920
  106CHL1   H3'14034   2.044   2.374   6.963
  106CHL1    C414035   1.837   2.465   6.739
  106CHL1   H4A14036   1.764   2.382   6.747
  106CHL1   H4B14037   1.802   2.544   6.809
  106CHL1    C514038   1.844   2.515   6.596
  106CHL1    C614039   1.808   2.640   6.564
  106CHL1    H614040   1.770   2.708   6.642
  106CHL1    C714041   1.809   2.694   6.424
  106CHL1   H7A14042   1.714   2.748   6.404
  106CHL1   H7B14043   1.892   2.766   6.412
  106CHL1    C814044   1.824   2.583   6.316
  106CHL1    H814045   1.727   2.531   6.307
  106CHL1   C1414046   1.861   2.647   6.183
  106CHL1   H1414047   1.962   2.691   6.197
  106CHL1   C1514048   1.774   2.764   6.135
  106CHL1  H15A14049   1.667   2.745   6.159
  106CHL1  H15B14050   1.806   2.859   6.181
  106CHL1   C1614051   1.793   2.764   5.983
  106CHL1  H16A14052   1.695   2.742   5.936
  106CHL1  H16B14053   1.829   2.863   5.946
  106CHL1   C1714054   1.896   2.651   5.951
  106CHL1   H1714055   1.996   2.697   5.967
  106CHL1   C1314056   1.875   2.550   6.065
  106CHL1   C1814057   1.744   2.472   6.039
  106CHL1  H18A14058   1.758   2.400   5.956
  106CHL1  H18B14059   1.712   2.413   6.129
  106CHL1  H18C14060   1.660   2.540   6.013
  106CHL1   C1214061   1.990   2.454   6.102
  106CHL1  H12A14062   2.002   2.376   6.023
  106CHL1  H12B14063   2.085   2.512   6.109
  106CHL1   C1114064   1.964   2.384   6.238
  106CHL1  H11A14065   1.879   2.315   6.222
  106CHL1  H11B14066   2.053   2.322   6.264
  106CHL1    C914067   1.932   2.482   6.355
  106CHL1    H914068   2.024   2.542   6.369
  106CHL1   C1014069   1.903   2.416   6.493
  106CHL1   C1914070   1.801   2.301   6.473
  106CHL1  H19A14071   1.774   2.253   6.570
  106CHL1  H19B14072   1.707   2.339   6.426
  106CHL1  H19C14073   1.843   2.221   6.409
  106CHL1    C114074   2.036   2.359   6.551
  106CHL1   H1A14075   2.068   2.276   6.484
  106CHL1   H1B14076   2.113   2.438   6.546
  106CHL1    C214077   2.029   2.308   6.696
  106CHL1   H2A14078   2.130   2.277   6.730
  106CHL1   H2B14079   1.962   2.219   6.701
  106CHL1   C2014080   1.890   2.607   5.803
  106CHL1   H2014081   1.808   2.533   5.789
  106CHL1   C2114082   2.024   2.541   5.766
  106CHL1  H21A14083   2.022   2.504   5.661
  106CHL1  H21B14084   2.046   2.454   5.831
  106CHL1  H21C14085   2.107   2.614   5.775
  106CHL1   C2214086   1.859   2.728   5.710
  106CHL1  H22A14087   1.755   2.763   5.729
  106CHL1  H22B14088   1.928   2.811   5.736
  106CHL1   C2314089   1.868   2.706   5.558
  106CHL1  H23A14090   1.974   2.685   5.530
  106CHL1  H23B14091   1.806   2.620   5.527
  106CHL1   C2414092   1.822   2.834   5.485
  106CHL1  H24A14093   1.712   2.843   5.491
  106CHL1  H24B14094   1.865   2.921   5.538
  106CHL1   C2514095   1.867   2.843   5.338
  106CHL1   H2514096   1.976   2.826   5.335
  106CHL1   C2614097   1.799   2.737   5.250
  106CHL1  H26A14098   1.823   2.635   5.285
  106CHL1  H26B14099   1.688   2.751   5.253
  106CHL1  H26C14100   1.832   2.748   5.144
  106CHL1   C2714101   1.840   2.983   5.281
  106CHL1  H27A14102   1.876   2.990   5.176
  106CHL1  H27B14103   1.731   3.004   5.282
  106CHL1  H27C14104   1.891   3.061   5.342
  107CHL1    C314105   3.994   6.212   6.781
  107CHL1    H314106   3.983   6.103   6.767
  107CHL1    O314107   3.994   6.242   6.920
  107CHL1   H3'14108   3.901   6.251   6.941
  107CHL1    C414109   4.128   6.258   6.719
  107CHL1   H4A14110   4.146   6.364   6.748
  107CHL1   H4B14111   4.209   6.198   6.765
  107CHL1    C514112   4.129   6.247   6.567
  107CHL1    C614113   4.224   6.176   6.502
  107CHL1    H614114   4.304   6.127   6.560
  107CHL1    C714115   4.234   6.168   6.352
  107CHL1   H7A14116   4.339   6.178   6.319
  107CHL1   H7B14117   4.198   6.068   6.318
  107CHL1    C814118   4.149   6.278   6.284
  107CHL1    H814119   4.199   6.375   6.306
  107CHL1   C1414120   4.145   6.260   6.133
  107CHL1   H1414121   4.096   6.162   6.114
  107CHL1   C1514122   4.280   6.253   6.060
  107CHL1  H15A14123   4.348   6.331   6.100
  107CHL1  H15B14124   4.329   6.154   6.071
  107CHL1   C1614125   4.245   6.286   5.914
  107CHL1  H16A14126   4.313   6.366   5.879
  107CHL1  H16B14127   4.258   6.197   5.848
  107CHL1   C1714128   4.097   6.334   5.911
  107CHL1   H1714129   4.036   6.245   5.884
  107CHL1   C1314130   4.062   6.365   6.059
  107CHL1   C1814131   4.113   6.509   6.090
  107CHL1  H18A14132   4.108   6.532   6.199
  107CHL1  H18B14133   4.218   6.521   6.057
  107CHL1  H18C14134   4.050   6.584   6.038
  107CHL1   C1214135   3.917   6.344   6.105
  107CHL1  H12A14136   3.847   6.415   6.055
  107CHL1  H12B14137   3.885   6.241   6.079
  107CHL1   C1114138   3.905   6.363   6.258
  107CHL1  H11A14139   3.915   6.472   6.277
  107CHL1  H11B14140   3.802   6.334   6.290
  107CHL1    C914141   4.008   6.281   6.343
  107CHL1    H914142   3.973   6.176   6.335
  107CHL1   C1014143   4.010   6.315   6.495
  107CHL1   C1914144   4.024   6.469   6.513
  107CHL1  H19A14145   3.932   6.521   6.478
  107CHL1  H19B14146   4.038   6.497   6.619
  107CHL1  H19C14147   4.111   6.508   6.455
  107CHL1    C114148   3.878   6.267   6.562
  107CHL1   H1A14149   3.793   6.324   6.518
  107CHL1   H1B14150   3.863   6.160   6.537
  107CHL1    C214151   3.875   6.283   6.715
  107CHL1   H2A14152   3.780   6.242   6.754
  107CHL1   H2B14153   3.878   6.392   6.740
  107CHL1   C2014154   4.072   6.442   5.803
  107CHL1   H2014155   4.124   6.536   5.833
  107CHL1   C2114156   3.921   6.473   5.792
  107CHL1  H21A14157   3.863   6.379   5.774
  107CHL1  H21B14158   3.900   6.544   5.710
  107CHL1  H21C14159   3.884   6.521   5.885
  107CHL1   C2214160   4.131   6.404   5.664
  107CHL1  H22A14161   4.240   6.385   5.674
  107CHL1  H22B14162   4.083   6.310   5.628
  107CHL1   C2314163   4.116   6.514   5.557
  107CHL1  H23A14164   4.010   6.520   5.525
  107CHL1  H23B14165   4.145   6.612   5.601
  107CHL1   C2414166   4.204   6.488   5.434
  107CHL1  H24A14167   4.310   6.480   5.469
  107CHL1  H24B14168   4.177   6.390   5.389
  107CHL1   C2514169   4.198   6.597   5.326
  107CHL1   H2514170   4.216   6.695   5.375
  107CHL1   C2614171   4.309   6.576   5.222
  107CHL1  H26A14172   4.308   6.658   5.146
  107CHL1  H26B14173   4.409   6.576   5.271
  107CHL1  H26C14174   4.296   6.479   5.169
  107CHL1   C2714175   4.061   6.602   5.256
  107CHL1  H27A14176   4.060   6.681   5.178
  107CHL1  H27B14177   4.039   6.504   5.208
  107CHL1  H27C14178   3.980   6.624   5.329
  108CHL1    C314179   6.070   2.504   6.795
  108CHL1    H314180   5.986   2.441   6.759
  108CHL1    O314181   6.073   2.500   6.937
  108CHL1   H3'14182   5.994   2.547   6.965
  108CHL1    C414183   6.203   2.448   6.740
  108CHL1   H4A14184   6.287   2.506   6.784
  108CHL1   H4B14185   6.213   2.344   6.777
  108CHL1    C514186   6.208   2.454   6.589
  108CHL1    C614187   6.227   2.342   6.516
  108CHL1    H614188   6.244   2.247   6.568
  108CHL1    C714189   6.238   2.340   6.367
  108CHL1   H7A14190   6.324   2.278   6.336
  108CHL1   H7B14191   6.146   2.294   6.324
  108CHL1    C814192   6.254   2.482   6.306
  108CHL1    H814193   6.359   2.514   6.323
  108CHL1   C1414194   6.225   2.477   6.157
  108CHL1   H1414195   6.118   2.449   6.148
  108CHL1   C1514196   6.300   2.372   6.073
  108CHL1  H15A14197   6.408   2.373   6.100
  108CHL1  H15B14198   6.260   2.270   6.087
  108CHL1   C1614199   6.282   2.422   5.929
  108CHL1  H16A14200   6.383   2.431   5.882
  108CHL1  H16B14201   6.220   2.353   5.868
  108CHL1   C1714202   6.214   2.563   5.938
  108CHL1   H1714203   6.105   2.546   5.930
  108CHL1   C1314204   6.238   2.610   6.083
  108CHL1   C1814205   6.383   2.665   6.095
  108CHL1  H18A14206   6.390   2.763   6.043
  108CHL1  H18B14207   6.412   2.682   6.201
  108CHL1  H18C14208   6.457   2.596   6.049
  108CHL1   C1214209   6.135   2.706   6.145
  108CHL1  H12A14210   6.142   2.807   6.100
  108CHL1  H12B14211   6.033   2.667   6.125
  108CHL1   C1114212   6.154   2.719   6.298
  108CHL1  H11A14213   6.249   2.775   6.314
  108CHL1  H11B14214   6.071   2.781   6.339
  108CHL1    C914215   6.159   2.582   6.373
  108CHL1    H914216   6.058   2.539   6.359
  108CHL1   C1014217   6.181   2.592   6.526
  108CHL1   C1914218   6.304   2.682   6.555
  108CHL1  H19A14219   6.394   2.645   6.501
  108CHL1  H19B14220   6.285   2.787   6.523
  108CHL1  H19C14221   6.328   2.686   6.663
  108CHL1    C114222   6.054   2.654   6.592
  108CHL1   H1A14223   6.045   2.760   6.560
  108CHL1   H1B14224   5.965   2.600   6.554
  108CHL1    C214225   6.051   2.648   6.746
  108CHL1   H2A14226   5.954   2.689   6.782
  108CHL1   H2B14227   6.132   2.712   6.787
  108CHL1   C2014228   6.255   2.655   5.821
  108CHL1   H2014229   6.363   2.681   5.832
  108CHL1   C2114230   6.175   2.786   5.824
  108CHL1  H21A14231   6.208   2.851   5.908
  108CHL1  H21B14232   6.066   2.765   5.837
  108CHL1  H21C14233   6.189   2.842   5.730
  108CHL1   C2214234   6.242   2.587   5.682
  108CHL1  H22A14235   6.284   2.657   5.606
  108CHL1  H22B14236   6.305   2.496   5.679
  108CHL1   C2314237   6.099   2.552   5.639
  108CHL1  H23A14238   6.047   2.499   5.722
  108CHL1  H23B14239   6.043   2.645   5.617
  108CHL1   C2414240   6.097   2.461   5.515
  108CHL1  H24A14241   6.167   2.502   5.440
  108CHL1  H24B14242   6.133   2.360   5.544
  108CHL1   C2514243   5.958   2.448   5.448
  108CHL1   H2514244   5.930   2.550   5.412
  108CHL1   C2614245   5.966   2.354   5.327
  108CHL1  H26A14246   5.996   2.252   5.359
  108CHL1  H26B14247   5.867   2.348   5.276
  108CHL1  H26C14248   6.040   2.392   5.253
  108CHL1   C2714249   5.849   2.401   5.545
  108CHL1  H27A14250   5.836   2.474   5.629
  108CHL1  H27B14251   5.752   2.392   5.492
  108CHL1  H27C14252   5.875   2.302   5.588
  109CHL1    C314253   2.796   6.357   6.700
  109CHL1    H314254   2.897   6.383   6.661
  109CHL1    O314255   2.793   6.380   6.840
  109CHL1   H3'14256   2.799   6.292   6.878
  109CHL1    C414257   2.691   6.446   6.631
  109CHL1   H4A14258   2.592   6.428   6.678
  109CHL1   H4B14259   2.717   6.552   6.653
  109CHL1    C514260   2.684   6.419   6.482
  109CHL1    C614261   2.704   6.517   6.393
  109CHL1    H614262   2.723   6.620   6.428
  109CHL1    C714263   2.698   6.498   6.244
  109CHL1   H7A14264   2.646   6.583   6.196
  109CHL1   H7B14265   2.802   6.494   6.203
  109CHL1    C814266   2.626   6.366   6.205
  109CHL1    H814267   2.518   6.381   6.225
  109CHL1   C1414268   2.648   6.337   6.058
  109CHL1   H1414269   2.756   6.315   6.045
  109CHL1   C1514270   2.619   6.450   5.958
  109CHL1  H15A14271   2.526   6.504   5.987
  109CHL1  H15B14272   2.703   6.523   5.953
  109CHL1   C1614273   2.596   6.378   5.825
  109CHL1  H16A14274   2.494   6.402   5.790
  109CHL1  H16B14275   2.670   6.409   5.748
  109CHL1   C1714276   2.604   6.224   5.854
  109CHL1   H1714277   2.711   6.196   5.840
  109CHL1   C1314278   2.574   6.213   6.006
  109CHL1   C1814279   2.421   6.226   6.026
  109CHL1  H18A14280   2.370   6.134   5.990
  109CHL1  H18B14281   2.395   6.237   6.134
  109CHL1  H18C14282   2.380   6.313   5.972
  109CHL1   C1214283   2.631   6.092   6.082
  109CHL1  H12A14284   2.577   5.999   6.055
  109CHL1  H12B14285   2.738   6.079   6.055
  109CHL1   C1114286   2.621   6.112   6.236
  109CHL1  H11A14287   2.513   6.103   6.260
  109CHL1  H11B14288   2.674   6.029   6.286
  109CHL1    C914289   2.677   6.248   6.288
  109CHL1    H914290   2.786   6.244   6.269
  109CHL1   C1014291   2.661   6.272   6.442
  109CHL1   C1914292   2.517   6.233   6.484
  109CHL1  H19A14293   2.501   6.123   6.472
  109CHL1  H19B14294   2.496   6.257   6.590
  109CHL1  H19C14295   2.442   6.286   6.421
  109CHL1    C114296   2.765   6.185   6.518
  109CHL1   H1A14297   2.744   6.077   6.499
  109CHL1   H1B14298   2.866   6.206   6.477
  109CHL1    C214299   2.769   6.209   6.670
  109CHL1   H2A14300   2.849   6.147   6.716
  109CHL1   H2B14301   2.673   6.179   6.716
  109CHL1   C2014302   2.520   6.142   5.754
  109CHL1   H2014303   2.413   6.151   5.781
  109CHL1   C2114304   2.559   5.993   5.762
  109CHL1  H21A14305   2.530   5.949   5.860
  109CHL1  H21B14306   2.669   5.982   5.748
  109CHL1  H21C14307   2.507   5.936   5.682
  109CHL1   C2214308   2.530   6.192   5.607
  109CHL1  H22A14309   2.467   6.125   5.544
  109CHL1  H22B14310   2.485   6.293   5.600
  109CHL1   C2314311   2.671   6.196   5.546
  109CHL1  H23A14312   2.740   6.251   5.613
  109CHL1  H23B14313   2.709   6.093   5.536
  109CHL1   C2414314   2.671   6.265   5.408
  109CHL1  H24A14315   2.607   6.208   5.338
  109CHL1  H24B14316   2.627   6.367   5.420
  109CHL1   C2514317   2.812   6.282   5.346
  109CHL1   H2514318   2.877   6.331   5.422
  109CHL1   C2614319   2.874   6.146   5.309
  109CHL1  H26A14320   2.809   6.093   5.237
  109CHL1  H26B14321   2.973   6.162   5.262
  109CHL1  H26C14322   2.887   6.082   5.399
  109CHL1   C2714323   2.806   6.373   5.223
  109CHL1  H27A14324   2.908   6.388   5.181
  109CHL1  H27B14325   2.743   6.327   5.144
  109CHL1  H27C14326   2.764   6.472   5.249
  110CHL1    C314327   1.239   5.363   6.705
  110CHL1    H314328   1.323   5.432   6.686
  110CHL1    O314329   1.215   5.359   6.845
  110CHL1   H3'14330   1.232   5.269   6.874
  110CHL1    C414331   1.113   5.411   6.632
  110CHL1   H4A14332   1.030   5.341   6.656
  110CHL1   H4B14333   1.084   5.509   6.674
  110CHL1    C514334   1.135   5.415   6.482
  110CHL1    C614335   1.121   5.530   6.415
  110CHL1    H614336   1.088   5.620   6.469
  110CHL1    C714337   1.140   5.542   6.268
  110CHL1   H7A14338   1.058   5.602   6.222
  110CHL1   H7B14339   1.236   5.594   6.249
  110CHL1    C814340   1.153   5.409   6.192
  110CHL1    H814341   1.051   5.367   6.177
  110CHL1   C1414342   1.220   5.436   6.058
  110CHL1   H1414343   1.323   5.468   6.081
  110CHL1   C1514344   1.163   5.550   5.973
  110CHL1  H15A14345   1.053   5.542   5.966
  110CHL1  H15B14346   1.189   5.651   6.013
  110CHL1   C1614347   1.228   5.527   5.836
  110CHL1  H16A14348   1.150   5.536   5.758
  110CHL1  H16B14349   1.308   5.601   5.816
  110CHL1   C1714350   1.291   5.383   5.839
  110CHL1   H1714351   1.400   5.397   5.858
  110CHL1   C1314352   1.234   5.315   5.967
  110CHL1   C1814353   1.096   5.254   5.934
  110CHL1  H18A14354   1.107   5.164   5.869
  110CHL1  H18B14355   1.043   5.221   6.026
  110CHL1  H18C14356   1.031   5.327   5.881
  110CHL1   C1214357   1.323   5.214   6.042
  110CHL1  H12A14358   1.331   5.120   5.984
  110CHL1  H12B14359   1.425   5.257   6.052
  110CHL1   C1114360   1.269   5.182   6.184
  110CHL1  H11A14361   1.176   5.123   6.172
  110CHL1  H11B14362   1.343   5.118   6.238
  110CHL1    C914363   1.239   5.310   6.270
  110CHL1    H914364   1.337   5.360   6.282
  110CHL1   C1014365   1.185   5.286   6.415
  110CHL1   C1914366   1.064   5.191   6.408
  110CHL1  H19A14367   1.023   5.170   6.509
  110CHL1  H19B14368   0.983   5.233   6.345
  110CHL1  H19C14369   1.095   5.093   6.365
  110CHL1    C114370   1.300   5.226   6.502
  110CHL1   H1A14371   1.323   5.124   6.465
  110CHL1   H1B14372   1.390   5.289   6.485
  110CHL1    C214373   1.274   5.223   6.654
  110CHL1   H2A14374   1.364   5.185   6.707
  110CHL1   H2B14375   1.190   5.155   6.676
  110CHL1   C2014376   1.276   5.314   5.703
  110CHL1   H2014377   1.168   5.299   5.682
  110CHL1   C2114378   1.346   5.177   5.703
  110CHL1  H21A14379   1.298   5.108   5.775
  110CHL1  H21B14380   1.453   5.189   5.730
  110CHL1  H21C14381   1.340   5.130   5.603
  110CHL1   C2214382   1.332   5.402   5.587
  110CHL1  H22A14383   1.291   5.505   5.593
  110CHL1  H22B14384   1.442   5.409   5.596
  110CHL1   C2314385   1.295   5.351   5.447
  110CHL1  H23A14386   1.357   5.262   5.420
  110CHL1  H23B14387   1.188   5.319   5.447
  110CHL1   C2414388   1.310   5.461   5.340
  110CHL1  H24A14389   1.248   5.547   5.372
  110CHL1  H24B14390   1.416   5.495   5.337
  110CHL1   C2514391   1.265   5.418   5.199
  110CHL1   H2514392   1.169   5.364   5.209
  110CHL1   C2614393   1.241   5.542   5.112
  110CHL1  H26A14394   1.163   5.607   5.156
  110CHL1  H26B14395   1.335   5.601   5.102
  110CHL1  H26C14396   1.208   5.511   5.010
  110CHL1   C2714397   1.367   5.325   5.133
  110CHL1  H27A14398   1.466   5.376   5.124
  110CHL1  H27B14399   1.381   5.232   5.193
  110CHL1  H27C14400   1.333   5.297   5.031
  111CHL1    C314401   3.238   0.607   6.870
  111CHL1    H314402   3.209   0.501   6.891
  111CHL1    O314403   3.230   0.681   6.991
  111CHL1   H3'14404   3.139   0.674   7.020
  111CHL1    C414405   3.383   0.611   6.819
  111CHL1   H4A14406   3.413   0.717   6.809
  111CHL1   H4B14407   3.448   0.567   6.897
  111CHL1    C514408   3.397   0.540   6.686
  111CHL1    C614409   3.484   0.439   6.670
  111CHL1    H614410   3.549   0.409   6.754
  111CHL1    C714411   3.507   0.368   6.540
  111CHL1   H7A14412   3.616   0.356   6.520
  111CHL1   H7B14413   3.463   0.266   6.544
  111CHL1    C814414   3.444   0.444   6.420
  111CHL1    H814415   3.509   0.531   6.398
  111CHL1   C1414416   3.438   0.353   6.298
  111CHL1   H1414417   3.370   0.270   6.324
  111CHL1   C1514418   3.569   0.285   6.255
  111CHL1  H15A14419   3.651   0.359   6.254
  111CHL1  H15B14420   3.596   0.201   6.322
  111CHL1   C1614421   3.538   0.237   6.112
  111CHL1  H16A14422   3.621   0.268   6.045
  111CHL1  H16B14423   3.530   0.126   6.109
  111CHL1   C1714424   3.404   0.303   6.069
  111CHL1   H1714425   3.324   0.227   6.088
  111CHL1   C1314426   3.380   0.417   6.172
  111CHL1   C1814427   3.463   0.541   6.130
  111CHL1  H18A14428   3.421   0.587   6.038
  111CHL1  H18B14429   3.462   0.619   6.209
  111CHL1  H18C14430   3.569   0.513   6.111
  111CHL1   C1214431   3.234   0.454   6.205
  111CHL1  H12A14432   3.185   0.505   6.119
  111CHL1  H12B14433   3.178   0.360   6.226
  111CHL1   C1114434   3.225   0.546   6.328
  111CHL1  H11A14435   3.266   0.645   6.297
  111CHL1  H11B14436   3.118   0.561   6.354
  111CHL1    C914437   3.302   0.493   6.453
  111CHL1    H914438   3.247   0.402   6.483
  111CHL1   C1014439   3.300   0.588   6.576
  111CHL1   C1914440   3.346   0.730   6.532
  111CHL1  H19A14441   3.445   0.726   6.482
  111CHL1  H19B14442   3.272   0.775   6.462
  111CHL1  H19C14443   3.353   0.800   6.618
  111CHL1    C114444   3.155   0.594   6.632
  111CHL1   H1A14445   3.089   0.644   6.558
  111CHL1   H1B14446   3.118   0.490   6.645
  111CHL1    C214447   3.142   0.667   6.767
  111CHL1   H2A14448   3.037   0.661   6.804
  111CHL1   H2B14449   3.166   0.775   6.754
  111CHL1   C2014450   3.402   0.335   5.918
  111CHL1   H2014451   3.483   0.407   5.897
  111CHL1   C2114452   3.267   0.397   5.878
  111CHL1  H21A14453   3.184   0.330   5.907
  111CHL1  H21B14454   3.261   0.413   5.768
  111CHL1  H21C14455   3.252   0.497   5.925
  111CHL1   C2214456   3.429   0.210   5.830
  111CHL1  H22A14457   3.512   0.149   5.872
  111CHL1  H22B14458   3.338   0.145   5.829
  111CHL1   C2314459   3.469   0.246   5.686
  111CHL1  H23A14460   3.389   0.308   5.639
  111CHL1  H23B14461   3.561   0.307   5.690
  111CHL1   C2414462   3.495   0.123   5.597
  111CHL1  H24A14463   3.566   0.056   5.650
  111CHL1  H24B14464   3.400   0.067   5.582
  111CHL1   C2514465   3.556   0.161   5.460
  111CHL1   H2514466   3.645   0.224   5.479
  111CHL1   C2614467   3.603   0.035   5.386
  111CHL1  H26A14468   3.678  -0.019   5.447
  111CHL1  H26B14469   3.518  -0.033   5.367
  111CHL1  H26C14470   3.649   0.062   5.289
  111CHL1   C2714471   3.457   0.241   5.373
  111CHL1  H27A14472   3.504   0.265   5.275
  111CHL1  H27B14473   3.365   0.182   5.356
  111CHL1  H27C14474   3.430   0.336   5.423
  112CHL1    C314475   4.667   0.709   6.828
  112CHL1    H314476   4.668   0.598   6.829
  112CHL1    O314477   4.672   0.759   6.960
  112CHL1   H3'14478   4.585   0.798   6.971
  112CHL1    C414479   4.790   0.761   6.750
  112CHL1   H4A14480   4.802   0.869   6.771
  112CHL1   H4B14481   4.880   0.711   6.792
  112CHL1    C514482   4.781   0.741   6.599
  112CHL1    C614483   4.878   0.681   6.528
  112CHL1    H614484   4.969   0.647   6.578
  112CHL1    C714485   4.875   0.669   6.378
  112CHL1   H7A14486   4.974   0.693   6.335
  112CHL1   H7B14487   4.852   0.564   6.350
  112CHL1    C814488   4.769   0.762   6.313
  112CHL1    H814489   4.807   0.866   6.320
  112CHL1   C1414490   4.749   0.726   6.166
  112CHL1   H1414491   4.710   0.622   6.165
  112CHL1   C1514492   4.872   0.724   6.074
  112CHL1  H15A14493   4.934   0.815   6.093
  112CHL1  H15B14494   4.934   0.634   6.090
  112CHL1   C1614495   4.812   0.729   5.933
  112CHL1  H16A14496   4.860   0.813   5.876
  112CHL1  H16B14497   4.829   0.634   5.877
  112CHL1   C1714498   4.659   0.755   5.949
  112CHL1   H1714499   4.610   0.655   5.949
  112CHL1   C1314500   4.643   0.809   6.093
  112CHL1   C1814501   4.681   0.960   6.092
  112CHL1  H18A14502   4.695   0.999   6.195
  112CHL1  H18B14503   4.775   0.978   6.036
  112CHL1  H18C14504   4.600   1.020   6.045
  112CHL1   C1214505   4.509   0.783   6.164
  112CHL1  H12A14506   4.426   0.842   6.119
  112CHL1  H12B14507   4.483   0.676   6.155
  112CHL1   C1114508   4.518   0.821   6.313
  112CHL1  H11A14509   4.529   0.932   6.317
  112CHL1  H11B14510   4.422   0.795   6.362
  112CHL1    C914511   4.636   0.751   6.387
  112CHL1    H914512   4.610   0.643   6.385
  112CHL1   C1014513   4.649   0.790   6.537
  112CHL1   C1914514   4.646   0.944   6.548
  112CHL1  H19A14515   4.545   0.981   6.521
  112CHL1  H19B14516   4.665   0.980   6.651
  112CHL1  H19C14517   4.721   0.990   6.481
  112CHL1    C114518   4.530   0.728   6.616
  112CHL1   H1A14519   4.434   0.767   6.576
  112CHL1   H1B14520   4.529   0.618   6.600
  112CHL1    C214521   4.535   0.757   6.767
  112CHL1   H2A14522   4.450   0.705   6.816
  112CHL1   H2B14523   4.522   0.866   6.783
  112CHL1   C2014524   4.600   0.834   5.831
  112CHL1   H2014525   4.644   0.936   5.829
  112CHL1   C2114526   4.447   0.850   5.847
  112CHL1  H21A14527   4.398   0.752   5.861
  112CHL1  H21B14528   4.402   0.900   5.758
  112CHL1  H21C14529   4.424   0.917   5.933
  112CHL1   C2214530   4.635   0.768   5.694
  112CHL1  H22A14531   4.744   0.773   5.679
  112CHL1  H22B14532   4.605   0.661   5.697
  112CHL1   C2314533   4.568   0.834   5.573
  112CHL1  H23A14534   4.459   0.810   5.574
  112CHL1  H23B14535   4.578   0.945   5.580
  112CHL1   C2414536   4.627   0.788   5.439
  112CHL1  H24A14537   4.733   0.822   5.434
  112CHL1  H24B14538   4.626   0.677   5.433
  112CHL1   C2514539   4.551   0.845   5.317
  112CHL1   H2514540   4.535   0.954   5.334
  112CHL1   C2614541   4.633   0.829   5.188
  112CHL1  H26A14542   4.656   0.721   5.171
  112CHL1  H26B14543   4.578   0.868   5.101
  112CHL1  H26C14544   4.729   0.884   5.198
  112CHL1   C2714545   4.415   0.777   5.298
  112CHL1  H27A14546   4.360   0.824   5.213
  112CHL1  H27B14547   4.429   0.669   5.276
  112CHL1  H27C14548   4.353   0.786   5.390
  113CHL1    C314549   0.490   4.941   6.698
  113CHL1    H314550   0.447   4.841   6.675
  113CHL1    O314551   0.480   4.965   6.838
  113CHL1   H3'14552   0.385   4.969   6.852
  113CHL1    C414553   0.636   4.946   6.651
  113CHL1   H4A14554   0.681   5.043   6.683
  113CHL1   H4B14555   0.692   4.867   6.706
  113CHL1    C514556   0.648   4.928   6.501
  113CHL1    C614557   0.717   4.826   6.447
  113CHL1    H614558   0.769   4.754   6.512
  113CHL1    C714559   0.734   4.806   6.299
  113CHL1   H7A14560   0.838   4.778   6.274
  113CHL1   H7B14561   0.668   4.723   6.265
  113CHL1    C814562   0.697   4.934   6.218
  113CHL1    H814563   0.778   5.008   6.234
  113CHL1   C1414564   0.685   4.901   6.069
  113CHL1   H1414565   0.601   4.830   6.059
  113CHL1   C1514566   0.805   4.833   6.002
  113CHL1  H15A14567   0.900   4.881   6.036
  113CHL1  H15B14568   0.810   4.725   6.025
  113CHL1   C1614569   0.784   4.860   5.852
  113CHL1  H16A14570   0.876   4.907   5.811
  113CHL1  H16B14571   0.763   4.766   5.797
  113CHL1   C1714572   0.664   4.959   5.840
  113CHL1   H1714573   0.573   4.897   5.824
  113CHL1   C1314574   0.650   5.021   5.981
  113CHL1   C1814575   0.757   5.131   5.995
  113CHL1  H18A14576   0.730   5.218   5.931
  113CHL1  H18B14577   0.765   5.169   6.099
  113CHL1  H18C14578   0.857   5.095   5.964
  113CHL1   C1214579   0.510   5.068   6.024
  113CHL1  H12A14580   0.477   5.157   5.966
  113CHL1  H12B14581   0.437   4.986   6.006
  113CHL1   C1114582   0.508   5.105   6.174
  113CHL1  H11A14583   0.569   5.198   6.184
  113CHL1  H11B14584   0.404   5.130   6.204
  113CHL1    C914585   0.564   4.993   6.267
  113CHL1    H914586   0.491   4.909   6.257
  113CHL1   C1014587   0.568   5.030   6.418
  113CHL1   C1914588   0.635   5.169   6.434
  113CHL1  H19A14589   0.571   5.248   6.389
  113CHL1  H19B14590   0.648   5.197   6.541
  113CHL1  H19C14591   0.735   5.171   6.385
  113CHL1    C114592   0.423   5.032   6.472
  113CHL1   H1A14593   0.366   5.112   6.422
  113CHL1   H1B14594   0.376   4.935   6.445
  113CHL1    C214595   0.410   5.048   6.624
  113CHL1   H2A14596   0.303   5.045   6.653
  113CHL1   H2B14597   0.451   5.148   6.653
  113CHL1   C2014598   0.679   5.054   5.719
  113CHL1   H2014599   0.764   5.122   5.736
  113CHL1   C2114600   0.552   5.141   5.701
  113CHL1  H21A14601   0.557   5.195   5.604
  113CHL1  H21B14602   0.545   5.217   5.781
  113CHL1  H21C14603   0.461   5.078   5.702
  113CHL1   C2214604   0.711   4.982   5.585
  113CHL1  H22A14605   0.708   5.059   5.505
  113CHL1  H22B14606   0.815   4.943   5.588
  113CHL1   C2314607   0.616   4.867   5.548
  113CHL1  H23A14608   0.640   4.779   5.613
  113CHL1  H23B14609   0.511   4.895   5.568
  113CHL1   C2414610   0.627   4.823   5.401
  113CHL1  H24A14611   0.734   4.810   5.372
  113CHL1  H24B14612   0.578   4.724   5.391
  113CHL1   C2514613   0.557   4.920   5.303
  113CHL1   H2514614   0.498   4.992   5.364
  113CHL1   C2614615   0.656   5.000   5.218
  113CHL1  H26A14616   0.713   4.932   5.151
  113CHL1  H26B14617   0.602   5.074   5.155
  113CHL1  H26C14618   0.729   5.054   5.283
  113CHL1   C2714619   0.459   4.844   5.213
  113CHL1  H27A14620   0.406   4.915   5.147
  113CHL1  H27B14621   0.513   4.770   5.150
  113CHL1  H27C14622   0.384   4.789   5.274
  114CHL1    C314623   5.420   7.202   6.732
  114CHL1    H314624   5.524   7.235   6.712
  114CHL1    O314625   5.402   7.183   6.871
  114CHL1   H3'14626   5.311   7.154   6.880
  114CHL1    C414627   5.321   7.308   6.681
  114CHL1   H4A14628   5.218   7.277   6.709
  114CHL1   H4B14629   5.342   7.402   6.736
  114CHL1    C514630   5.329   7.328   6.531
  114CHL1    C614631   5.351   7.449   6.476
  114CHL1    H614632   5.359   7.537   6.541
  114CHL1    C714633   5.355   7.474   6.328
  114CHL1   H7A14634   5.293   7.563   6.302
  114CHL1   H7B14635   5.459   7.497   6.298
  114CHL1    C814636   5.305   7.354   6.243
  114CHL1    H814637   5.194   7.353   6.247
  114CHL1   C1414638   5.350   7.370   6.099
  114CHL1   H1414639   5.461   7.366   6.102
  114CHL1   C1514640   5.317   7.501   6.027
  114CHL1  H15A14641   5.210   7.527   6.045
  114CHL1  H15B14642   5.380   7.585   6.062
  114CHL1   C1614643   5.340   7.468   5.879
  114CHL1  H16A14644   5.250   7.498   5.821
  114CHL1  H16B14645   5.429   7.521   5.839
  114CHL1   C1714646   5.362   7.313   5.869
  114CHL1   H1714647   5.472   7.297   5.871
  114CHL1   C1314648   5.309   7.257   6.004
  114CHL1   C1814649   5.155   7.247   5.993
  114CHL1  H18A14650   5.112   7.339   5.948
  114CHL1  H18B14651   5.129   7.161   5.928
  114CHL1  H18C14652   5.109   7.231   6.093
  114CHL1   C1214653   5.371   7.127   6.058
  114CHL1  H12A14654   5.341   7.039   5.996
  114CHL1  H12B14655   5.482   7.134   6.053
  114CHL1   C1114656   5.329   7.101   6.204
  114CHL1  H11A14657   5.221   7.078   6.204
  114CHL1  H11B14658   5.383   7.011   6.240
  114CHL1    C914659   5.358   7.221   6.299
  114CHL1    H914660   5.469   7.232   6.298
  114CHL1   C1014661   5.318   7.199   6.448
  114CHL1   C1914662   5.171   7.152   6.454
  114CHL1  H19A14663   5.104   7.224   6.402
  114CHL1  H19B14664   5.160   7.052   6.406
  114CHL1  H19C14665   5.134   7.142   6.558
  114CHL1    C114666   5.410   7.088   6.508
  114CHL1   H1A14667   5.387   6.992   6.457
  114CHL1   H1B14668   5.516   7.114   6.486
  114CHL1    C214669   5.396   7.069   6.660
  114CHL1   H2A14670   5.470   6.993   6.694
  114CHL1   H2B14671   5.295   7.030   6.683
  114CHL1   C2014672   5.312   7.256   5.735
  114CHL1   H2014673   5.203   7.272   5.727
  114CHL1   C2114674   5.340   7.105   5.728
  114CHL1  H21A14675   5.315   7.065   5.627
  114CHL1  H21B14676   5.277   7.050   5.801
  114CHL1  H21C14677   5.447   7.083   5.748
  114CHL1   C2214678   5.378   7.332   5.616
  114CHL1  H22A14679   5.352   7.440   5.621
  114CHL1  H22B14680   5.489   7.324   5.627
  114CHL1   C2314681   5.342   7.285   5.474
  114CHL1  H23A14682   5.399   7.347   5.403
  114CHL1  H23B14683   5.375   7.180   5.459
  114CHL1   C2414684   5.192   7.298   5.441
  114CHL1  H24A14685   5.136   7.223   5.502
  114CHL1  H24B14686   5.158   7.399   5.472
  114CHL1   C2514687   5.156   7.277   5.292
  114CHL1   H2514688   5.045   7.279   5.286
  114CHL1   C2614689   5.208   7.392   5.204
  114CHL1  H26A14690   5.174   7.490   5.243
  114CHL1  H26B14691   5.319   7.392   5.201
  114CHL1  H26C14692   5.171   7.380   5.100
  114CHL1   C2714693   5.202   7.141   5.239
  114CHL1  H27A14694   5.171   7.129   5.133
  114CHL1  H27B14695   5.313   7.132   5.243
  114CHL1  H27C14696   5.158   7.058   5.299
  115CHL1    C314697   1.796   0.687   6.762
  115CHL1    H314698   1.699   0.665   6.712
  115CHL1    O314699   1.776   0.690   6.903
  115CHL1   H3'14700   1.816   0.774   6.929
  115CHL1    C414701   1.899   0.579   6.726
  115CHL1   H4A14702   1.991   0.597   6.786
  115CHL1   H4B14703   1.859   0.481   6.759
  115CHL1    C514704   1.935   0.580   6.579
  115CHL1    C614705   1.923   0.470   6.503
  115CHL1    H614706   1.889   0.376   6.548
  115CHL1    C714707   1.959   0.466   6.357
  115CHL1   H7A14708   2.015   0.373   6.332
  115CHL1   H7B14709   1.864   0.465   6.298
  115CHL1    C814710   2.040   0.588   6.308
  115CHL1    H814711   2.146   0.576   6.342
  115CHL1   C1414712   2.036   0.596   6.156
  115CHL1   H1414713   1.929   0.610   6.130
  115CHL1   C1514714   2.081   0.473   6.075
  115CHL1  H15A14715   2.178   0.435   6.114
  115CHL1  H15B14716   2.006   0.391   6.078
  115CHL1   C1614717   2.099   0.529   5.933
  115CHL1  H16A14718   2.200   0.500   5.895
  115CHL1  H16B14719   2.022   0.490   5.863
  115CHL1   C1714720   2.087   0.684   5.944
  115CHL1   H1714721   1.981   0.709   5.923
  115CHL1   C1314722   2.109   0.715   6.094
  115CHL1   C1814723   2.261   0.709   6.124
  115CHL1  H18A14724   2.309   0.619   6.080
  115CHL1  H18B14725   2.312   0.799   6.083
  115CHL1  H18C14726   2.280   0.708   6.234
  115CHL1   C1214727   2.045   0.844   6.150
  115CHL1  H12A14728   2.099   0.934   6.114
  115CHL1  H12B14729   1.940   0.850   6.115
  115CHL1   C1114730   2.047   0.845   6.304
  115CHL1  H11A14731   2.153   0.854   6.336
  115CHL1  H11B14732   1.994   0.936   6.339
  115CHL1    C914733   1.983   0.718   6.367
  115CHL1    H914734   1.877   0.720   6.332
  115CHL1   C1014735   1.977   0.717   6.522
  115CHL1   C1914736   2.118   0.748   6.577
  115CHL1  H19A14737   2.122   0.741   6.688
  115CHL1  H19B14738   2.194   0.679   6.535
  115CHL1  H19C14739   2.146   0.852   6.551
  115CHL1    C114740   1.876   0.826   6.568
  115CHL1   H1A14741   1.915   0.927   6.541
  115CHL1   H1B14742   1.781   0.812   6.513
  115CHL1    C214743   1.845   0.826   6.719
  115CHL1   H2A14744   1.768   0.903   6.741
  115CHL1   H2B14745   1.937   0.852   6.774
  115CHL1   C2014746   2.171   0.758   5.839
  115CHL1   H2014747   2.279   0.735   5.858
  115CHL1   C2114748   2.152   0.910   5.848
  115CHL1  H21A14749   2.044   0.936   5.855
  115CHL1  H21B14750   2.194   0.960   5.758
  115CHL1  H21C14751   2.206   0.951   5.937
  115CHL1   C2214752   2.145   0.711   5.693
  115CHL1  H22A14753   2.210   0.772   5.626
  115CHL1  H22B14754   2.176   0.605   5.680
  115CHL1   C2314755   2.000   0.727   5.644
  115CHL1  H23A14756   1.935   0.652   5.696
  115CHL1  H23B14757   1.962   0.828   5.671
  115CHL1   C2414758   1.988   0.709   5.492
  115CHL1  H24A14759   2.038   0.795   5.442
  115CHL1  H24B14760   2.042   0.617   5.462
  115CHL1   C2514761   1.843   0.698   5.439
  115CHL1   H2514762   1.799   0.604   5.479
  115CHL1   C2614763   1.754   0.814   5.485
  115CHL1  H26A14764   1.653   0.803   5.442
  115CHL1  H26B14765   1.744   0.816   5.596
  115CHL1  H26C14766   1.797   0.911   5.452
  115CHL1   C2714767   1.842   0.689   5.285
  115CHL1  H27A14768   1.885   0.782   5.242
  115CHL1  H27B14769   1.903   0.603   5.251
  115CHL1  H27C14770   1.738   0.677   5.248
  116CHL1    C314771   2.613   0.348   6.726
  116CHL1    H314772   2.573   0.251   6.689
  116CHL1    O314773   2.603   0.351   6.867
  116CHL1   H3'14774   2.656   0.427   6.893
  116CHL1    C414775   2.760   0.362   6.685
  116CHL1   H4A14776   2.801   0.456   6.727
  116CHL1   H4B14777   2.816   0.278   6.732
  116CHL1    C514778   2.776   0.363   6.534
  116CHL1    C614779   2.856   0.274   6.472
  116CHL1    H614780   2.911   0.201   6.532
  116CHL1    C714781   2.880   0.271   6.324
  116CHL1   H7A14782   2.989   0.266   6.303
  116CHL1   H7B14783   2.835   0.179   6.281
  116CHL1    C814784   2.821   0.394   6.250
  116CHL1    H814785   2.892   0.479   6.262
  116CHL1   C1414786   2.807   0.362   6.102
  116CHL1   H1414787   2.732   0.280   6.096
  116CHL1   C1514788   2.931   0.309   6.031
  116CHL1  H15A14789   3.018   0.374   6.055
  116CHL1  H15B14790   2.956   0.204   6.059
  116CHL1   C1614791   2.895   0.324   5.883
  116CHL1  H16A14792   2.978   0.375   5.829
  116CHL1  H16B14793   2.879   0.224   5.837
  116CHL1   C1714794   2.764   0.408   5.875
  116CHL1   H1714795   2.680   0.336   5.867
  116CHL1   C1314796   2.751   0.474   6.015
  116CHL1   C1814797   2.844   0.599   6.019
  116CHL1  H18A14798   2.855   0.637   6.123
  116CHL1  H18B14799   2.945   0.576   5.980
  116CHL1  H18C14800   2.801   0.681   5.958
  116CHL1   C1214801   2.610   0.506   6.067
  116CHL1  H12A14802   2.564   0.590   6.012
  116CHL1  H12B14803   2.545   0.416   6.053
  116CHL1   C1114804   2.612   0.541   6.218
  116CHL1  H11A14805   2.664   0.639   6.229
  116CHL1  H11B14806   2.508   0.554   6.253
  116CHL1    C914807   2.684   0.433   6.306
  116CHL1    H914808   2.622   0.342   6.295
  116CHL1   C1014809   2.690   0.465   6.458
  116CHL1   C1914810   2.757   0.602   6.479
  116CHL1  H19A14811   2.765   0.628   6.586
  116CHL1  H19B14812   2.859   0.605   6.435
  116CHL1  H19C14813   2.697   0.683   6.432
  116CHL1    C114814   2.544   0.465   6.513
  116CHL1   H1A14815   2.491   0.555   6.475
  116CHL1   H1B14816   2.491   0.376   6.474
  116CHL1    C214817   2.531   0.463   6.667
  116CHL1   H2A14818   2.425   0.453   6.696
  116CHL1   H2B14819   2.569   0.560   6.707
  116CHL1   C2014820   2.761   0.495   5.748
  116CHL1   H2014821   2.843   0.570   5.755
  116CHL1   C2114822   2.627   0.571   5.738
  116CHL1  H21A14823   2.621   0.626   5.641
  116CHL1  H21B14824   2.619   0.646   5.819
  116CHL1  H21C14825   2.541   0.501   5.744
  116CHL1   C2214826   2.785   0.413   5.619
  116CHL1  H22A14827   2.862   0.335   5.636
  116CHL1  H22B14828   2.691   0.361   5.590
  116CHL1   C2314829   2.837   0.498   5.501
  116CHL1  H23A14830   2.758   0.569   5.467
  116CHL1  H23B14831   2.923   0.558   5.538
  116CHL1   C2414832   2.882   0.410   5.384
  116CHL1  H24A14833   2.957   0.336   5.420
  116CHL1  H24B14834   2.794   0.353   5.347
  116CHL1   C2514835   2.944   0.488   5.266
  116CHL1   H2514836   2.873   0.568   5.237
  116CHL1   C2614837   3.079   0.553   5.304
  116CHL1  H26A14838   3.124   0.602   5.216
  116CHL1  H26B14839   3.064   0.630   5.383
  116CHL1  H26C14840   3.149   0.476   5.342
  116CHL1   C2714841   2.964   0.396   5.145
  116CHL1  H27A14842   2.872   0.337   5.126
  116CHL1  H27B14843   2.987   0.456   5.055
  116CHL1  H27C14844   3.048   0.325   5.163
  117CHL1    C314845   5.506   0.334   6.735
  117CHL1    H314846   5.610   0.308   6.706
  117CHL1    O314847   5.499   0.346   6.876
  117CHL1   H3'14848   5.564   0.414   6.898
  117CHL1    C414849   5.465   0.467   6.670
  117CHL1   H4A14850   5.366   0.497   6.710
  117CHL1   H4B14851   5.537   0.545   6.704
  117CHL1    C514852   5.459   0.458   6.519
  117CHL1    C614853   5.529   0.542   6.440
  117CHL1    H614854   5.591   0.620   6.486
  117CHL1    C714855   5.523   0.541   6.290
  117CHL1   H7A14856   5.510   0.644   6.251
  117CHL1   H7B14857   5.620   0.503   6.250
  117CHL1    C814858   5.409   0.452   6.234
  117CHL1    H814859   5.313   0.508   6.246
  117CHL1   C1414860   5.432   0.423   6.086
  117CHL1   H1414861   5.529   0.368   6.081
  117CHL1   C1514862   5.450   0.544   5.992
  117CHL1  H15A14863   5.371   0.619   6.013
  117CHL1  H15B14864   5.549   0.591   6.003
  117CHL1   C1614865   5.429   0.484   5.852
  117CHL1  H16A14866   5.350   0.542   5.800
  117CHL1  H16B14867   5.522   0.486   5.792
  117CHL1   C1714868   5.382   0.335   5.873
  117CHL1   H1714869   5.475   0.274   5.872
  117CHL1   C1314870   5.330   0.332   6.019
  117CHL1   C1814871   5.188   0.396   6.022
  117CHL1  H18A14872   5.184   0.491   5.965
  117CHL1  H18B14873   5.114   0.326   5.978
  117CHL1  H18C14874   5.156   0.417   6.126
  117CHL1   C1214875   5.333   0.197   6.094
  117CHL1  H12A14876   5.256   0.127   6.054
  117CHL1  H12B14877   5.433   0.151   6.080
  117CHL1   C1114878   5.305   0.216   6.244
  117CHL1  H11A14879   5.199   0.248   6.255
  117CHL1  H11B14880   5.315   0.117   6.294
  117CHL1    C914881   5.400   0.320   6.311
  117CHL1    H914882   5.501   0.275   6.303
  117CHL1   C1014883   5.375   0.341   6.463
  117CHL1   C1914884   5.225   0.376   6.486
  117CHL1  H19A14885   5.195   0.464   6.426
  117CHL1  H19B14886   5.160   0.290   6.459
  117CHL1  H19C14887   5.205   0.398   6.593
  117CHL1    C114888   5.410   0.209   6.538
  117CHL1   H1A14889   5.337   0.130   6.510
  117CHL1   H1B14890   5.511   0.175   6.505
  117CHL1    C214891   5.412   0.221   6.691
  117CHL1   H2A14892   5.443   0.125   6.737
  117CHL1   H2B14893   5.309   0.243   6.727
  117CHL1   C2014894   5.292   0.284   5.759
  117CHL1   H2014895   5.195   0.337   5.764
  117CHL1   C2114896   5.266   0.133   5.778
  117CHL1  H21A14897   5.361   0.079   5.798
  117CHL1  H21B14898   5.220   0.089   5.687
  117CHL1  H21C14899   5.195   0.115   5.861
  117CHL1   C2214900   5.353   0.311   5.619
  117CHL1  H22A14901   5.378   0.419   5.609
  117CHL1  H22B14902   5.448   0.254   5.610
  117CHL1   C2314903   5.262   0.277   5.498
  117CHL1  H23A14904   5.318   0.304   5.406
  117CHL1  H23B14905   5.243   0.168   5.494
  117CHL1   C2414906   5.128   0.352   5.500
  117CHL1  H24A14907   5.071   0.321   5.590
  117CHL1  H24B14908   5.146   0.461   5.507
  117CHL1   C2514909   5.038   0.324   5.378
  117CHL1   H2514910   5.026   0.214   5.368
  117CHL1   C2614911   4.899   0.385   5.399
  117CHL1  H26A14912   4.906   0.495   5.411
  117CHL1  H26B14913   4.833   0.363   5.312
  117CHL1  H26C14914   4.852   0.343   5.490
  117CHL1   C2714915   5.100   0.376   5.247
  117CHL1  H27A14916   5.194   0.321   5.223
  117CHL1  H27B14917   5.029   0.363   5.163
  117CHL1  H27C14918   5.124   0.484   5.257
  118CHL1    C314919   7.492   1.604   6.819
  118CHL1    H314920   7.496   1.712   6.792
  118CHL1    O314921   7.491   1.591   6.960
  118CHL1   H3'14922   7.520   1.500   6.973
  118CHL1    C414923   7.364   1.542   6.761
  118CHL1   H4A14924   7.356   1.438   6.801
  118CHL1   H4B14925   7.277   1.598   6.801
  118CHL1    C514926   7.365   1.538   6.609
  118CHL1    C614927   7.267   1.594   6.536
  118CHL1    H614928   7.182   1.641   6.588
  118CHL1    C714929   7.263   1.591   6.386
  118CHL1   H7A14930   7.161   1.569   6.349
  118CHL1   H7B14931   7.292   1.692   6.347
  118CHL1    C814932   7.361   1.488   6.325
  118CHL1    H814933   7.318   1.387   6.340
  118CHL1   C1414934   7.379   1.515   6.176
  118CHL1   H1414935   7.426   1.615   6.168
  118CHL1   C1514936   7.253   1.523   6.089
  118CHL1  H15A14937   7.186   1.437   6.111
  118CHL1  H15B14938   7.197   1.618   6.105
  118CHL1   C1614939   7.308   1.512   5.946
  118CHL1  H16A14940   7.250   1.436   5.889
  118CHL1  H16B14941   7.300   1.609   5.892
  118CHL1   C1714942   7.458   1.470   5.958
  118CHL1   H1714943   7.517   1.564   5.953
  118CHL1   C1314944   7.474   1.419   6.103
  118CHL1   C1814945   7.423   1.274   6.110
  118CHL1  H18A14946   7.326   1.262   6.058
  118CHL1  H18B14947   7.497   1.206   6.062
  118CHL1  H18C14948   7.410   1.240   6.215
  118CHL1   C1214949   7.613   1.434   6.169
  118CHL1  H12A14950   7.687   1.364   6.126
  118CHL1  H12B14951   7.650   1.538   6.152
  118CHL1   C1114952   7.605   1.408   6.321
  118CHL1  H11A14953   7.581   1.300   6.334
  118CHL1  H11B14954   7.705   1.424   6.366
  118CHL1    C914955   7.498   1.495   6.393
  118CHL1    H914956   7.532   1.600   6.379
  118CHL1   C1014957   7.490   1.474   6.546
  118CHL1   C1914958   7.484   1.322   6.575
  118CHL1  H19A14959   7.581   1.275   6.549
  118CHL1  H19B14960   7.468   1.300   6.683
  118CHL1  H19C14961   7.403   1.273   6.517
  118CHL1    C114962   7.618   1.535   6.612
  118CHL1   H1A14963   7.706   1.477   6.578
  118CHL1   H1B14964   7.630   1.640   6.577
  118CHL1    C214965   7.617   1.534   6.765
  118CHL1   H2A14966   7.709   1.582   6.804
  118CHL1   H2B14967   7.618   1.428   6.800
  118CHL1   C2014968   7.504   1.384   5.839
  118CHL1   H2014969   7.450   1.287   5.840
  118CHL1   C2114970   7.655   1.353   5.850
  118CHL1  H21A14971   7.691   1.296   5.762
  118CHL1  H21B14972   7.676   1.288   5.938
  118CHL1  H21C14973   7.714   1.447   5.859
  118CHL1   C2214974   7.468   1.455   5.705
  118CHL1  H22A14975   7.360   1.438   5.684
  118CHL1  H22B14976   7.481   1.565   5.719
  118CHL1   C2314977   7.549   1.416   5.581
  118CHL1  H23A14978   7.657   1.434   5.599
  118CHL1  H23B14979   7.535   1.307   5.560
  118CHL1   C2414980   7.509   1.500   5.458
  118CHL1  H24A14981   7.406   1.475   5.427
  118CHL1  H24B14982   7.511   1.607   5.488
  118CHL1   C2514983   7.605   1.482   5.339
  118CHL1   H2514984   7.709   1.495   5.376
  118CHL1   C2614985   7.594   1.343   5.277
  118CHL1  H26A14986   7.662   1.333   5.190
  118CHL1  H26B14987   7.620   1.264   5.351
  118CHL1  H26C14988   7.490   1.325   5.241
  118CHL1   C2714989   7.580   1.590   5.232
  118CHL1  H27A14990   7.652   1.579   5.148
  118CHL1  H27B14991   7.477   1.582   5.193
  118CHL1  H27C14992   7.594   1.691   5.277
  119CHL1    C314993   1.166   0.290   6.830
  119CHL1    H314994   1.097   0.208   6.799
  119CHL1    O314995   1.190   0.281   6.970
  119CHL1   H3'14996   1.119   0.227   7.004
  119CHL1    C414997   1.300   0.273   6.757
  119CHL1   H4A14998   1.376   0.340   6.802
  119CHL1   H4B14999   1.336   0.170   6.776
  119CHL1    C515000   1.288   0.302   6.609
  119CHL1    C615001   1.326   0.212   6.516
  119CHL1    H615002   1.369   0.116   6.548
  119CHL1    C715003   1.323   0.240   6.369
  119CHL1   H7A15004   1.413   0.199   6.320
  119CHL1   H7B15005   1.235   0.190   6.323
  119CHL1    C815006   1.315   0.392   6.339
  119CHL1    H815007   1.412   0.437   6.369
  119CHL1   C1415008   1.293   0.415   6.190
  119CHL1   H1415009   1.196   0.366   6.165
  119CHL1   C1515010   1.396   0.356   6.091
  119CHL1  H15A15011   1.499   0.370   6.132
  119CHL1  H15B15012   1.379   0.248   6.073
  119CHL1   C1615013   1.381   0.441   5.964
  119CHL1  H16A15014   1.478   0.489   5.942
  119CHL1  H16B15015   1.350   0.380   5.876
  119CHL1   C1715016   1.271   0.547   5.998
  119CHL1   H1715017   1.175   0.495   5.976
  119CHL1   C1315018   1.277   0.561   6.151
  119CHL1   C1815019   1.404   0.642   6.189
  119CHL1  H18A15020   1.426   0.636   6.298
  119CHL1  H18B15021   1.494   0.607   6.135
  119CHL1  H18C15022   1.390   0.750   6.165
  119CHL1   C1215023   1.152   0.616   6.222
  119CHL1  H12A15024   1.139   0.723   6.196
  119CHL1  H12B15025   1.063   0.560   6.186
  119CHL1   C1115026   1.164   0.600   6.375
  119CHL1  H11A15027   1.242   0.672   6.408
  119CHL1  H11B15028   1.068   0.631   6.422
  119CHL1    C915029   1.201   0.455   6.421
  119CHL1    H915030   1.112   0.394   6.397
  119CHL1   C1015031   1.225   0.439   6.574
  119CHL1   C1915032   1.322   0.550   6.622
  119CHL1  H19A15033   1.415   0.551   6.560
  119CHL1  H19B15034   1.273   0.649   6.615
  119CHL1  H19C15035   1.352   0.537   6.728
  119CHL1    C115036   1.090   0.450   6.649
  119CHL1   H1A15037   1.048   0.552   6.633
  119CHL1   H1B15038   1.018   0.377   6.606
  119CHL1    C215039   1.100   0.425   6.801
  119CHL1   H2A15040   0.999   0.428   6.847
  119CHL1   H2B15041   1.160   0.506   6.847
  119CHL1   C2015042   1.270   0.677   5.916
  119CHL1   H2015043   1.311   0.760   5.976
  119CHL1   C2115044   1.122   0.709   5.887
  119CHL1  H21A15045   1.062   0.707   5.980
  119CHL1  H21B15046   1.080   0.636   5.815
  119CHL1  H21C15047   1.113   0.811   5.844
  119CHL1   C2215048   1.356   0.672   5.786
  119CHL1  H22A15049   1.462   0.660   5.818
  119CHL1  H22B15050   1.329   0.582   5.725
  119CHL1   C2315051   1.352   0.797   5.697
  119CHL1  H23A15052   1.342   0.888   5.760
  119CHL1  H23B15053   1.450   0.803   5.646
  119CHL1   C2415054   1.242   0.796   5.588
  119CHL1  H24A15055   1.245   0.700   5.532
  119CHL1  H24B15056   1.142   0.801   5.635
  119CHL1   C2515057   1.253   0.911   5.485
  119CHL1   H2515058   1.259   1.007   5.542
  119CHL1   C2615059   1.379   0.899   5.399
  119CHL1  H26A15060   1.384   0.799   5.351
  119CHL1  H26B15061   1.378   0.976   5.318
  119CHL1  H26C15062   1.470   0.914   5.460
  119CHL1   C2715063   1.129   0.917   5.395
  119CHL1  H27A15064   1.115   0.821   5.342
  119CHL1  H27B15065   1.039   0.938   5.456
  119CHL1  H27C15066   1.139   0.999   5.320
  120CHL1    C315067   7.379   7.515   6.752
  120CHL1    H315068   7.271   7.501   6.731
  120CHL1    O315069   7.399   7.519   6.892
  120CHL1   H3'15070   7.373   7.607   6.922
  120CHL1    C415071   7.459   7.398   6.695
  120CHL1   H4A15072   7.565   7.411   6.727
  120CHL1   H4B15073   7.424   7.304   6.744
  120CHL1    C515074   7.453   7.389   6.545
  120CHL1    C615075   7.412   7.277   6.483
  120CHL1    H615076   7.385   7.189   6.542
  120CHL1    C715077   7.411   7.260   6.334
  120CHL1   H7A15078   7.457   7.163   6.305
  120CHL1   H7B15079   7.305   7.258   6.299
  120CHL1    C815080   7.485   7.374   6.258
  120CHL1    H815081   7.594   7.355   6.263
  120CHL1   C1415082   7.441   7.374   6.112
  120CHL1   H1415083   7.332   7.395   6.116
  120CHL1   C1515084   7.450   7.242   6.033
  120CHL1  H15A15085   7.551   7.196   6.048
  120CHL1  H15B15086   7.372   7.169   6.065
  120CHL1   C1615087   7.433   7.287   5.888
  120CHL1  H16A15088   7.521   7.253   5.829
  120CHL1  H16B15089   7.341   7.246   5.842
  120CHL1   C1715090   7.428   7.443   5.890
  120CHL1   H1715091   7.322   7.471   5.906
  120CHL1   C1315092   7.499   7.483   6.022
  120CHL1   C1815093   7.652   7.465   6.006
  120CHL1  H18A15094   7.703   7.473   6.104
  120CHL1  H18B15095   7.678   7.366   5.962
  120CHL1  H18C15096   7.693   7.544   5.939
  120CHL1   C1215097   7.463   7.619   6.085
  120CHL1  H12A15098   7.510   7.702   6.029
  120CHL1  H12B15099   7.353   7.633   6.080
  120CHL1   C1115100   7.508   7.628   6.232
  120CHL1  H11A15101   7.619   7.628   6.233
  120CHL1  H11B15102   7.474   7.725   6.274
  120CHL1    C915103   7.454   7.511   6.320
  120CHL1    H915104   7.343   7.520   6.315
  120CHL1   C1015105   7.491   7.519   6.470
  120CHL1   C1915106   7.644   7.539   6.484
  120CHL1  H19A15107   7.676   7.636   6.440
  120CHL1  H19B15108   7.677   7.540   6.590
  120CHL1  H19C15109   7.700   7.458   6.432
  120CHL1    C115110   7.416   7.640   6.535
  120CHL1   H1A15111   7.457   7.734   6.493
  120CHL1   H1B15112   7.309   7.634   6.507
  120CHL1    C215113   7.425   7.647   6.689
  120CHL1   H2A15114   7.364   7.731   6.727
  120CHL1   H2B15115   7.531   7.666   6.719
  120CHL1   C2015116   7.467   7.505   5.754
  120CHL1   H2015117   7.568   7.469   5.724
  120CHL1   C2115118   7.473   7.659   5.763
  120CHL1  H21A15119   7.489   7.703   5.662
  120CHL1  H21B15120   7.559   7.692   5.826
  120CHL1  H21C15121   7.379   7.700   5.804
  120CHL1   C2215122   7.365   7.467   5.643
  120CHL1  H22A15123   7.265   7.453   5.689
  120CHL1  H22B15124   7.355   7.551   5.572
  120CHL1   C2315125   7.401   7.341   5.561
  120CHL1  H23A15126   7.466   7.273   5.620
  120CHL1  H23B15127   7.307   7.286   5.538
  120CHL1   C2415128   7.469   7.375   5.428
  120CHL1  H24A15129   7.399   7.438   5.368
  120CHL1  H24B15130   7.561   7.435   5.446
  120CHL1   C2515131   7.504   7.250   5.344
  120CHL1   H2515132   7.416   7.182   5.347
  120CHL1   C2615133   7.527   7.287   5.196
  120CHL1  H26A15134   7.611   7.359   5.187
  120CHL1  H26B15135   7.551   7.197   5.137
  120CHL1  H26C15136   7.436   7.334   5.154
  120CHL1   C2715137   7.626   7.175   5.399
  120CHL1  H27A15138   7.717   7.239   5.395
  120CHL1  H27B15139   7.610   7.146   5.505
  120CHL1  H27C15140   7.645   7.083   5.340
  121CHL1    C315141   4.287   3.829   3.200
  121CHL1    H315142   4.288   3.938   3.222
  121CHL1    O315143   4.265   3.810   3.061
  121CHL1   H3'15144   4.316   3.878   3.018
  121CHL1    C415145   4.423   3.768   3.237
  121CHL1   H4A15146   4.427   3.664   3.199
  121CHL1   H4B15147   4.501   3.824   3.181
  121CHL1    C515148   4.450   3.768   3.386
  121CHL1    C615149   4.561   3.823   3.438
  121CHL1    H615150   4.637   3.866   3.371
  121CHL1    C715151   4.596   3.820   3.584
  121CHL1   H7A15152   4.702   3.792   3.599
  121CHL1   H7B15153   4.582   3.921   3.628
  121CHL1    C815154   4.508   3.721   3.665
  121CHL1    H815155   4.544   3.619   3.642
  121CHL1   C1415156   4.521   3.748   3.814
  121CHL1   H1415157   4.479   3.850   3.831
  121CHL1   C1515158   4.663   3.754   3.873
  121CHL1  H15A15159   4.723   3.668   3.836
  121CHL1  H15B15160   4.716   3.848   3.847
  121CHL1   C1615161   4.639   3.741   4.024
  121CHL1  H16A15162   4.705   3.662   4.066
  121CHL1  H16B15163   4.661   3.836   4.078
  121CHL1   C1715164   4.489   3.704   4.044
  121CHL1   H1715165   4.435   3.799   4.063
  121CHL1   C1315166   4.442   3.655   3.905
  121CHL1   C1815167   4.488   3.508   3.887
  121CHL1  H18A15168   4.428   3.440   3.950
  121CHL1  H18B15169   4.476   3.475   3.782
  121CHL1  H18C15170   4.595   3.496   3.915
  121CHL1   C1215171   4.293   3.675   3.869
  121CHL1  H12A15172   4.227   3.607   3.928
  121CHL1  H12B15173   4.264   3.779   3.894
  121CHL1   C1115174   4.267   3.650   3.719
  121CHL1  H11A15175   4.282   3.541   3.702
  121CHL1  H11B15176   4.161   3.673   3.697
  121CHL1    C915177   4.360   3.733   3.625
  121CHL1    H915178   4.333   3.839   3.643
  121CHL1   C1015179   4.337   3.708   3.473
  121CHL1   C1915180   4.335   3.556   3.447
  121CHL1  H19A15181   4.428   3.510   3.486
  121CHL1  H19B15182   4.248   3.508   3.497
  121CHL1  H19C15183   4.327   3.533   3.339
  121CHL1    C115184   4.200   3.770   3.430
  121CHL1   H1A15185   4.118   3.717   3.483
  121CHL1   H1B15186   4.198   3.876   3.461
  121CHL1    C215187   4.173   3.763   3.278
  121CHL1   H2A15188   4.078   3.814   3.254
  121CHL1   H2B15189   4.164   3.657   3.246
  121CHL1   C2015190   4.468   3.616   4.169
  121CHL1   H2015191   4.527   3.522   4.158
  121CHL1   C2115192   4.319   3.577   4.183
  121CHL1  H21A15193   4.287   3.511   4.100
  121CHL1  H21B15194   4.255   3.668   4.185
  121CHL1  H21C15195   4.301   3.520   4.277
  121CHL1   C2215196   4.517   3.687   4.298
  121CHL1  H22A15197   4.623   3.720   4.285
  121CHL1  H22B15198   4.456   3.778   4.313
  121CHL1   C2315199   4.513   3.602   4.427
  121CHL1  H23A15200   4.409   3.568   4.444
  121CHL1  H23B15201   4.577   3.512   4.414
  121CHL1   C2415202   4.558   3.682   4.551
  121CHL1  H24A15203   4.665   3.711   4.538
  121CHL1  H24B15204   4.498   3.775   4.555
  121CHL1   C2515205   4.543   3.610   4.687
  121CHL1   H2515206   4.573   3.683   4.765
  121CHL1   C2615207   4.398   3.569   4.716
  121CHL1  H26A15208   4.329   3.656   4.704
  121CHL1  H26B15209   4.365   3.489   4.645
  121CHL1  H26C15210   4.388   3.529   4.819
  121CHL1   C2715211   4.636   3.488   4.700
  121CHL1  H27A15212   4.613   3.412   4.623
  121CHL1  H27B15213   4.742   3.520   4.689
  121CHL1  H27C15214   4.625   3.442   4.800
  122CHL1    C315215   2.585   3.793   3.244
  122CHL1    H315216   2.647   3.704   3.267
  122CHL1    O315217   2.559   3.795   3.105
  122CHL1   H3'15218   2.508   3.875   3.089
  122CHL1    C415219   2.453   3.784   3.322
  122CHL1   H4A15220   2.388   3.869   3.293
  122CHL1   H4B15221   2.400   3.691   3.289
  122CHL1    C515222   2.477   3.785   3.472
  122CHL1    C615223   2.433   3.684   3.550
  122CHL1    H615224   2.376   3.602   3.505
  122CHL1    C715225   2.453   3.679   3.699
  122CHL1   H7A15226   2.358   3.650   3.749
  122CHL1   H7B15227   2.528   3.600   3.722
  122CHL1    C815228   2.501   3.813   3.760
  122CHL1    H815229   2.414   3.881   3.768
  122CHL1   C1415230   2.560   3.789   3.898
  122CHL1   H1415231   2.653   3.729   3.881
  122CHL1   C1515232   2.478   3.706   3.999
  122CHL1  H15A15233   2.374   3.744   4.002
  122CHL1  H15B15234   2.477   3.598   3.973
  122CHL1   C1615235   2.549   3.734   4.132
  122CHL1  H16A15236   2.473   3.764   4.208
  122CHL1  H16B15237   2.603   3.644   4.169
  122CHL1   C1715238   2.652   3.849   4.107
  122CHL1   H1715239   2.749   3.800   4.086
  122CHL1   C1315240   2.608   3.913   3.973
  122CHL1   C1815241   2.489   4.009   4.002
  122CHL1  H18A15242   2.412   3.959   4.065
  122CHL1  H18B15243   2.524   4.099   4.055
  122CHL1  H18C15244   2.440   4.042   3.907
  122CHL1   C1215245   2.717   3.980   3.886
  122CHL1  H12A15246   2.750   4.076   3.931
  122CHL1  H12B15247   2.804   3.911   3.881
  122CHL1   C1115248   2.667   4.007   3.743
  122CHL1  H11A15249   2.589   4.086   3.749
  122CHL1  H11B15250   2.751   4.047   3.683
  122CHL1    C915251   2.608   3.881   3.673
  122CHL1    H915252   2.691   3.807   3.667
  122CHL1   C1015253   2.562   3.903   3.525
  122CHL1   C1915254   2.475   4.031   3.518
  122CHL1  H19A15255   2.390   4.025   3.591
  122CHL1  H19B15256   2.535   4.121   3.542
  122CHL1  H19C15257   2.432   4.046   3.417
  122CHL1    C115258   2.688   3.920   3.436
  122CHL1   H1A15259   2.739   4.015   3.463
  122CHL1   H1B15260   2.758   3.837   3.458
  122CHL1    C215261   2.661   3.919   3.284
  122CHL1   H2A15262   2.757   3.924   3.229
  122CHL1   H2B15263   2.601   4.009   3.257
  122CHL1   C2015264   2.673   3.935   4.233
  122CHL1   H2015265   2.576   3.979   4.263
  122CHL1   C2115266   2.772   4.051   4.205
  122CHL1  H21A15267   2.728   4.123   4.133
  122CHL1  H21B15268   2.867   4.011   4.163
  122CHL1  H21C15269   2.794   4.107   4.298
  122CHL1   C2215270   2.725   3.849   4.352
  122CHL1  H22A15271   2.663   3.758   4.362
  122CHL1  H22B15272   2.829   3.817   4.329
  122CHL1   C2315273   2.723   3.919   4.489
  122CHL1  H23A15274   2.785   4.011   4.486
  122CHL1  H23B15275   2.618   3.950   4.512
  122CHL1   C2415276   2.774   3.827   4.602
  122CHL1  H24A15277   2.715   3.732   4.599
  122CHL1  H24B15278   2.880   3.801   4.582
  122CHL1   C2515279   2.761   3.886   4.744
  122CHL1   H2515280   2.655   3.913   4.760
  122CHL1   C2615281   2.800   3.782   4.849
  122CHL1  H26A15282   2.736   3.691   4.840
  122CHL1  H26B15283   2.906   3.751   4.837
  122CHL1  H26C15284   2.787   3.823   4.952
  122CHL1   C2715285   2.846   4.014   4.762
  122CHL1  H27A15286   2.836   4.052   4.866
  122CHL1  H27B15287   2.953   3.992   4.742
  122CHL1  H27C15288   2.812   4.094   4.692
  123CHL1    C315289   5.141   3.752   3.303
  123CHL1    H315290   5.143   3.646   3.336
  123CHL1    O315291   5.061   3.764   3.187
  123CHL1   H3'15292   5.051   3.858   3.173
  123CHL1    C415293   5.082   3.840   3.416
  123CHL1   H4A15294   5.068   3.943   3.376
  123CHL1   H4B15295   4.980   3.800   3.438
  123CHL1    C515296   5.169   3.845   3.540
  123CHL1    C615297   5.121   3.812   3.661
  123CHL1    H615298   5.016   3.784   3.672
  123CHL1    C715299   5.202   3.820   3.788
  123CHL1   H7A15300   5.144   3.869   3.869
  123CHL1   H7B15301   5.225   3.717   3.823
  123CHL1    C815302   5.336   3.896   3.771
  123CHL1    H815303   5.313   4.005   3.767
  123CHL1   C1415304   5.429   3.869   3.889
  123CHL1   H1415305   5.449   3.760   3.887
  123CHL1   C1515306   5.376   3.897   4.031
  123CHL1  H15A15307   5.325   3.996   4.033
  123CHL1  H15B15308   5.304   3.819   4.065
  123CHL1   C1615309   5.503   3.901   4.118
  123CHL1  H16A15310   5.505   3.996   4.176
  123CHL1  H16B15311   5.507   3.816   4.188
  123CHL1   C1715312   5.624   3.895   4.020
  123CHL1   H1715313   5.651   3.788   4.010
  123CHL1   C1315314   5.566   3.936   3.882
  123CHL1   C1815315   5.552   4.090   3.878
  123CHL1  H18A15316   5.490   4.123   3.792
  123CHL1  H18B15317   5.505   4.129   3.971
  123CHL1  H18C15318   5.652   4.137   3.867
  123CHL1   C1215319   5.635   3.881   3.755
  123CHL1  H12A15320   5.735   3.926   3.739
  123CHL1  H12B15321   5.650   3.771   3.766
  123CHL1   C1115322   5.551   3.907   3.629
  123CHL1  H11A15323   5.552   4.017   3.611
  123CHL1  H11B15324   5.602   3.858   3.543
  123CHL1    C915325   5.405   3.855   3.640
  123CHL1    H915326   5.415   3.745   3.647
  123CHL1   C1015327   5.317   3.881   3.514
  123CHL1   C1915328   5.323   4.032   3.478
  123CHL1  H19A15329   5.426   4.061   3.448
  123CHL1  H19B15330   5.257   4.056   3.393
  123CHL1  H19C15331   5.293   4.095   3.565
  123CHL1    C115332   5.371   3.796   3.396
  123CHL1   H1A15333   5.473   3.831   3.369
  123CHL1   H1B15334   5.380   3.690   3.430
  123CHL1    C215335   5.284   3.797   3.270
  123CHL1   H2A15336   5.327   3.729   3.193
  123CHL1   H2B15337   5.282   3.899   3.227
  123CHL1   C2015338   5.749   3.966   4.075
  123CHL1   H2015339   5.726   4.074   4.090
  123CHL1   C2115340   5.864   3.957   3.973
  123CHL1  H21A15341   5.960   3.994   4.014
  123CHL1  H21B15342   5.842   4.021   3.884
  123CHL1  H21C15343   5.877   3.852   3.940
  123CHL1   C2215344   5.792   3.909   4.214
  123CHL1  H22A15345   5.716   3.938   4.289
  123CHL1  H22B15346   5.793   3.798   4.209
  123CHL1   C2315347   5.931   3.953   4.266
  123CHL1  H23A15348   6.011   3.911   4.202
  123CHL1  H23B15349   5.937   4.064   4.258
  123CHL1   C2415350   5.959   3.912   4.411
  123CHL1  H24A15351   5.893   3.970   4.479
  123CHL1  H24B15352   5.933   3.805   4.424
  123CHL1   C2515353   6.106   3.930   4.457
  123CHL1   H2515354   6.166   3.852   4.404
  123CHL1   C2615355   6.167   4.066   4.421
  123CHL1  H26A15356   6.112   4.148   4.473
  123CHL1  H26B15357   6.273   4.071   4.453
  123CHL1  H26C15358   6.163   4.085   4.312
  123CHL1   C2715359   6.118   3.906   4.608
  123CHL1  H27A15360   6.055   3.980   4.663
  123CHL1  H27B15361   6.084   3.804   4.635
  123CHL1  H27C15362   6.223   3.919   4.641
  124CHL1    C315363   3.526   5.238   3.264
  124CHL1    H315364   3.445   5.299   3.310
  124CHL1    O315365   3.513   5.244   3.123
  124CHL1   H3'15366   3.423   5.216   3.107
  124CHL1    C415367   3.662   5.295   3.309
  124CHL1   H4A15368   3.742   5.239   3.256
  124CHL1   H4B15369   3.668   5.400   3.274
  124CHL1    C515370   3.680   5.283   3.459
  124CHL1    C615371   3.704   5.391   3.536
  124CHL1    H615372   3.715   5.491   3.489
  124CHL1    C715373   3.725   5.385   3.684
  124CHL1   H7A15374   3.812   5.447   3.714
  124CHL1   H7B15375   3.635   5.426   3.735
  124CHL1    C815376   3.748   5.241   3.737
  124CHL1    H815377   3.852   5.213   3.709
  124CHL1   C1415378   3.732   5.237   3.888
  124CHL1   H1415379   3.626   5.263   3.908
  124CHL1   C1515380   3.814   5.338   3.970
  124CHL1  H15A15381   3.915   5.348   3.925
  124CHL1  H15B15382   3.765   5.438   3.972
  124CHL1   C1615383   3.823   5.275   4.110
  124CHL1  H16A15384   3.930   5.257   4.131
  124CHL1  H16B15385   3.780   5.340   4.189
  124CHL1   C1715386   3.747   5.139   4.102
  124CHL1   H1715387   3.640   5.164   4.122
  124CHL1   C1315388   3.755   5.101   3.952
  124CHL1   C1815389   3.898   5.049   3.921
  124CHL1  H18A15390   3.917   5.042   3.812
  124CHL1  H18B15391   3.976   5.114   3.965
  124CHL1  H18C15392   3.911   4.946   3.961
  124CHL1   C1215393   3.648   5.005   3.896
  124CHL1  H12A15394   3.663   4.903   3.937
  124CHL1  H12B15395   3.548   5.041   3.928
  124CHL1   C1115396   3.653   5.001   3.741
  124CHL1  H11A15397   3.746   4.948   3.714
  124CHL1  H11B15398   3.568   4.940   3.705
  124CHL1    C915399   3.650   5.142   3.674
  124CHL1    H915400   3.550   5.183   3.698
  124CHL1   C1015401   3.660   5.142   3.518
  124CHL1   C1915402   3.783   5.058   3.475
  124CHL1  H19A15403   3.773   4.952   3.509
  124CHL1  H19B15404   3.795   5.056   3.365
  124CHL1  H19C15405   3.877   5.099   3.519
  124CHL1    C115406   3.528   5.082   3.462
  124CHL1   H1A15407   3.520   4.975   3.492
  124CHL1   H1B15408   3.443   5.135   3.509
  124CHL1    C215409   3.512   5.093   3.309
  124CHL1   H2A15410   3.412   5.054   3.280
  124CHL1   H2B15411   3.589   5.031   3.259
  124CHL1   C2015412   3.788   5.032   4.205
  124CHL1   H2015413   3.862   4.963   4.159
  124CHL1   C2115414   3.662   4.950   4.242
  124CHL1  H21A15415   3.617   4.903   4.152
  124CHL1  H21B15416   3.586   5.015   4.291
  124CHL1  H21C15417   3.689   4.869   4.313
  124CHL1   C2215418   3.856   5.083   4.335
  124CHL1  H22A15419   3.918   5.173   4.317
  124CHL1  H22B15420   3.778   5.112   4.409
  124CHL1   C2315421   3.953   4.980   4.396
  124CHL1  H23A15422   3.897   4.889   4.427
  124CHL1  H23B15423   4.025   4.951   4.317
  124CHL1   C2415424   4.031   5.037   4.516
  124CHL1  H24A15425   4.060   5.141   4.491
  124CHL1  H24B15426   3.965   5.041   4.605
  124CHL1   C2515427   4.161   4.961   4.550
  124CHL1   H2515428   4.225   4.962   4.459
  124CHL1   C2615429   4.237   5.033   4.662
  124CHL1  H26A15430   4.334   4.982   4.682
  124CHL1  H26B15431   4.258   5.139   4.633
  124CHL1  H26C15432   4.177   5.034   4.755
  124CHL1   C2715433   4.136   4.815   4.588
  124CHL1  H27A15434   4.069   4.809   4.677
  124CHL1  H27B15435   4.089   4.760   4.504
  124CHL1  H27C15436   4.232   4.764   4.614
  125CHL1    C315437   4.286   5.267   3.183
  125CHL1    H315438   4.177   5.291   3.183
  125CHL1    O315439   4.326   5.239   3.049
  125CHL1   H3'15440   4.333   5.144   3.042
  125CHL1    C415441   4.366   5.387   3.236
  125CHL1   H4A15442   4.474   5.364   3.225
  125CHL1   H4B15443   4.345   5.474   3.170
  125CHL1    C515444   4.335   5.418   3.381
  125CHL1    C615445   4.294   5.540   3.420
  125CHL1    H615446   4.286   5.620   3.346
  125CHL1    C715447   4.266   5.578   3.563
  125CHL1   H7A15448   4.315   5.674   3.587
  125CHL1   H7B15449   4.157   5.591   3.576
  125CHL1    C815450   4.316   5.472   3.665
  125CHL1    H815451   4.426   5.484   3.676
  125CHL1   C1415452   4.249   5.495   3.800
  125CHL1   H1415453   4.140   5.479   3.782
  125CHL1   C1515454   4.258   5.635   3.863
  125CHL1  H15A15455   4.364   5.670   3.858
  125CHL1  H15B15456   4.194   5.709   3.810
  125CHL1   C1615457   4.215   5.612   4.008
  125CHL1  H16A15458   4.291   5.655   4.077
  125CHL1  H16B15459   4.117   5.660   4.030
  125CHL1   C1715460   4.205   5.457   4.027
  125CHL1   H1715461   4.100   5.431   4.004
  125CHL1   C1315462   4.287   5.397   3.911
  125CHL1   C1815463   4.438   5.408   3.945
  125CHL1  H18A15464   4.500   5.387   3.856
  125CHL1  H18B15465   4.464   5.509   3.982
  125CHL1  H18C15466   4.466   5.334   4.024
  125CHL1   C1215467   4.247   5.256   3.862
  125CHL1  H12A15468   4.276   5.177   3.935
  125CHL1  H12B15469   4.136   5.252   3.850
  125CHL1   C1115470   4.313   5.223   3.726
  125CHL1  H11A15471   4.422   5.214   3.744
  125CHL1  H11B15472   4.276   5.123   3.693
  125CHL1    C915473   4.285   5.330   3.617
  125CHL1    H915474   4.174   5.328   3.602
  125CHL1   C1015475   4.347   5.298   3.478
  125CHL1   C1915476   4.498   5.267   3.495
  125CHL1  H19A15477   4.549   5.350   3.547
  125CHL1  H19B15478   4.512   5.174   3.555
  125CHL1  H19C15479   4.548   5.250   3.398
  125CHL1    C115480   4.274   5.174   3.417
  125CHL1   H1A15481   4.297   5.084   3.478
  125CHL1   H1B15482   4.164   5.191   3.423
  125CHL1    C215483   4.309   5.143   3.270
  125CHL1   H2A15484   4.248   5.058   3.233
  125CHL1   H2B15485   4.416   5.113   3.263
  125CHL1   C2015486   4.226   5.414   4.174
  125CHL1   H2015487   4.323   5.455   4.210
  125CHL1   C2115488   4.231   5.260   4.186
  125CHL1  H21A15489   4.320   5.220   4.132
  125CHL1  H21B15490   4.140   5.214   4.144
  125CHL1  H21C15491   4.243   5.228   4.292
  125CHL1   C2215492   4.112   5.475   4.261
  125CHL1  H22A15493   4.118   5.586   4.256
  125CHL1  H22B15494   4.016   5.445   4.214
  125CHL1   C2315495   4.105   5.436   4.409
  125CHL1  H23A15496   4.127   5.328   4.423
  125CHL1  H23B15497   4.181   5.493   4.467
  125CHL1   C2415498   3.963   5.460   4.465
  125CHL1  H24A15499   3.937   5.568   4.458
  125CHL1  H24B15500   3.891   5.405   4.401
  125CHL1   C2515501   3.941   5.412   4.610
  125CHL1   H2515502   3.969   5.305   4.616
  125CHL1   C2615503   4.028   5.489   4.710
  125CHL1  H26A15504   4.006   5.598   4.706
  125CHL1  H26B15505   4.007   5.453   4.813
  125CHL1  H26C15506   4.136   5.474   4.690
  125CHL1   C2715507   3.793   5.425   4.648
  125CHL1  H27A15508   3.776   5.386   4.751
  125CHL1  H27B15509   3.761   5.531   4.645
  125CHL1  H27C15510   3.730   5.367   4.578
  126CHL1    C315511   2.532   5.202   3.233
  126CHL1    H315512   2.579   5.101   3.233
  126CHL1    O315513   2.514   5.245   3.100
  126CHL1   H3'15514   2.458   5.178   3.060
  126CHL1    C415515   2.396   5.196   3.303
  126CHL1   H4A15516   2.347   5.295   3.294
  126CHL1   H4B15517   2.332   5.124   3.248
  126CHL1    C515518   2.411   5.159   3.449
  126CHL1    C615519   2.349   5.051   3.500
  126CHL1    H615520   2.282   4.992   3.436
  126CHL1    C715521   2.357   5.010   3.644
  126CHL1   H7A15522   2.257   4.981   3.682
  126CHL1   H7B15523   2.423   4.921   3.653
  126CHL1    C815524   2.413   5.122   3.735
  126CHL1    H815525   2.334   5.199   3.750
  126CHL1   C1415526   2.454   5.063   3.869
  126CHL1   H1415527   2.537   4.993   3.845
  126CHL1   C1515528   2.351   4.978   3.946
  126CHL1  H15A15529   2.252   5.028   3.943
  126CHL1  H15B15530   2.342   4.876   3.903
  126CHL1   C1615531   2.407   4.976   4.089
  126CHL1  H16A15532   2.329   5.020   4.156
  126CHL1  H16B15533   2.432   4.873   4.123
  126CHL1   C1715534   2.535   5.064   4.087
  126CHL1   H1715535   2.615   4.995   4.054
  126CHL1   C1315536   2.513   5.161   3.969
  126CHL1   C1815537   2.407   5.268   4.008
  126CHL1  H18A15538   2.374   5.326   3.920
  126CHL1  H18B15539   2.317   5.223   4.055
  126CHL1  H18C15540   2.451   5.341   4.080
  126CHL1   C1215541   2.638   5.225   3.907
  126CHL1  H12A15542   2.679   5.303   3.975
  126CHL1  H12B15543   2.716   5.146   3.894
  126CHL1   C1115544   2.607   5.288   3.770
  126CHL1  H11A15545   2.542   5.376   3.788
  126CHL1  H11B15546   2.701   5.325   3.725
  126CHL1    C915547   2.536   5.189   3.672
  126CHL1    H915548   2.608   5.107   3.656
  126CHL1   C1015549   2.507   5.247   3.531
  126CHL1   C1915550   2.442   5.387   3.548
  126CHL1  H19A15551   2.408   5.430   3.451
  126CHL1  H19B15552   2.355   5.381   3.616
  126CHL1  H19C15553   2.514   5.459   3.591
  126CHL1    C115554   2.641   5.262   3.453
  126CHL1   H1A15555   2.703   5.339   3.504
  126CHL1   H1B15556   2.696   5.165   3.459
  126CHL1    C215557   2.625   5.300   3.305
  126CHL1   H2A15558   2.724   5.301   3.255
  126CHL1   H2B15559   2.582   5.402   3.298
  126CHL1   C2015560   2.581   5.122   4.222
  126CHL1   H2015561   2.543   5.226   4.231
  126CHL1   C2115562   2.736   5.125   4.220
  126CHL1  H21A15563   2.776   5.022   4.209
  126CHL1  H21B15564   2.776   5.168   4.314
  126CHL1  H21C15565   2.774   5.187   4.135
  126CHL1   C2215566   2.532   5.046   4.347
  126CHL1  H22A15567   2.422   5.030   4.343
  126CHL1  H22B15568   2.581   4.946   4.351
  126CHL1   C2315569   2.558   5.122   4.479
  126CHL1  H23A15570   2.668   5.136   4.493
  126CHL1  H23B15571   2.513   5.223   4.469
  126CHL1   C2415572   2.500   5.052   4.602
  126CHL1  H24A15573   2.391   5.035   4.586
  126CHL1  H24B15574   2.548   4.952   4.612
  126CHL1   C2515575   2.518   5.128   4.736
  126CHL1   H2515576   2.474   5.065   4.815
  126CHL1   C2615577   2.666   5.151   4.770
  126CHL1  H26A15578   2.714   5.218   4.696
  126CHL1  H26B15579   2.675   5.199   4.870
  126CHL1  H26C15580   2.721   5.054   4.772
  126CHL1   C2715581   2.442   5.261   4.738
  126CHL1  H27A15582   2.482   5.332   4.662
  126CHL1  H27B15583   2.334   5.244   4.717
  126CHL1  H27C15584   2.451   5.310   4.838
  127CHL1    C315585   3.408   6.379   3.212
  127CHL1    H315586   3.516   6.352   3.213
  127CHL1    O315587   3.361   6.376   3.078
  127CHL1   H3'15588   3.265   6.383   3.082
  127CHL1    C415589   3.329   6.278   3.298
  127CHL1   H4A15590   3.220   6.298   3.285
  127CHL1   H4B15591   3.347   6.176   3.255
  127CHL1    C515592   3.366   6.285   3.445
  127CHL1    C615593   3.408   6.177   3.513
  127CHL1    H615594   3.412   6.079   3.462
  127CHL1    C715595   3.441   6.178   3.659
  127CHL1   H7A15596   3.394   6.091   3.710
  127CHL1   H7B15597   3.551   6.170   3.673
  127CHL1    C815598   3.392   6.307   3.732
  127CHL1    H815599   3.281   6.301   3.742
  127CHL1   C1415600   3.454   6.317   3.870
  127CHL1   H1415601   3.564   6.325   3.853
  127CHL1   C1515602   3.436   6.197   3.965
  127CHL1  H15A15603   3.331   6.161   3.959
  127CHL1  H15B15604   3.506   6.115   3.940
  127CHL1   C1615605   3.462   6.255   4.105
  127CHL1  H16A15606   3.370   6.240   4.165
  127CHL1  H16B15607   3.547   6.206   4.156
  127CHL1   C1715608   3.487   6.408   4.085
  127CHL1   H1715609   3.595   6.419   4.063
  127CHL1   C1315610   3.416   6.442   3.951
  127CHL1   C1815611   3.263   6.448   3.977
  127CHL1  H18A15612   3.238   6.540   4.034
  127CHL1  H18B15613   3.206   6.452   3.882
  127CHL1  H18C15614   3.227   6.361   4.035
  127CHL1   C1215615   3.465   6.564   3.870
  127CHL1  H12A15616   3.435   6.659   3.919
  127CHL1  H12B15617   3.575   6.561   3.863
  127CHL1   C1115618   3.405   6.564   3.727
  127CHL1  H11A15619   3.296   6.584   3.738
  127CHL1  H11B15620   3.449   6.649   3.671
  127CHL1    C915621   3.426   6.431   3.649
  127CHL1    H915622   3.536   6.425   3.632
  127CHL1   C1015623   3.360   6.426   3.508
  127CHL1   C1915624   3.210   6.463   3.519
  127CHL1  H19A15625   3.157   6.398   3.592
  127CHL1  H19B15626   3.199   6.569   3.553
  127CHL1  H19C15627   3.157   6.456   3.422
  127CHL1    C115628   3.435   6.526   3.415
  127CHL1   H1A15629   3.420   6.629   3.453
  127CHL1   H1B15630   3.543   6.504   3.419
  127CHL1    C215631   3.391   6.520   3.267
  127CHL1   H2A15632   3.452   6.591   3.208
  127CHL1   H2B15633   3.284   6.549   3.258
  127CHL1   C2015634   3.459   6.491   4.211
  127CHL1   H2015635   3.350   6.499   4.229
  127CHL1   C2115636   3.517   6.632   4.192
  127CHL1  H21A15637   3.512   6.689   4.287
  127CHL1  H21B15638   3.459   6.689   4.117
  127CHL1  H21C15639   3.624   6.627   4.160
  127CHL1   C2215640   3.522   6.430   4.340
  127CHL1  H22A15641   3.609   6.365   4.314
  127CHL1  H22B15642   3.562   6.513   4.402
  127CHL1   C2315643   3.423   6.353   4.430
  127CHL1  H23A15644   3.341   6.422   4.460
  127CHL1  H23B15645   3.378   6.269   4.372
  127CHL1   C2415646   3.490   6.296   4.556
  127CHL1  H24A15647   3.569   6.224   4.526
  127CHL1  H24B15648   3.540   6.380   4.610
  127CHL1   C2515649   3.393   6.227   4.654
  127CHL1   H2515650   3.313   6.300   4.680
  127CHL1   C2615651   3.326   6.103   4.592
  127CHL1  H26A15652   3.263   6.132   4.505
  127CHL1  H26B15653   3.402   6.030   4.559
  127CHL1  H26C15654   3.260   6.054   4.667
  127CHL1   C2715655   3.466   6.188   4.784
  127CHL1  H27A15656   3.394   6.145   4.858
  127CHL1  H27B15657   3.543   6.111   4.762
  127CHL1  H27C15658   3.515   6.276   4.829
  128CHL1    C315659   2.103   1.768   3.186
  128CHL1    H315660   1.993   1.783   3.198
  128CHL1    O315661   2.134   1.765   3.048
  128CHL1   H3'15662   2.106   1.677   3.020
  128CHL1    C415663   2.178   1.885   3.252
  128CHL1   H4A15664   2.286   1.876   3.226
  128CHL1   H4B15665   2.142   1.979   3.206
  128CHL1    C515666   2.162   1.886   3.403
  128CHL1    C615667   2.116   1.994   3.469
  128CHL1    H615668   2.092   2.086   3.412
  128CHL1    C715669   2.102   2.001   3.618
  128CHL1   H7A15670   2.138   2.099   3.656
  128CHL1   H7B15671   1.994   1.993   3.645
  128CHL1    C815672   2.178   1.888   3.691
  128CHL1    H815673   2.287   1.913   3.686
  128CHL1   C1415674   2.134   1.880   3.836
  128CHL1   H1415675   2.027   1.850   3.834
  128CHL1   C1515676   2.138   2.009   3.920
  128CHL1  H15A15677   2.234   2.063   3.900
  128CHL1  H15B15678   2.053   2.076   3.896
  128CHL1   C1615679   2.134   1.959   4.065
  128CHL1  H16A15680   2.219   2.003   4.121
  128CHL1  H16B15681   2.039   1.987   4.115
  128CHL1   C1715682   2.148   1.803   4.059
  128CHL1   H1715683   2.045   1.761   4.060
  128CHL1   C1315684   2.206   1.774   3.919
  128CHL1   C1815685   2.359   1.801   3.922
  128CHL1  H18A15686   2.402   1.799   3.819
  128CHL1  H18B15687   2.382   1.900   3.967
  128CHL1  H18C15688   2.411   1.723   3.980
  128CHL1   C1215689   2.172   1.637   3.856
  128CHL1  H12A15690   2.223   1.554   3.908
  128CHL1  H12B15691   2.062   1.621   3.865
  128CHL1   C1115692   2.211   1.633   3.707
  128CHL1  H11A15693   2.322   1.632   3.703
  128CHL1  H11B15694   2.175   1.537   3.663
  128CHL1    C915695   2.154   1.753   3.623
  128CHL1    H915696   2.044   1.739   3.625
  128CHL1   C1015697   2.196   1.753   3.474
  128CHL1   C1915698   2.349   1.734   3.464
  128CHL1  H19A15699   2.402   1.813   3.522
  128CHL1  H19B15700   2.379   1.634   3.502
  128CHL1  H19C15701   2.385   1.740   3.359
  128CHL1    C115702   2.122   1.637   3.401
  128CHL1   H1A15703   2.158   1.541   3.444
  128CHL1   H1B15704   2.013   1.645   3.422
  128CHL1    C215705   2.142   1.634   3.249
  128CHL1   H2A15706   2.080   1.552   3.205
  128CHL1   H2B15707   2.248   1.612   3.225
  128CHL1   C2015708   2.222   1.748   4.182
  128CHL1   H2015709   2.323   1.794   4.184
  128CHL1   C2115710   2.239   1.595   4.175
  128CHL1  H21A15711   2.280   1.557   4.271
  128CHL1  H21B15712   2.310   1.566   4.095
  128CHL1  H21C15713   2.141   1.546   4.156
  128CHL1   C2215714   2.154   1.784   4.317
  128CHL1  H22A15715   2.092   1.876   4.310
  128CHL1  H22B15716   2.087   1.700   4.345
  128CHL1   C2315717   2.260   1.804   4.426
  128CHL1  H23A15718   2.338   1.726   4.413
  128CHL1  H23B15719   2.308   1.903   4.409
  128CHL1   C2415720   2.206   1.794   4.569
  128CHL1  H24A15721   2.131   1.874   4.586
  128CHL1  H24B15722   2.155   1.696   4.582
  128CHL1   C2515723   2.316   1.807   4.677
  128CHL1   H2515724   2.389   1.725   4.661
  128CHL1   C2615725   2.391   1.941   4.666
  128CHL1  H26A15726   2.446   1.948   4.570
  128CHL1  H26B15727   2.319   2.025   4.672
  128CHL1  H26C15728   2.464   1.950   4.749
  128CHL1   C2715729   2.256   1.791   4.817
  128CHL1  H27A15730   2.206   1.692   4.827
  128CHL1  H27B15731   2.336   1.798   4.894
  128CHL1  H27C15732   2.181   1.871   4.836
  129CHL1    C315733   5.692   6.018   3.178
  129CHL1    H315734   5.766   5.937   3.161
  129CHL1    O315735   5.619   6.039   3.059
  129CHL1   H3'15736   5.687   6.060   2.994
  129CHL1    C415737   5.596   5.976   3.290
  129CHL1   H4A15738   5.516   6.052   3.297
  129CHL1   H4B15739   5.546   5.881   3.259
  129CHL1    C515740   5.666   5.961   3.424
  129CHL1    C615741   5.660   5.847   3.494
  129CHL1    H615742   5.601   5.762   3.455
  129CHL1    C715743   5.723   5.828   3.628
  129CHL1   H7A15744   5.651   5.779   3.698
  129CHL1   H7B15745   5.810   5.760   3.618
  129CHL1    C815746   5.771   5.961   3.692
  129CHL1    H815747   5.682   6.014   3.733
  129CHL1   C1415748   5.869   5.931   3.805
  129CHL1   H1415749   5.956   5.883   3.757
  129CHL1   C1515750   5.824   5.833   3.914
  129CHL1  H15A15751   5.723   5.861   3.951
  129CHL1  H15B15752   5.821   5.728   3.878
  129CHL1   C1615753   5.929   5.854   4.024
  129CHL1  H16A15754   5.880   5.864   4.123
  129CHL1  H16B15755   6.000   5.769   4.026
  129CHL1   C1715756   6.010   5.983   3.987
  129CHL1   H1715757   6.100   5.948   3.933
  129CHL1   C1315758   5.925   6.053   3.879
  129CHL1   C1815759   5.811   6.132   3.947
  129CHL1  H18A15760   5.762   6.072   4.027
  129CHL1  H18B15761   5.852   6.224   3.994
  129CHL1  H18C15762   5.733   6.164   3.874
  129CHL1   C1215763   6.000   6.138   3.774
  129CHL1  H12A15764   6.039   6.232   3.819
  129CHL1  H12B15765   6.087   6.080   3.736
  129CHL1   C1115766   5.909   6.174   3.655
  129CHL1  H11A15767   5.832   6.244   3.693
  129CHL1  H11B15768   5.970   6.228   3.580
  129CHL1    C915769   5.841   6.050   3.589
  129CHL1    H915770   5.924   5.989   3.550
  129CHL1   C1015771   5.750   6.083   3.468
  129CHL1   C1915772   5.651   6.195   3.507
  129CHL1  H19A15773   5.578   6.216   3.426
  129CHL1  H19B15774   5.594   6.168   3.599
  129CHL1  H19C15775   5.705   6.291   3.526
  129CHL1    C115776   5.840   6.130   3.349
  129CHL1   H1A15777   5.888   6.227   3.376
  129CHL1   H1B15778   5.921   6.055   3.335
  129CHL1    C215779   5.766   6.147   3.216
  129CHL1   H2A15780   5.838   6.174   3.135
  129CHL1   H2B15781   5.692   6.229   3.224
  129CHL1   C2015782   6.061   6.056   4.113
  129CHL1   H2015783   5.975   6.081   4.179
  129CHL1   C2115784   6.132   6.187   4.073
  129CHL1  H21A15785   6.216   6.165   4.003
  129CHL1  H21B15786   6.173   6.238   4.163
  129CHL1  H21C15787   6.062   6.258   4.025
  129CHL1   C2215788   6.157   5.961   4.191
  129CHL1  H22A15789   6.100   5.872   4.227
  129CHL1  H22B15790   6.233   5.924   4.119
  129CHL1   C2315791   6.236   6.016   4.311
  129CHL1  H23A15792   6.319   5.944   4.330
  129CHL1  H23B15793   6.284   6.114   4.287
  129CHL1   C2415794   6.154   6.028   4.441
  129CHL1  H24A15795   6.067   6.094   4.423
  129CHL1  H24B15796   6.115   5.927   4.467
  129CHL1   C2515797   6.234   6.083   4.562
  129CHL1   H2515798   6.259   6.189   4.539
  129CHL1   C2615799   6.148   6.080   4.688
  129CHL1  H26A15800   6.125   5.976   4.718
  129CHL1  H26B15801   6.200   6.130   4.773
  129CHL1  H26C15802   6.052   6.133   4.670
  129CHL1   C2715803   6.366   6.008   4.588
  129CHL1  H27A15804   6.347   5.900   4.605
  129CHL1  H27B15805   6.435   6.019   4.501
  129CHL1  H27C15806   6.416   6.050   4.678
  130CHL1    C315807   2.557   6.588   3.250
  130CHL1    H315808   2.455   6.625   3.274
  130CHL1    O315809   2.573   6.588   3.109
  130CHL1   H3'15810   2.653   6.537   3.093
  130CHL1    C415811   2.662   6.680   3.314
  130CHL1   H4A15812   2.763   6.645   3.284
  130CHL1   H4B15813   2.650   6.781   3.270
  130CHL1    C515814   2.649   6.681   3.465
  130CHL1    C615815   2.629   6.796   3.532
  130CHL1    H615816   2.626   6.891   3.477
  130CHL1    C715817   2.618   6.805   3.682
  130CHL1   H7A15818   2.680   6.888   3.721
  130CHL1   H7B15819   2.512   6.827   3.710
  130CHL1    C815820   2.661   6.674   3.754
  130CHL1    H815821   2.772   6.671   3.752
  130CHL1   C1415822   2.612   6.673   3.898
  130CHL1   H1415823   2.501   6.674   3.893
  130CHL1   C1515824   2.649   6.793   3.988
  130CHL1  H15A15825   2.755   6.821   3.971
  130CHL1  H15B15826   2.585   6.882   3.966
  130CHL1   C1615827   2.630   6.740   4.131
  130CHL1  H16A15828   2.723   6.758   4.188
  130CHL1  H16B15829   2.546   6.792   4.182
  130CHL1   C1715830   2.600   6.587   4.120
  130CHL1   H1715831   2.490   6.576   4.118
  130CHL1   C1315832   2.650   6.548   3.978
  130CHL1   C1815833   2.804   6.532   3.983
  130CHL1  H18A15834   2.831   6.440   4.039
  130CHL1  H18B15835   2.848   6.522   3.881
  130CHL1  H18C15836   2.852   6.619   4.033
  130CHL1   C1215837   2.581   6.429   3.908
  130CHL1  H12A15838   2.605   6.333   3.958
  130CHL1  H12B15839   2.471   6.444   3.913
  130CHL1   C1115840   2.624   6.418   3.761
  130CHL1  H11A15841   2.731   6.388   3.759
  130CHL1  H11B15842   2.566   6.337   3.713
  130CHL1    C915843   2.606   6.551   3.680
  130CHL1    H915844   2.496   6.567   3.677
  130CHL1   C1015845   2.652   6.542   3.532
  130CHL1   C1915846   2.799   6.491   3.526
  130CHL1  H19A15847   2.806   6.387   3.563
  130CHL1  H19B15848   2.837   6.490   3.421
  130CHL1  H19C15849   2.866   6.556   3.586
  130CHL1    C115850   2.559   6.443   3.456
  130CHL1   H1A15851   2.580   6.339   3.492
  130CHL1   H1B15852   2.454   6.466   3.483
  130CHL1    C215853   2.572   6.445   3.303
  130CHL1   H2A15854   2.496   6.378   3.257
  130CHL1   H2B15855   2.672   6.405   3.275
  130CHL1   C2015856   2.653   6.506   4.240
  130CHL1   H2015857   2.764   6.510   4.239
  130CHL1   C2115858   2.608   6.359   4.230
  130CHL1  H21A15859   2.628   6.305   4.325
  130CHL1  H21B15860   2.663   6.306   4.150
  130CHL1  H21C15861   2.499   6.353   4.210
  130CHL1   C2215862   2.612   6.563   4.379
  130CHL1  H22A15863   2.614   6.674   4.379
  130CHL1  H22B15864   2.508   6.531   4.402
  130CHL1   C2315865   2.708   6.517   4.490
  130CHL1  H23A15866   2.713   6.406   4.492
  130CHL1  H23B15867   2.810   6.554   4.464
  130CHL1   C2415868   2.672   6.568   4.630
  130CHL1  H24A15869   2.649   6.677   4.624
  130CHL1  H24B15870   2.582   6.516   4.667
  130CHL1   C2515871   2.788   6.550   4.732
  130CHL1   H2515872   2.876   6.602   4.690
  130CHL1   C2615873   2.754   6.616   4.867
  130CHL1  H26A15874   2.669   6.563   4.915
  130CHL1  H26B15875   2.841   6.611   4.935
  130CHL1  H26C15876   2.726   6.722   4.853
  130CHL1   C2715877   2.826   6.403   4.753
  130CHL1  H27A15878   2.909   6.395   4.827
  130CHL1  H27B15879   2.739   6.345   4.792
  130CHL1  H27C15880   2.860   6.357   4.658
  131CHL1    C315881   0.871   5.094   3.230
  131CHL1    H315882   0.908   4.992   3.252
  131CHL1    O315883   0.849   5.108   3.090
  131CHL1   H3'15884   0.887   5.193   3.069
  131CHL1    C415885   0.740   5.121   3.306
  131CHL1   H4A15886   0.699   5.219   3.274
  131CHL1   H4B15887   0.666   5.045   3.274
  131CHL1    C515888   0.761   5.121   3.456
  131CHL1    C615889   0.688   5.043   3.538
  131CHL1    H615890   0.610   4.977   3.496
  131CHL1    C715891   0.703   5.042   3.687
  131CHL1   H7A15892   0.603   5.046   3.737
  131CHL1   H7B15893   0.751   4.946   3.716
  131CHL1    C815894   0.792   5.157   3.742
  131CHL1    H815895   0.732   5.250   3.742
  131CHL1   C1415896   0.835   5.127   3.885
  131CHL1   H1415897   0.891   5.031   3.881
  131CHL1   C1515898   0.724   5.106   3.989
  131CHL1  H15A15899   0.649   5.187   3.980
  131CHL1  H15B15900   0.672   5.009   3.974
  131CHL1   C1615901   0.799   5.116   4.123
  131CHL1  H16A15902   0.744   5.186   4.189
  131CHL1  H16B15903   0.806   5.017   4.172
  131CHL1   C1715904   0.942   5.170   4.092
  131CHL1   H1715905   1.009   5.081   4.083
  131CHL1   C1315906   0.931   5.228   3.949
  131CHL1   C1815907   0.864   5.367   3.958
  131CHL1  H18A15908   0.775   5.366   4.025
  131CHL1  H18B15909   0.935   5.441   3.999
  131CHL1  H18C15910   0.831   5.404   3.858
  131CHL1   C1215911   1.058   5.230   3.861
  131CHL1  H12A15912   1.133   5.303   3.899
  131CHL1  H12B15913   1.105   5.129   3.863
  131CHL1   C1115914   1.023   5.267   3.716
  131CHL1  H11A15915   0.987   5.372   3.715
  131CHL1  H11B15916   1.117   5.264   3.656
  131CHL1    C915917   0.915   5.175   3.653
  131CHL1    H915918   0.962   5.074   3.649
  131CHL1   C1015919   0.876   5.210   3.507
  131CHL1   C1915920   0.823   5.355   3.499
  131CHL1  H19A15921   0.898   5.428   3.537
  131CHL1  H19B15922   0.800   5.384   3.395
  131CHL1  H19C15923   0.731   5.367   3.560
  131CHL1    C115924   1.004   5.191   3.419
  131CHL1   H1A15925   1.078   5.269   3.444
  131CHL1   H1B15926   1.048   5.092   3.442
  131CHL1    C215927   0.977   5.197   3.268
  131CHL1   H2A15928   1.071   5.177   3.212
  131CHL1   H2B15929   0.939   5.297   3.241
  131CHL1   C2015930   1.000   5.258   4.205
  131CHL1   H2015931   0.931   5.342   4.225
  131CHL1   C2115932   1.137   5.318   4.165
  131CHL1  H21A15933   1.126   5.393   4.084
  131CHL1  H21B15934   1.207   5.238   4.132
  131CHL1  H21C15935   1.182   5.371   4.252
  131CHL1   C2215936   1.023   5.184   4.340
  131CHL1  H22A15937   1.080   5.091   4.322
  131CHL1  H22B15938   1.087   5.250   4.403
  131CHL1   C2315939   0.897   5.154   4.424
  131CHL1  H23A15940   0.832   5.243   4.426
  131CHL1  H23B15941   0.841   5.071   4.375
  131CHL1   C2415942   0.931   5.112   4.568
  131CHL1  H24A15943   1.004   5.029   4.565
  131CHL1  H24B15944   0.979   5.198   4.619
  131CHL1   C2515945   0.808   5.067   4.649
  131CHL1   H2515946   0.732   5.149   4.646
  131CHL1   C2615947   0.745   4.940   4.590
  131CHL1  H26A15948   0.698   4.961   4.492
  131CHL1  H26B15949   0.823   4.862   4.576
  131CHL1  H26C15950   0.668   4.901   4.659
  131CHL1   C2715951   0.845   5.043   4.796
  131CHL1  H27A15952   0.921   4.962   4.804
  131CHL1  H27B15953   0.887   5.136   4.841
  131CHL1  H27C15954   0.755   5.014   4.855
  132CHL1    C315955   3.781   7.112   3.280
  132CHL1    H315956   3.760   7.214   3.320
  132CHL1    O315957   3.756   7.112   3.140
  132CHL1   H3'15958   3.669   7.150   3.131
  132CHL1    C415959   3.929   7.077   3.305
  132CHL1   H4A15960   3.949   6.978   3.258
  132CHL1   H4B15961   3.991   7.152   3.250
  132CHL1    C515962   3.960   7.074   3.453
  132CHL1    C615963   4.052   7.156   3.506
  132CHL1    H615964   4.109   7.223   3.440
  132CHL1    C715965   4.089   7.159   3.651
  132CHL1   H7A15966   4.199   7.163   3.664
  132CHL1   H7B15967   4.047   7.251   3.696
  132CHL1    C815968   4.035   7.037   3.731
  132CHL1    H815969   4.100   6.950   3.709
  132CHL1   C1415970   4.036   7.069   3.880
  132CHL1   H1415971   3.961   7.150   3.893
  132CHL1   C1515972   4.166   7.126   3.940
  132CHL1  H15A15973   4.252   7.063   3.909
  132CHL1  H15B15974   4.184   7.231   3.909
  132CHL1   C1615975   4.142   7.113   4.091
  132CHL1  H16A15976   4.229   7.063   4.137
  132CHL1  H16B15977   4.129   7.213   4.139
  132CHL1   C1715978   4.012   7.028   4.109
  132CHL1   H1715979   3.927   7.099   4.117
  132CHL1   C1315980   3.991   6.957   3.973
  132CHL1   C1815981   4.085   6.835   3.964
  132CHL1  H18A15982   4.090   6.795   3.861
  132CHL1  H18B15983   4.188   6.863   3.996
  132CHL1  H18C15984   4.049   6.753   4.030
  132CHL1   C1215985   3.847   6.920   3.933
  132CHL1  H12A15986   3.810   6.833   3.992
  132CHL1  H12B15987   3.783   7.008   3.958
  132CHL1   C1115988   3.834   6.889   3.783
  132CHL1  H11A15989   3.888   6.794   3.763
  132CHL1  H11B15990   3.727   6.872   3.758
  132CHL1    C915991   3.891   7.002   3.691
  132CHL1    H915992   3.831   7.093   3.715
  132CHL1   C1015993   3.871   6.979   3.538
  132CHL1   C1915994   3.911   6.833   3.503
  132CHL1  H19A15995   3.841   6.762   3.552
  132CHL1  H19B15996   3.904   6.814   3.394
  132CHL1  H19C15997   4.014   6.811   3.537
  132CHL1    C115998   3.722   7.005   3.501
  132CHL1   H1A15999   3.658   6.926   3.548
  132CHL1   H1B16000   3.690   7.102   3.545
  132CHL1    C216001   3.691   7.010   3.350
  132CHL1   H2A16002   3.584   7.038   3.335
  132CHL1   H2B16003   3.707   6.910   3.305
  132CHL1   C2016004   4.016   6.947   4.240
  132CHL1   H2016005   4.103   6.878   4.236
  132CHL1   C2116006   3.889   6.861   4.258
  132CHL1  H21A16007   3.889   6.814   4.359
  132CHL1  H21B16008   3.886   6.779   4.183
  132CHL1  H21C16009   3.798   6.924   4.248
  132CHL1   C2216010   4.037   7.038   4.366
  132CHL1  H22A16011   4.046   6.971   4.455
  132CHL1  H22B16012   4.133   7.093   4.357
  132CHL1   C2316013   3.924   7.139   4.393
  132CHL1  H23A16014   3.904   7.198   4.301
  132CHL1  H23B16015   3.830   7.085   4.417
  132CHL1   C2416016   3.953   7.242   4.505
  132CHL1  H24A16017   4.043   7.301   4.475
  132CHL1  H24B16018   3.867   7.312   4.510
  132CHL1   C2516019   3.977   7.185   4.646
  132CHL1   H2516020   4.068   7.121   4.643
  132CHL1   C2616021   4.001   7.299   4.746
  132CHL1  H26A16022   4.026   7.259   4.846
  132CHL1  H26B16023   4.084   7.364   4.711
  132CHL1  H26C16024   3.909   7.361   4.755
  132CHL1   C2716025   3.860   7.098   4.695
  132CHL1  H27A16026   3.845   7.010   4.629
  132CHL1  H27B16027   3.880   7.061   4.798
  132CHL1  H27C16028   3.767   7.158   4.697
  133CHL1    C316029   0.935   2.420   3.210
  133CHL1    H316030   0.998   2.331   3.228
  133CHL1    O316031   0.930   2.445   3.070
  133CHL1   H3'16032   0.998   2.387   3.034
  133CHL1    C416033   0.793   2.397   3.264
  133CHL1   H4A16034   0.732   2.487   3.241
  133CHL1   H4B16035   0.749   2.312   3.207
  133CHL1    C516036   0.795   2.372   3.414
  133CHL1    C616037   0.744   2.258   3.465
  133CHL1    H616038   0.697   2.185   3.398
  133CHL1    C716039   0.744   2.225   3.611
  133CHL1   H7A16040   0.644   2.188   3.642
  133CHL1   H7B16041   0.816   2.142   3.628
  133CHL1    C816042   0.784   2.344   3.702
  133CHL1    H816043   0.695   2.410   3.713
  133CHL1   C1416044   0.825   2.292   3.839
  133CHL1   H1416045   0.918   2.232   3.821
  133CHL1   C1516046   0.730   2.195   3.911
  133CHL1  H15A16047   0.626   2.235   3.908
  133CHL1  H15B16048   0.731   2.093   3.866
  133CHL1   C1616049   0.783   2.195   4.055
  133CHL1  H16A16050   0.699   2.217   4.124
  133CHL1  H16B16051   0.827   2.096   4.082
  133CHL1   C1716052   0.892   2.307   4.063
  133CHL1   H1716053   0.989   2.257   4.042
  133CHL1   C1316054   0.865   2.398   3.941
  133CHL1   C1816055   0.745   2.490   3.975
  133CHL1  H18A16056   0.660   2.434   4.018
  133CHL1  H18B16057   0.776   2.568   4.048
  133CHL1  H18C16058   0.708   2.543   3.884
  133CHL1   C1216059   0.984   2.476   3.882
  133CHL1  H12A16060   1.013   2.561   3.948
  133CHL1  H12B16061   1.071   2.408   3.872
  133CHL1   C1116062   0.950   2.534   3.743
  133CHL1  H11A16063   0.871   2.611   3.757
  133CHL1  H11B16064   1.039   2.585   3.701
  133CHL1    C916065   0.899   2.425   3.643
  133CHL1    H916066   0.983   2.353   3.633
  133CHL1   C1016067   0.870   2.477   3.499
  133CHL1   C1916068   0.781   2.603   3.507
  133CHL1  H19A16069   0.684   2.582   3.558
  133CHL1  H19B16070   0.832   2.685   3.563
  133CHL1  H19C16071   0.760   2.644   3.406
  133CHL1    C116072   1.006   2.514   3.431
  133CHL1   H1A16073   1.049   2.603   3.482
  133CHL1   H1B16074   1.076   2.429   3.447
  133CHL1    C216075   0.997   2.541   3.280
  133CHL1   H2A16076   1.098   2.560   3.239
  133CHL1   H2B16077   0.935   2.631   3.261
  133CHL1   C2016078   0.903   2.366   4.205
  133CHL1   H2016079   0.807   2.414   4.232
  133CHL1   C2116080   1.014   2.474   4.211
  133CHL1  H21A16081   1.029   2.510   4.315
  133CHL1  H21B16082   0.985   2.562   4.151
  133CHL1  H21C16083   1.110   2.433   4.173
  133CHL1   C2216084   0.930   2.253   4.308
  133CHL1  H22A16085   0.844   2.182   4.307
  133CHL1  H22B16086   1.020   2.197   4.278
  133CHL1   C2316087   0.947   2.299   4.454
  133CHL1  H23A16088   1.044   2.352   4.465
  133CHL1  H23B16089   0.866   2.371   4.479
  133CHL1   C2416090   0.942   2.180   4.552
  133CHL1  H24A16091   0.842   2.132   4.543
  133CHL1  H24B16092   1.018   2.105   4.520
  133CHL1   C2516093   0.967   2.214   4.700
  133CHL1   H2516094   0.953   2.120   4.758
  133CHL1   C2616095   1.111   2.263   4.725
  133CHL1  H26A16096   1.130   2.357   4.670
  133CHL1  H26B16097   1.128   2.281   4.833
  133CHL1  H26C16098   1.184   2.186   4.690
  133CHL1   C2716099   0.865   2.317   4.753
  133CHL1  H27A16100   0.878   2.414   4.702
  133CHL1  H27B16101   0.761   2.281   4.736
  133CHL1  H27C16102   0.879   2.332   4.862
  134CHL1    C316103   6.945   2.643   3.205
  134CHL1    H316104   7.012   2.556   3.186
  134CHL1    O316105   6.899   2.696   3.082
  134CHL1   H3'16106   6.883   2.620   3.025
  134CHL1    C416107   6.823   2.595   3.288
  134CHL1   H4A16108   6.749   2.678   3.290
  134CHL1   H4B16109   6.775   2.512   3.232
  134CHL1    C516110   6.859   2.556   3.430
  134CHL1    C616111   6.823   2.437   3.482
  134CHL1    H616112   6.764   2.366   3.422
  134CHL1    C716113   6.849   2.398   3.625
  134CHL1   H7A16114   6.759   2.349   3.669
  134CHL1   H7B16115   6.932   2.325   3.628
  134CHL1    C816116   6.890   2.518   3.715
  134CHL1    H816117   6.799   2.580   3.732
  134CHL1   C1416118   6.942   2.469   3.849
  134CHL1   H1416119   7.030   2.406   3.827
  134CHL1   C1516120   6.848   2.381   3.932
  134CHL1  H15A16121   6.746   2.426   3.933
  134CHL1  H15B16122   6.841   2.278   3.892
  134CHL1   C1616123   6.909   2.387   4.073
  134CHL1  H16A16124   6.829   2.415   4.145
  134CHL1  H16B16125   6.952   2.289   4.104
  134CHL1   C1716126   7.021   2.496   4.071
  134CHL1   H1716127   7.117   2.443   4.052
  134CHL1   C1316128   6.992   2.579   3.943
  134CHL1   C1816129   6.879   2.680   3.976
  134CHL1  H18A16130   6.795   2.631   4.029
  134CHL1  H18B16131   6.918   2.762   4.039
  134CHL1  H18C16132   6.838   2.727   3.883
  134CHL1   C1216133   7.111   2.646   3.872
  134CHL1  H12A16134   7.154   2.728   3.934
  134CHL1  H12B16135   7.191   2.571   3.855
  134CHL1   C1116136   7.068   2.704   3.736
  134CHL1  H11A16137   7.001   2.790   3.757
  134CHL1  H11B16138   7.158   2.745   3.684
  134CHL1    C916139   6.997   2.601   3.643
  134CHL1    H916140   7.076   2.529   3.616
  134CHL1   C1016141   6.943   2.659   3.508
  134CHL1   C1916142   6.848   2.777   3.538
  134CHL1  H19A16143   6.804   2.820   3.445
  134CHL1  H19B16144   6.764   2.746   3.604
  134CHL1  H19C16145   6.902   2.860   3.588
  134CHL1    C116146   7.063   2.704   3.420
  134CHL1   H1A16147   7.117   2.786   3.472
  134CHL1   H1B16148   7.134   2.619   3.411
  134CHL1    C216149   7.024   2.751   3.279
  134CHL1   H2A16150   7.115   2.776   3.221
  134CHL1   H2B16151   6.963   2.843   3.287
  134CHL1   C2016152   7.034   2.568   4.207
  134CHL1   H2016153   6.940   2.625   4.226
  134CHL1   C2116154   7.151   2.669   4.205
  134CHL1  H21A16155   7.167   2.712   4.306
  134CHL1  H21B16156   7.129   2.754   4.136
  134CHL1  H21C16157   7.245   2.619   4.173
  134CHL1   C2216158   7.050   2.469   4.325
  134CHL1  H22A16159   6.974   2.389   4.318
  134CHL1  H22B16160   7.150   2.421   4.320
  134CHL1   C2316161   7.030   2.533   4.463
  134CHL1  H23A16162   7.118   2.596   4.490
  134CHL1  H23B16163   6.941   2.600   4.459
  134CHL1   C2416164   7.007   2.427   4.572
  134CHL1  H24A16165   6.916   2.369   4.547
  134CHL1  H24B16166   7.093   2.356   4.571
  134CHL1   C2516167   6.992   2.482   4.715
  134CHL1   H2516168   7.086   2.536   4.741
  134CHL1   C2616169   6.874   2.580   4.729
  134CHL1  H26A16170   6.865   2.615   4.834
  134CHL1  H26B16171   6.889   2.669   4.665
  134CHL1  H26C16172   6.779   2.531   4.700
  134CHL1   C2716173   6.974   2.366   4.814
  134CHL1  H27A16174   6.973   2.403   4.918
  134CHL1  H27B16175   6.879   2.312   4.794
  134CHL1  H27C16176   7.058   2.293   4.802
  135CHL1    C316177   7.209   3.265   3.244
  135CHL1    H316178   7.292   3.194   3.264
  135CHL1    O316179   7.192   3.278   3.103
  135CHL1   H3'16180   7.170   3.190   3.072
  135CHL1    C416181   7.078   3.213   3.307
  135CHL1   H4A16182   6.997   3.285   3.283
  135CHL1   H4B16183   7.052   3.117   3.258
  135CHL1    C516184   7.091   3.199   3.457
  135CHL1    C616185   7.066   3.082   3.519
  135CHL1    H616186   7.032   2.996   3.459
  135CHL1    C716187   7.076   3.061   3.667
  135CHL1   H7A16188   6.983   3.014   3.707
  135CHL1   H7B16189   7.160   2.992   3.687
  135CHL1    C816190   7.099   3.191   3.748
  135CHL1    H816191   7.002   3.242   3.761
  135CHL1   C1416192   7.156   3.155   3.885
  135CHL1   H1416193   7.253   3.106   3.865
  135CHL1   C1516194   7.076   3.054   3.969
  135CHL1  H15A16195   6.968   3.078   3.964
  135CHL1  H15B16196   7.092   2.950   3.934
  135CHL1   C1616197   7.129   3.076   4.111
  135CHL1  H16A16198   7.042   3.103   4.175
  135CHL1  H16B16199   7.178   2.986   4.152
  135CHL1   C1716200   7.229   3.196   4.104
  135CHL1   H1716201   7.328   3.152   4.082
  135CHL1   C1316202   7.187   3.273   3.976
  135CHL1   C1816203   7.060   3.356   4.008
  135CHL1  H18A16204   7.085   3.442   4.073
  135CHL1  H18B16205   7.014   3.396   3.915
  135CHL1  H18C16206   6.983   3.294   4.060
  135CHL1   C1216207   7.293   3.359   3.903
  135CHL1  H12A16208   7.318   3.451   3.961
  135CHL1  H12B16209   7.386   3.299   3.892
  135CHL1   C1116210   7.245   3.402   3.763
  135CHL1  H11A16211   7.162   3.475   3.777
  135CHL1  H11B16212   7.328   3.456   3.712
  135CHL1    C916213   7.196   3.283   3.675
  135CHL1    H916214   7.287   3.222   3.658
  135CHL1   C1016215   7.145   3.322   3.533
  135CHL1   C1916216   7.027   3.422   3.545
  135CHL1  H19A16217   6.942   3.378   3.601
  135CHL1  H19B16218   7.060   3.515   3.597
  135CHL1  H19C16219   6.991   3.452   3.444
  135CHL1    C116220   7.262   3.389   3.455
  135CHL1   H1A16221   7.276   3.490   3.498
  135CHL1   H1B16222   7.354   3.330   3.474
  135CHL1    C216223   7.244   3.401   3.303
  135CHL1   H2A16224   7.337   3.439   3.257
  135CHL1   H2B16225   7.162   3.473   3.281
  135CHL1   C2016226   7.243   3.270   4.238
  135CHL1   H2016227   7.147   3.322   4.262
  135CHL1   C2116228   7.353   3.377   4.230
  135CHL1  H21A16229   7.373   3.420   4.331
  135CHL1  H21B16230   7.321   3.461   4.165
  135CHL1  H21C16231   7.447   3.333   4.191
  135CHL1   C2216232   7.274   3.174   4.357
  135CHL1  H22A16233   7.319   3.080   4.319
  135CHL1  H22B16234   7.350   3.221   4.422
  135CHL1   C2316235   7.152   3.142   4.445
  135CHL1  H23A16236   7.118   3.235   4.496
  135CHL1  H23B16237   7.068   3.106   4.382
  135CHL1   C2416238   7.182   3.035   4.551
  135CHL1  H24A16239   7.211   2.940   4.500
  135CHL1  H24B16240   7.268   3.068   4.612
  135CHL1   C2516241   7.064   3.005   4.646
  135CHL1   H2516242   7.035   3.100   4.696
  135CHL1   C2616243   6.940   2.950   4.572
  135CHL1  H26A16244   6.901   3.025   4.500
  135CHL1  H26B16245   6.967   2.858   4.517
  135CHL1  H26C16246   6.859   2.927   4.644
  135CHL1   C2716247   7.106   2.906   4.756
  135CHL1  H27A16248   7.022   2.888   4.827
  135CHL1  H27B16249   7.136   2.809   4.711
  135CHL1  H27C16250   7.193   2.946   4.813
  136CHL1    C316251   5.550   0.458   3.211
  136CHL1    H316252   5.439   0.470   3.211
  136CHL1    O316253   5.595   0.443   3.078
  136CHL1   H3'16254   5.600   0.533   3.043
  136CHL1    C416255   5.615   0.583   3.272
  136CHL1   H4A16256   5.725   0.576   3.259
  136CHL1   H4B16257   5.582   0.671   3.214
  136CHL1    C516258   5.581   0.597   3.419
  136CHL1    C616259   5.519   0.706   3.466
  136CHL1    H616260   5.495   0.788   3.398
  136CHL1    C716261   5.486   0.727   3.611
  136CHL1   H7A16262   5.510   0.831   3.641
  136CHL1   H7B16263   5.377   0.712   3.626
  136CHL1    C816264   5.563   0.629   3.703
  136CHL1    H816265   5.668   0.665   3.707
  136CHL1   C1416266   5.502   0.629   3.842
  136CHL1   H1416267   5.401   0.584   3.832
  136CHL1   C1516268   5.478   0.765   3.909
  136CHL1  H15A16269   5.569   0.827   3.900
  136CHL1  H15B16270   5.392   0.819   3.863
  136CHL1   C1616271   5.451   0.728   4.055
  136CHL1  H16A16272   5.508   0.797   4.121
  136CHL1  H16B16273   5.343   0.737   4.079
  136CHL1   C1716274   5.497   0.580   4.074
  136CHL1   H1716275   5.405   0.518   4.072
  136CHL1   C1316276   5.576   0.544   3.945
  136CHL1   C1816277   5.723   0.591   3.961
  136CHL1  H18A16278   5.777   0.528   4.035
  136CHL1  H18B16279   5.778   0.583   3.865
  136CHL1  H18C16280   5.728   0.696   3.994
  136CHL1   C1216281   5.566   0.398   3.896
  136CHL1  H12A16282   5.622   0.330   3.963
  136CHL1  H12B16283   5.459   0.367   3.896
  136CHL1   C1116284   5.621   0.384   3.753
  136CHL1  H11A16285   5.731   0.398   3.760
  136CHL1  H11B16286   5.604   0.280   3.717
  136CHL1    C916287   5.561   0.486   3.651
  136CHL1    H916288   5.453   0.460   3.644
  136CHL1   C1016289   5.616   0.474   3.506
  136CHL1   C1916290   5.771   0.462   3.512
  136CHL1  H19A16291   5.814   0.548   3.568
  136CHL1  H19B16292   5.802   0.367   3.561
  136CHL1  H19C16293   5.817   0.461   3.411
  136CHL1    C116294   5.554   0.348   3.439
  136CHL1   H1A16295   5.587   0.257   3.494
  136CHL1   H1B16296   5.443   0.354   3.449
  136CHL1    C216297   5.587   0.332   3.290
  136CHL1   H2A16298   5.533   0.244   3.248
  136CHL1   H2B16299   5.696   0.313   3.281
  136CHL1   C2016300   5.563   0.557   4.211
  136CHL1   H2016301   5.656   0.617   4.216
  136CHL1   C2116302   5.599   0.408   4.231
  136CHL1  H21A16303   5.638   0.391   4.333
  136CHL1  H21B16304   5.679   0.376   4.160
  136CHL1  H21C16305   5.510   0.344   4.215
  136CHL1   C2216306   5.473   0.604   4.329
  136CHL1  H22A16307   5.422   0.700   4.304
  136CHL1  H22B16308   5.394   0.528   4.347
  136CHL1   C2316309   5.553   0.631   4.457
  136CHL1  H23A16310   5.599   0.537   4.495
  136CHL1  H23B16311   5.637   0.700   4.430
  136CHL1   C2416312   5.472   0.699   4.569
  136CHL1  H24A16313   5.539   0.717   4.656
  136CHL1  H24B16314   5.438   0.798   4.532
  136CHL1   C2516315   5.349   0.619   4.617
  136CHL1   H2516316   5.280   0.605   4.531
  136CHL1   C2616317   5.386   0.481   4.673
  136CHL1  H26A16318   5.460   0.491   4.756
  136CHL1  H26B16319   5.296   0.429   4.712
  136CHL1  H26C16320   5.431   0.418   4.593
  136CHL1   C2716321   5.273   0.701   4.723
  136CHL1  H27A16322   5.183   0.646   4.758
  136CHL1  H27B16323   5.338   0.720   4.811
  136CHL1  H27C16324   5.241   0.799   4.681
  137CHL1    C316325   0.425   1.588   3.249
  137CHL1    H316326   0.369   1.492   3.261
  137CHL1    O316327   0.435   1.619   3.111
  137CHL1   H3'16328   0.514   1.673   3.106
  137CHL1    C416329   0.348   1.701   3.320
  137CHL1   H4A16330   0.394   1.798   3.291
  137CHL1   H4B16331   0.245   1.702   3.279
  137CHL1    C516332   0.349   1.688   3.471
  137CHL1    C616333   0.235   1.686   3.543
  137CHL1    H616334   0.138   1.697   3.491
  137CHL1    C716335   0.230   1.683   3.693
  137CHL1   H7A16336   0.157   1.757   3.732
  137CHL1   H7B16337   0.198   1.583   3.728
  137CHL1    C816338   0.369   1.713   3.757
  137CHL1    H816339   0.388   1.822   3.745
  137CHL1   C1416340   0.368   1.679   3.905
  137CHL1   H1416341   0.350   1.569   3.912
  137CHL1   C1516342   0.259   1.742   3.993
  137CHL1  H15A16343   0.247   1.849   3.965
  137CHL1  H15B16344   0.161   1.691   3.981
  137CHL1   C1616345   0.314   1.731   4.136
  137CHL1  H16A16346   0.317   1.833   4.181
  137CHL1  H16B16347   0.251   1.666   4.200
  137CHL1   C1716348   0.460   1.675   4.124
  137CHL1   H1716349   0.451   1.564   4.131
  137CHL1   C1316350   0.501   1.703   3.977
  137CHL1   C1816351   0.543   1.852   3.967
  137CHL1  H18A16352   0.467   1.919   4.013
  137CHL1  H18B16353   0.640   1.869   4.019
  137CHL1  H18C16354   0.556   1.884   3.861
  137CHL1   C1216355   0.603   1.608   3.912
  137CHL1  H12A16356   0.704   1.618   3.957
  137CHL1  H12B16357   0.570   1.503   3.928
  137CHL1   C1116358   0.615   1.634   3.761
  137CHL1  H11A16359   0.665   1.733   3.749
  137CHL1  H11B16360   0.681   1.557   3.716
  137CHL1    C916361   0.478   1.633   3.685
  137CHL1    H916362   0.444   1.528   3.690
  137CHL1   C1016363   0.488   1.670   3.534
  137CHL1   C1916364   0.566   1.803   3.519
  137CHL1  H19A16365   0.567   1.839   3.414
  137CHL1  H19B16366   0.522   1.883   3.582
  137CHL1  H19C16367   0.673   1.789   3.548
  137CHL1    C116368   0.561   1.555   3.459
  137CHL1   H1A16369   0.665   1.546   3.498
  137CHL1   H1B16370   0.510   1.459   3.482
  137CHL1    C216371   0.566   1.572   3.306
  137CHL1   H2A16372   0.615   1.483   3.261
  137CHL1   H2B16373   0.628   1.661   3.282
  137CHL1   C2016374   0.549   1.720   4.240
  137CHL1   H2016375   0.557   1.831   4.239
  137CHL1   C2116376   0.692   1.663   4.224
  137CHL1  H21A16377   0.689   1.553   4.214
  137CHL1  H21B16378   0.756   1.690   4.311
  137CHL1  H21C16379   0.742   1.707   4.135
  137CHL1   C2216380   0.487   1.678   4.376
  137CHL1  H22A16381   0.389   1.729   4.389
  137CHL1  H22B16382   0.468   1.569   4.373
  137CHL1   C2316383   0.572   1.707   4.501
  137CHL1  H23A16384   0.667   1.650   4.493
  137CHL1  H23B16385   0.597   1.815   4.507
  137CHL1   C2416386   0.501   1.663   4.630
  137CHL1  H24A16387   0.412   1.728   4.646
  137CHL1  H24B16388   0.463   1.559   4.616
  137CHL1   C2516389   0.589   1.664   4.757
  137CHL1   H2516390   0.634   1.765   4.766
  137CHL1   C2616391   0.505   1.637   4.882
  137CHL1  H26A16392   0.422   1.710   4.890
  137CHL1  H26B16393   0.461   1.535   4.878
  137CHL1  H26C16394   0.568   1.645   4.974
  137CHL1   C2716395   0.703   1.561   4.747
  137CHL1  H27A16396   0.773   1.585   4.665
  137CHL1  H27B16397   0.760   1.557   4.842
  137CHL1  H27C16398   0.661   1.459   4.729
  138CHL1    C316399   6.894   1.085   3.158
  138CHL1    H316400   6.967   1.005   3.133
  138CHL1    O316401   6.837   1.135   3.039
  138CHL1   H3'16402   6.809   1.057   2.991
  138CHL1    C416403   6.783   1.026   3.247
  138CHL1   H4A16404   6.703   1.103   3.259
  138CHL1   H4B16405   6.737   0.942   3.192
  138CHL1    C516406   6.833   0.985   3.384
  138CHL1    C616407   6.813   0.861   3.432
  138CHL1    H616408   6.756   0.788   3.372
  138CHL1    C716409   6.854   0.818   3.570
  138CHL1   H7A16410   6.774   0.758   3.619
  138CHL1   H7B16411   6.945   0.754   3.564
  138CHL1    C816412   6.887   0.939   3.661
  138CHL1    H816413   6.791   0.991   3.682
  138CHL1   C1416414   6.948   0.895   3.793
  138CHL1   H1416415   7.042   0.841   3.768
  138CHL1   C1516416   6.867   0.797   3.880
  138CHL1  H15A16417   6.759   0.823   3.870
  138CHL1  H15B16418   6.880   0.692   3.848
  138CHL1   C1616419   6.917   0.822   4.023
  138CHL1  H16A16420   6.831   0.853   4.086
  138CHL1  H16B16421   6.962   0.730   4.067
  138CHL1   C1716422   7.022   0.937   4.015
  138CHL1   H1716423   7.121   0.889   3.999
  138CHL1   C1316424   6.987   1.011   3.884
  138CHL1   C1816425   6.864   1.101   3.912
  138CHL1  H18A16426   6.782   1.044   3.961
  138CHL1  H18B16427   6.892   1.185   3.980
  138CHL1  H18C16428   6.823   1.147   3.820
  138CHL1   C1216429   7.101   1.084   3.810
  138CHL1  H12A16430   7.145   1.167   3.870
  138CHL1  H12B16431   7.183   1.011   3.793
  138CHL1   C1116432   7.051   1.140   3.676
  138CHL1  H11A16433   6.981   1.223   3.698
  138CHL1  H11B16434   7.137   1.185   3.621
  138CHL1    C916435   6.981   1.034   3.585
  138CHL1    H916436   7.063   0.969   3.550
  138CHL1   C1016437   6.913   1.093   3.459
  138CHL1   C1916438   6.813   1.205   3.500
  138CHL1  H19A16439   6.740   1.169   3.575
  138CHL1  H19B16440   6.867   1.292   3.543
  138CHL1  H19C16441   6.755   1.243   3.413
  138CHL1    C116442   7.022   1.153   3.365
  138CHL1   H1A16443   7.071   1.239   3.415
  138CHL1   H1B16444   7.100   1.075   3.348
  138CHL1    C216445   6.969   1.199   3.229
  138CHL1   H2A16446   7.053   1.234   3.165
  138CHL1   H2B16447   6.899   1.285   3.243
  138CHL1   C2016448   7.032   1.020   4.145
  138CHL1   H2016449   6.936   1.074   4.160
  138CHL1   C2116450   7.146   1.124   4.136
  138CHL1  H21A16451   7.239   1.076   4.100
  138CHL1  H21B16452   7.166   1.171   4.234
  138CHL1  H21C16453   7.117   1.206   4.067
  138CHL1   C2216454   7.052   0.935   4.273
  138CHL1  H22A16455   6.985   0.846   4.270
  138CHL1  H22B16456   7.157   0.899   4.275
  138CHL1   C2316457   7.019   1.012   4.402
  138CHL1  H23A16458   7.094   1.093   4.416
  138CHL1  H23B16459   6.919   1.059   4.391
  138CHL1   C2416460   7.019   0.921   4.526
  138CHL1  H24A16461   6.945   0.840   4.510
  138CHL1  H24B16462   7.119   0.874   4.534
  138CHL1   C2516463   6.987   0.991   4.660
  138CHL1   H2516464   6.995   0.913   4.739
  138CHL1   C2616465   7.089   1.101   4.694
  138CHL1  H26A16466   7.192   1.061   4.691
  138CHL1  H26B16467   7.082   1.185   4.621
  138CHL1  H26C16468   7.069   1.142   4.795
  138CHL1   C2716469   6.843   1.045   4.664
  138CHL1  H27A16470   6.771   0.964   4.641
  138CHL1  H27B16471   6.820   1.086   4.764
  138CHL1  H27C16472   6.830   1.126   4.589
  139CHL1    C316473   0.145   6.506   3.278
  139CHL1    H316474   0.040   6.486   3.310
  139CHL1    O316475   0.147   6.526   3.138
  139CHL1   H3'16476   0.120   6.442   3.099
  139CHL1    C416477   0.197   6.632   3.348
  139CHL1   H4A16478   0.298   6.655   3.309
  139CHL1   H4B16479   0.132   6.717   3.318
  139CHL1    C516480   0.201   6.614   3.499
  139CHL1    C616481   0.134   6.696   3.580
  139CHL1    H616482   0.079   6.782   3.538
  139CHL1    C716483   0.133   6.683   3.730
  139CHL1   H7A16484   0.145   6.783   3.778
  139CHL1   H7B16485   0.036   6.642   3.763
  139CHL1    C816486   0.245   6.590   3.782
  139CHL1    H816487   0.341   6.644   3.774
  139CHL1   C1416488   0.218   6.555   3.928
  139CHL1   H1416489   0.123   6.499   3.930
  139CHL1   C1516490   0.198   6.672   4.025
  139CHL1  H15A16491   0.278   6.748   4.008
  139CHL1  H15B16492   0.099   6.721   4.014
  139CHL1   C1616493   0.215   6.607   4.163
  139CHL1  H16A16494   0.286   6.668   4.223
  139CHL1  H16B16495   0.118   6.601   4.217
  139CHL1   C1716496   0.272   6.464   4.140
  139CHL1   H1716497   0.186   6.394   4.144
  139CHL1   C1316498   0.322   6.463   3.993
  139CHL1   C1816499   0.463   6.528   3.988
  139CHL1  H18A16500   0.494   6.550   3.883
  139CHL1  H18B16501   0.466   6.623   4.045
  139CHL1  H18C16502   0.538   6.458   4.030
  139CHL1   C1216503   0.317   6.331   3.914
  139CHL1  H12A16504   0.390   6.257   3.953
  139CHL1  H12B16505   0.215   6.288   3.925
  139CHL1   C1116506   0.344   6.353   3.764
  139CHL1  H11A16507   0.451   6.381   3.753
  139CHL1  H11B16508   0.330   6.256   3.710
  139CHL1    C916509   0.252   6.461   3.699
  139CHL1    H916510   0.149   6.418   3.705
  139CHL1   C1016511   0.278   6.489   3.548
  139CHL1   C1916512   0.428   6.519   3.528
  139CHL1  H19A16513   0.462   6.603   3.593
  139CHL1  H19B16514   0.490   6.430   3.552
  139CHL1  H19C16515   0.451   6.546   3.422
  139CHL1    C116516   0.236   6.364   3.466
  139CHL1   H1A16517   0.305   6.281   3.489
  139CHL1   H1B16518   0.134   6.334   3.498
  139CHL1    C216519   0.233   6.386   3.313
  139CHL1   H2A16520   0.195   6.295   3.262
  139CHL1   H2B16521   0.336   6.405   3.277
  139CHL1   C2016522   0.371   6.422   4.251
  139CHL1   H2016523   0.463   6.484   4.241
  139CHL1   C2116524   0.410   6.274   4.236
  139CHL1  H21A16525   0.474   6.243   4.321
  139CHL1  H21B16526   0.467   6.257   4.142
  139CHL1  H21C16527   0.319   6.210   4.235
  139CHL1   C2216528   0.320   6.448   4.396
  139CHL1  H22A16529   0.258   6.540   4.401
  139CHL1  H22B16530   0.256   6.363   4.428
  139CHL1   C2316531   0.436   6.469   4.495
  139CHL1  H23A16532   0.495   6.375   4.503
  139CHL1  H23B16533   0.502   6.548   4.454
  139CHL1   C2416534   0.387   6.512   4.635
  139CHL1  H24A16535   0.318   6.598   4.623
  139CHL1  H24B16536   0.329   6.428   4.679
  139CHL1   C2516537   0.498   6.553   4.734
  139CHL1   H2516538   0.449   6.576   4.830
  139CHL1   C2616539   0.598   6.439   4.760
  139CHL1  H26A16540   0.654   6.415   4.667
  139CHL1  H26B16541   0.671   6.468   4.838
  139CHL1  H26C16542   0.544   6.347   4.793
  139CHL1   C2716543   0.573   6.680   4.689
  139CHL1  H27A16544   0.645   6.712   4.767
  139CHL1  H27B16545   0.629   6.662   4.595
  139CHL1  H27C16546   0.501   6.763   4.671
  140CHL1    C316547   7.212   0.479   3.214
  140CHL1    H316548   7.322   0.473   3.229
  140CHL1    O316549   7.185   0.496   3.076
  140CHL1   H3'16550   7.222   0.419   3.033
  140CHL1    C416551   7.145   0.350   3.264
  140CHL1   H4A16552   7.037   0.355   3.238
  140CHL1   H4B16553   7.187   0.265   3.207
  140CHL1    C516554   7.160   0.330   3.414
  140CHL1    C616555   7.211   0.216   3.465
  140CHL1    H616556   7.239   0.135   3.397
  140CHL1    C716557   7.225   0.189   3.612
  140CHL1   H7A16558   7.186   0.088   3.637
  140CHL1   H7B16559   7.333   0.191   3.640
  140CHL1    C816560   7.151   0.293   3.701
  140CHL1    H816561   7.042   0.268   3.698
  140CHL1   C1416562   7.200   0.285   3.845
  140CHL1   H1416563   7.308   0.310   3.841
  140CHL1   C1516564   7.193   0.148   3.916
  140CHL1  H15A16565   7.094   0.102   3.898
  140CHL1  H15B16566   7.272   0.079   3.880
  140CHL1   C1616567   7.208   0.183   4.065
  140CHL1  H16A16568   7.124   0.137   4.122
  140CHL1  H16B16569   7.304   0.146   4.108
  140CHL1   C1716570   7.207   0.339   4.074
  140CHL1   H1716571   7.313   0.368   4.058
  140CHL1   C1316572   7.138   0.386   3.943
  140CHL1   C1816573   6.985   0.366   3.951
  140CHL1  H18A16574   6.937   0.370   3.851
  140CHL1  H18B16575   6.959   0.268   3.998
  140CHL1  H18C16576   6.940   0.447   4.012
  140CHL1   C1216577   7.174   0.526   3.891
  140CHL1  H12A16578   7.127   0.604   3.956
  140CHL1  H12B16579   7.284   0.540   3.894
  140CHL1   C1116580   7.124   0.546   3.746
  140CHL1  H11A16581   7.013   0.548   3.748
  140CHL1  H11B16582   7.158   0.645   3.711
  140CHL1    C916583   7.172   0.435   3.647
  140CHL1    H916584   7.282   0.447   3.643
  140CHL1   C1016585   7.121   0.451   3.501
  140CHL1   C1916586   6.966   0.456   3.500
  140CHL1  H19A16587   6.922   0.363   3.543
  140CHL1  H19B16588   6.928   0.542   3.559
  140CHL1  H19C16589   6.926   0.468   3.397
  140CHL1    C116590   7.181   0.582   3.442
  140CHL1   H1A16591   7.138   0.670   3.495
  140CHL1   H1B16592   7.291   0.582   3.461
  140CHL1    C216593   7.159   0.601   3.291
  140CHL1   H2A16594   7.210   0.693   3.256
  140CHL1   H2B16595   7.050   0.613   3.270
  140CHL1   C2016596   7.175   0.396   4.213
  140CHL1   H2016597   7.248   0.348   4.281
  140CHL1   C2116598   7.035   0.358   4.269
  140CHL1  H21A16599   7.016   0.249   4.260
  140CHL1  H21B16600   6.955   0.413   4.216
  140CHL1  H21C16601   7.029   0.385   4.377
  140CHL1   C2216602   7.201   0.549   4.225
  140CHL1  H22A16603   7.297   0.571   4.174
  140CHL1  H22B16604   7.120   0.602   4.171
  140CHL1   C2316605   7.207   0.605   4.369
  140CHL1  H23A16606   7.224   0.715   4.361
  140CHL1  H23B16607   7.107   0.591   4.417
  140CHL1   C2416608   7.317   0.546   4.459
  140CHL1  H24A16609   7.295   0.438   4.474
  140CHL1  H24B16610   7.414   0.553   4.406
  140CHL1   C2516611   7.331   0.611   4.599
  140CHL1   H2516612   7.405   0.550   4.655
  140CHL1   C2616613   7.200   0.607   4.680
  140CHL1  H26A16614   7.161   0.504   4.686
  140CHL1  H26B16615   7.218   0.645   4.783
  140CHL1  H26C16616   7.123   0.672   4.632
  140CHL1   C2716617   7.388   0.754   4.592
  140CHL1  H27A16618   7.323   0.820   4.531
  140CHL1  H27B16619   7.396   0.797   4.694
  140CHL1  H27C16620   7.489   0.753   4.547
  141DOPC     N16621   3.876   2.836   7.139
  141DOPC   C1216622   3.964   2.711   7.143
  141DOPC  H12A16623   3.903   2.629   7.179
  141DOPC  H12B16624   4.040   2.727   7.218
  141DOPC   C1316625   3.789   2.834   7.017
  141DOPC  H13A16626   3.725   2.921   7.013
  141DOPC  H13B16627   3.850   2.833   6.928
  141DOPC  H13C16628   3.727   2.745   7.016
  141DOPC   C1416629   3.960   2.960   7.140
  141DOPC  H14A16630   4.024   2.963   7.053
  141DOPC  H14B16631   3.900   3.050   7.142
  141DOPC  H14C16632   4.024   2.960   7.226
  141DOPC   C1516633   3.789   2.836   7.262
  141DOPC  H15A16634   3.722   2.920   7.263
  141DOPC  H15B16635   3.850   2.842   7.351
  141DOPC  H15C16636   3.731   2.746   7.268
  141DOPC   C1116637   4.035   2.663   7.013
  141DOPC  H11A16638   4.081   2.565   7.038
  141DOPC  H11B16639   3.960   2.641   6.934
  141DOPC     P16640   4.124   2.851   6.848
  141DOPC   O1316641   4.157   2.986   6.897
  141DOPC   O1416642   3.992   2.832   6.784
  141DOPC   O1216643   4.138   2.751   6.969
  141DOPC   O1116644   4.239   2.796   6.752
  141DOPC    C116645   4.254   2.866   6.627
  141DOPC    HA16646   4.314   2.959   6.640
  141DOPC    HB16647   4.156   2.895   6.584
  141DOPC    C216648   4.323   2.781   6.516
  141DOPC    HS16649   4.431   2.775   6.538
  141DOPC   O2116650   4.300   2.850   6.392
  141DOPC   C2116651   4.362   2.800   6.287
  141DOPC   O2216652   4.451   2.717   6.290
  141DOPC   C2216653   4.300   2.856   6.158
  141DOPC   H2R16654   4.265   2.768   6.100
  141DOPC   H2S16655   4.381   2.906   6.100
  141DOPC    C316656   4.266   2.635   6.510
  141DOPC    HX16657   4.303   2.582   6.600
  141DOPC    HY16658   4.310   2.579   6.424
  141DOPC   O3116659   4.123   2.635   6.496
  141DOPC   C3116660   4.053   2.589   6.599
  141DOPC   O3216661   4.099   2.535   6.698
  141DOPC   C3216662   3.904   2.617   6.576
  141DOPC   H2X16663   3.857   2.611   6.676
  141DOPC   H2Y16664   3.893   2.722   6.541
  141DOPC   C2316665   4.182   2.953   6.182
  141DOPC   H3R16666   4.223   3.048   6.222
  141DOPC   H3S16667   4.112   2.913   6.257
  141DOPC   C2416668   4.101   2.982   6.055
  141DOPC   H4R16669   4.039   2.893   6.030
  141DOPC   H4S16670   4.170   2.999   5.970
  141DOPC   C2516671   4.011   3.105   6.074
  141DOPC   H5R16672   4.075   3.191   6.104
  141DOPC   H5S16673   3.942   3.086   6.159
  141DOPC   C2616674   3.929   3.147   5.951
  141DOPC   H6R16675   3.874   3.239   5.976
  141DOPC   H6S16676   3.854   3.068   5.928
  141DOPC   C2716677   4.014   3.173   5.825
  141DOPC   H7R16678   4.055   3.077   5.786
  141DOPC   H7S16679   4.101   3.236   5.854
  141DOPC   C2816680   3.938   3.247   5.714
  141DOPC   H8R16681   4.011   3.274   5.635
  141DOPC   H8S16682   3.900   3.342   5.757
  141DOPC   C2916683   3.823   3.166   5.658
  141DOPC   H9R16684   3.742   3.145   5.730
  141DOPC  C21016685   3.812   3.118   5.533
  141DOPC  H10R16686   3.724   3.058   5.507
  141DOPC  C21116687   3.913   3.136   5.422
  141DOPC  H11R16688   3.946   3.242   5.416
  141DOPC  H11S16689   3.866   3.112   5.324
  141DOPC  C21216690   4.038   3.047   5.438
  141DOPC  H12R16691   4.092   3.075   5.531
  141DOPC  H12S16692   4.106   3.068   5.353
  141DOPC  C21316693   4.007   2.897   5.442
  141DOPC  H13R16694   3.956   2.868   5.347
  141DOPC  H13S16695   3.935   2.878   5.524
  141DOPC  C21416696   4.130   2.807   5.464
  141DOPC  H14R16697   4.097   2.701   5.469
  141DOPC  H14S16698   4.174   2.833   5.563
  141DOPC  C21516699   4.239   2.820   5.357
  141DOPC  H15R16700   4.327   2.759   5.387
  141DOPC  H15S16701   4.273   2.926   5.352
  141DOPC  C21616702   4.194   2.776   5.217
  141DOPC  H16R16703   4.102   2.831   5.187
  141DOPC  H16S16704   4.168   2.668   5.222
  141DOPC  C21716705   4.302   2.797   5.109
  141DOPC  H17R16706   4.287   2.722   5.029
  141DOPC  H17S16707   4.401   2.778   5.154
  141DOPC  C21816708   4.299   2.936   5.044
  141DOPC  H18R16709   4.206   2.949   4.984
  141DOPC  H18S16710   4.386   2.949   4.977
  141DOPC  H18T16711   4.301   3.015   5.122
  141DOPC   C3316712   3.835   2.517   6.480
  141DOPC   H3X16713   3.726   2.522   6.498
  141DOPC   H3Y16714   3.867   2.413   6.503
  141DOPC   C3416715   3.858   2.543   6.330
  141DOPC   H4X16716   3.806   2.463   6.273
  141DOPC   H4Y16717   3.966   2.536   6.306
  141DOPC   C3516718   3.804   2.679   6.282
  141DOPC   H5X16719   3.872   2.760   6.315
  141DOPC   H5Y16720   3.705   2.697   6.329
  141DOPC   C3616721   3.786   2.685   6.129
  141DOPC   H6X16722   3.884   2.663   6.080
  141DOPC   H6Y16723   3.714   2.607   6.098
  141DOPC   C3716724   3.736   2.823   6.083
  141DOPC   H7X16725   3.647   2.850   6.143
  141DOPC   H7Y16726   3.814   2.899   6.103
  141DOPC   C3816727   3.694   2.828   5.934
  141DOPC   H8X16728   3.655   2.930   5.913
  141DOPC   H8Y16729   3.609   2.758   5.921
  141DOPC   C3916730   3.808   2.798   5.838
  141DOPC   H9X16731   3.902   2.850   5.861
  141DOPC  C31016732   3.804   2.717   5.730
  141DOPC  H10X16733   3.894   2.706   5.669
  141DOPC  C31116734   3.685   2.639   5.681
  141DOPC  H11X16735   3.607   2.629   5.760
  141DOPC  H11Y16736   3.715   2.535   5.655
  141DOPC  C31216737   3.618   2.703   5.558
  141DOPC  H12X16738   3.604   2.813   5.573
  141DOPC  H12Y16739   3.516   2.659   5.548
  141DOPC  C31316740   3.692   2.678   5.426
  141DOPC  H13X16741   3.795   2.720   5.430
  141DOPC  H13Y16742   3.702   2.568   5.413
  141DOPC  C31416743   3.618   2.734   5.304
  141DOPC  H14X16744   3.510   2.712   5.318
  141DOPC  H14Y16745   3.629   2.844   5.299
  141DOPC  C31516746   3.661   2.669   5.172
  141DOPC  H15X16747   3.584   2.692   5.094
  141DOPC  H15Y16748   3.662   2.559   5.186
  141DOPC  C31616749   3.797   2.714   5.117
  141DOPC  H16X16750   3.875   2.710   5.196
  141DOPC  H16Y16751   3.827   2.641   5.039
  141DOPC  C31716752   3.794   2.853   5.052
  141DOPC  H17X16753   3.697   2.866   5.000
  141DOPC  H17Y16754   3.800   2.930   5.131
  141DOPC  C31816755   3.906   2.873   4.950
  141DOPC  H18X16756   3.895   2.801   4.865
  141DOPC  H18Y16757   3.904   2.976   4.908
  141DOPC  H18Z16758   4.006   2.856   4.997
  142DOPC     N16759   4.391   3.196   7.064
  142DOPC   C1216760   4.456   3.219   6.927
  142DOPC  H12A16761   4.465   3.326   6.912
  142DOPC  H12B16762   4.388   3.184   6.850
  142DOPC   C1316763   4.246   3.229   7.059
  142DOPC  H13A16764   4.196   3.165   6.988
  142DOPC  H13B16765   4.200   3.214   7.155
  142DOPC  H13C16766   4.229   3.332   7.029
  142DOPC   C1416767   4.461   3.280   7.166
  142DOPC  H14A16768   4.567   3.258   7.162
  142DOPC  H14B16769   4.451   3.385   7.144
  142DOPC  H14C16770   4.427   3.260   7.266
  142DOPC   C1516771   4.407   3.051   7.100
  142DOPC  H15A16772   4.350   2.990   7.031
  142DOPC  H15B16773   4.373   3.030   7.200
  142DOPC  H15C16774   4.511   3.024   7.094
  142DOPC   C1116775   4.596   3.158   6.905
  142DOPC  H11A16776   4.591   3.047   6.905
  142DOPC  H11B16777   4.631   3.188   6.803
  142DOPC     P16778   4.840   3.177   6.995
  142DOPC   O1316779   4.861   3.030   6.998
  142DOPC   O1416780   4.903   3.255   7.105
  142DOPC   O1216781   4.685   3.204   7.005
  142DOPC   O1116782   4.875   3.241   6.854
  142DOPC    C116783   4.867   3.384   6.842
  142DOPC    HA16784   4.957   3.431   6.888
  142DOPC    HB16785   4.778   3.425   6.895
  142DOPC    C216786   4.860   3.435   6.695
  142DOPC    HS16787   4.849   3.546   6.698
  142DOPC   O2116788   4.751   3.376   6.622
  142DOPC   C2116789   4.630   3.414   6.653
  142DOPC   O2216790   4.598   3.489   6.744
  142DOPC   C2216791   4.528   3.355   6.553
  142DOPC   H2R16792   4.463   3.440   6.524
  142DOPC   H2S16793   4.465   3.283   6.610
  142DOPC    C316794   4.989   3.405   6.615
  142DOPC    HX16795   4.991   3.297   6.587
  142DOPC    HY16796   5.076   3.422   6.682
  142DOPC   O3116797   5.000   3.495   6.502
  142DOPC   C3116798   4.966   3.450   6.383
  142DOPC   O3216799   4.939   3.335   6.354
  142DOPC   C3216800   4.962   3.569   6.286
  142DOPC   H2X16801   4.897   3.647   6.331
  142DOPC   H2Y16802   5.066   3.609   6.281
  142DOPC   C2316803   4.585   3.287   6.426
  142DOPC   H3R16804   4.693   3.311   6.413
  142DOPC   H3S16805   4.534   3.327   6.336
  142DOPC   C2416806   4.569   3.134   6.427
  142DOPC   H4R16807   4.475   3.105   6.375
  142DOPC   H4S16808   4.561   3.099   6.533
  142DOPC   C2516809   4.689   3.060   6.365
  142DOPC   H5R16810   4.674   2.950   6.374
  142DOPC   H5S16811   4.778   3.086   6.425
  142DOPC   C2616812   4.718   3.095   6.219
  142DOPC   H6R16813   4.722   3.205   6.207
  142DOPC   H6S16814   4.637   3.057   6.153
  142DOPC   C2716815   4.854   3.040   6.173
  142DOPC   H7R16816   4.853   2.929   6.180
  142DOPC   H7S16817   4.932   3.077   6.244
  142DOPC   C2816818   4.891   3.085   6.031
  142DOPC   H8R16819   4.892   3.196   6.030
  142DOPC   H8S16820   4.809   3.053   5.963
  142DOPC   C2916821   5.022   3.028   5.982
  142DOPC   H9R16822   5.023   2.918   5.972
  142DOPC  C21016823   5.134   3.097   5.952
  142DOPC  H10R16824   5.222   3.041   5.916
  142DOPC  C21116825   5.154   3.246   5.962
  142DOPC  H11R16826   5.262   3.268   5.974
  142DOPC  H11S16827   5.104   3.286   6.052
  142DOPC  C21216828   5.104   3.323   5.838
  142DOPC  H12R16829   4.993   3.320   5.836
  142DOPC  H12S16830   5.141   3.272   5.747
  142DOPC  C21316831   5.150   3.470   5.835
  142DOPC  H13R16832   5.261   3.474   5.836
  142DOPC  H13S16833   5.114   3.520   5.928
  142DOPC  C21416834   5.098   3.549   5.713
  142DOPC  H14R16835   5.132   3.655   5.722
  142DOPC  H14S16836   4.987   3.549   5.715
  142DOPC  C21516837   5.146   3.493   5.579
  142DOPC  H15R16838   5.107   3.390   5.566
  142DOPC  H15S16839   5.257   3.487   5.580
  142DOPC  C21616840   5.101   3.577   5.458
  142DOPC  H16R16841   5.144   3.679   5.470
  142DOPC  H16S16842   4.991   3.587   5.458
  142DOPC  C21716843   5.147   3.520   5.323
  142DOPC  H17R16844   5.256   3.497   5.329
  142DOPC  H17S16845   5.134   3.598   5.245
  142DOPC  C21816846   5.072   3.394   5.279
  142DOPC  H18R16847   5.109   3.359   5.180
  142DOPC  H18S16848   4.963   3.416   5.270
  142DOPC  H18T16849   5.085   3.312   5.352
  142DOPC   C3316850   4.916   3.535   6.143
  142DOPC   H3X16851   4.973   3.448   6.104
  142DOPC   H3Y16852   4.940   3.621   6.077
  142DOPC   C3416853   4.765   3.506   6.130
  142DOPC   H4X16854   4.706   3.593   6.166
  142DOPC   H4Y16855   4.742   3.420   6.197
  142DOPC   C3516856   4.723   3.470   5.987
  142DOPC   H5X16857   4.625   3.417   5.992
  142DOPC   H5Y16858   4.797   3.399   5.943
  142DOPC   C3616859   4.709   3.593   5.896
  142DOPC   H6X16860   4.629   3.659   5.936
  142DOPC   H6Y16861   4.805   3.649   5.902
  142DOPC   C3716862   4.682   3.564   5.748
  142DOPC   H7X16863   4.732   3.647   5.692
  142DOPC   H7Y16864   4.732   3.470   5.717
  142DOPC   C3816865   4.532   3.562   5.708
  142DOPC   H8X16866   4.477   3.628   5.778
  142DOPC   H8Y16867   4.494   3.459   5.725
  142DOPC   C3916868   4.505   3.609   5.567
  142DOPC   H9X16869   4.535   3.714   5.550
  142DOPC  C31016870   4.450   3.541   5.465
  142DOPC  H10X16871   4.439   3.592   5.369
  142DOPC  C31116872   4.400   3.398   5.465
  142DOPC  H11X16873   4.295   3.395   5.427
  142DOPC  H11Y16874   4.398   3.355   5.567
  142DOPC  C31216875   4.488   3.309   5.376
  142DOPC  H12X16876   4.590   3.306   5.419
  142DOPC  H12Y16877   4.495   3.352   5.274
  142DOPC  C31316878   4.434   3.165   5.364
  142DOPC  H13X16879   4.422   3.121   5.465
  142DOPC  H13Y16880   4.333   3.169   5.318
  142DOPC  C31416881   4.523   3.073   5.279
  142DOPC  H14X16882   4.473   2.975   5.267
  142DOPC  H14Y16883   4.535   3.117   5.178
  142DOPC  C31516884   4.661   3.047   5.341
  142DOPC  H15X16885   4.647   3.006   5.443
  142DOPC  H15Y16886   4.716   3.143   5.349
  142DOPC  C31616887   4.747   2.947   5.262
  142DOPC  H16X16888   4.838   2.924   5.322
  142DOPC  H16Y16889   4.689   2.854   5.250
  142DOPC  C31716890   4.791   2.996   5.123
  142DOPC  H17X16891   4.851   2.915   5.077
  142DOPC  H17Y16892   4.701   3.010   5.060
  142DOPC  C31816893   4.874   3.125   5.123
  142DOPC  H18X16894   4.908   3.149   5.020
  142DOPC  H18Y16895   4.813   3.210   5.160
  142DOPC  H18Z16896   4.962   3.114   5.189
  143DOPC     N16897   2.503   3.697   7.140
  143DOPC   C1216898   2.654   3.680   7.141
  143DOPC  H12A16899   2.676   3.577   7.166
  143DOPC  H12B16900   2.697   3.739   7.220
  143DOPC   C1316901   2.444   3.584   7.062
  143DOPC  H13A16902   2.337   3.592   7.048
  143DOPC  H13B16903   2.491   3.581   6.965
  143DOPC  H13C16904   2.463   3.488   7.109
  143DOPC   C1416905   2.465   3.827   7.076
  143DOPC  H14A16906   2.507   3.910   7.130
  143DOPC  H14B16907   2.504   3.831   6.975
  143DOPC  H14C16908   2.358   3.840   7.072
  143DOPC   C1516909   2.449   3.694   7.280
  143DOPC  H15A16910   2.341   3.702   7.279
  143DOPC  H15B16911   2.488   3.776   7.338
  143DOPC  H15C16912   2.476   3.601   7.328
  143DOPC   C1116913   2.731   3.715   7.010
  143DOPC  H11A16914   2.732   3.826   7.003
  143DOPC  H11B16915   2.837   3.683   7.022
  143DOPC     P16916   2.666   3.733   6.759
  143DOPC   O1316917   2.800   3.734   6.696
  143DOPC   O1416918   2.605   3.864   6.792
  143DOPC   O1216919   2.675   3.651   6.895
  143DOPC   O1116920   2.565   3.648   6.671
  143DOPC    C116921   2.440   3.605   6.725
  143DOPC    HA16922   2.409   3.663   6.814
  143DOPC    HB16923   2.448   3.498   6.755
  143DOPC    C216924   2.320   3.619   6.625
  143DOPC    HS16925   2.236   3.557   6.662
  143DOPC   O2116926   2.355   3.580   6.492
  143DOPC   C2116927   2.404   3.461   6.473
  143DOPC   O2216928   2.404   3.367   6.550
  143DOPC   C2216929   2.462   3.455   6.331
  143DOPC   H2R16930   2.434   3.547   6.275
  143DOPC   H2S16931   2.416   3.367   6.281
  143DOPC    C316932   2.271   3.766   6.617
  143DOPC    HX16933   2.241   3.797   6.720
  143DOPC    HY16934   2.179   3.770   6.555
  143DOPC   O3116935   2.374   3.857   6.571
  143DOPC   C3116936   2.388   3.864   6.439
  143DOPC   O3216937   2.308   3.823   6.357
  143DOPC   C3216938   2.521   3.933   6.405
  143DOPC   H2X16939   2.575   3.954   6.500
  143DOPC   H2Y16940   2.582   3.859   6.348
  143DOPC   C2316941   2.614   3.438   6.338
  143DOPC   H3R16942   2.652   3.395   6.243
  143DOPC   H3S16943   2.638   3.366   6.419
  143DOPC   C2416944   2.687   3.570   6.367
  143DOPC   H4R16945   2.775   3.549   6.433
  143DOPC   H4S16946   2.622   3.639   6.425
  143DOPC   C2516947   2.738   3.638   6.240
  143DOPC   H5R16948   2.652   3.684   6.187
  143DOPC   H5S16949   2.781   3.560   6.173
  143DOPC   C2616950   2.846   3.743   6.270
  143DOPC   H6R16951   2.938   3.690   6.304
  143DOPC   H6S16952   2.812   3.806   6.354
  143DOPC   C2716953   2.881   3.833   6.150
  143DOPC   H7R16954   2.960   3.905   6.180
  143DOPC   H7S16955   2.789   3.892   6.128
  143DOPC   C2816956   2.924   3.757   6.023
  143DOPC   H8R16957   2.858   3.669   6.009
  143DOPC   H8S16958   3.027   3.716   6.039
  143DOPC   C2916959   2.919   3.847   5.903
  143DOPC   H9R16960   2.981   3.938   5.910
  143DOPC  C21016961   2.844   3.828   5.794
  143DOPC  H10R16962   2.846   3.902   5.713
  143DOPC  C21116963   2.752   3.710   5.772
  143DOPC  H11R16964   2.673   3.706   5.850
  143DOPC  H11S16965   2.810   3.616   5.779
  143DOPC  C21216966   2.684   3.715   5.633
  143DOPC  H12R16967   2.761   3.733   5.556
  143DOPC  H12S16968   2.611   3.798   5.629
  143DOPC  C21316969   2.613   3.582   5.598
  143DOPC  H13R16970   2.522   3.570   5.660
  143DOPC  H13S16971   2.681   3.499   5.625
  143DOPC  C21416972   2.580   3.571   5.449
  143DOPC  H14R16973   2.665   3.611   5.391
  143DOPC  H14S16974   2.491   3.634   5.426
  143DOPC  C21516975   2.555   3.426   5.404
  143DOPC  H15R16976   2.477   3.381   5.469
  143DOPC  H15S16977   2.648   3.367   5.420
  143DOPC  C21616978   2.512   3.413   5.258
  143DOPC  H16R16979   2.417   3.469   5.243
  143DOPC  H16S16980   2.491   3.306   5.236
  143DOPC  C21716981   2.616   3.463   5.157
  143DOPC  H17R16982   2.713   3.413   5.178
  143DOPC  H17S16983   2.632   3.572   5.173
  143DOPC  C21816984   2.577   3.439   5.011
  143DOPC  H18R16985   2.654   3.479   4.943
  143DOPC  H18S16986   2.480   3.490   4.988
  143DOPC  H18T16987   2.565   3.331   4.992
  143DOPC   C3316988   2.507   4.065   6.324
  143DOPC   H3X16989   2.608   4.111   6.314
  143DOPC   H3Y16990   2.444   4.136   6.381
  143DOPC   C3416991   2.448   4.049   6.182
  143DOPC   H4X16992   2.430   4.150   6.140
  143DOPC   H4Y16993   2.350   3.999   6.190
  143DOPC   C3516994   2.540   3.972   6.086
  143DOPC   H5X16995   2.570   3.876   6.134
  143DOPC   H5Y16996   2.632   4.032   6.069
  143DOPC   C3616997   2.477   3.938   5.949
  143DOPC   H6X16998   2.457   4.033   5.895
  143DOPC   H6Y16999   2.553   3.883   5.889
  143DOPC   C3717000   2.349   3.854   5.956
  143DOPC   H7X17001   2.271   3.912   6.009
  143DOPC   H7Y17002   2.312   3.837   5.852
  143DOPC   C3817003   2.367   3.717   6.025
  143DOPC   H8X17004   2.409   3.733   6.126
  143DOPC   H8Y17005   2.442   3.658   5.968
  143DOPC   C3917006   2.235   3.644   6.039
  143DOPC   H9X17007   2.177   3.674   6.126
  143DOPC  C31017008   2.187   3.549   5.957
  143DOPC  H10X17009   2.089   3.504   5.980
  143DOPC  C31117010   2.253   3.495   5.832
  143DOPC  H11X17011   2.284   3.389   5.849
  143DOPC  H11Y17012   2.344   3.552   5.806
  143DOPC  C31217013   2.158   3.499   5.710
  143DOPC  H12X17014   2.127   3.604   5.692
  143DOPC  H12Y17015   2.067   3.440   5.732
  143DOPC  C31317016   2.225   3.444   5.584
  143DOPC  H13X17017   2.315   3.505   5.560
  143DOPC  H13Y17018   2.260   3.340   5.605
  143DOPC  C31417019   2.132   3.441   5.462
  143DOPC  H14X17020   2.174   3.371   5.386
  143DOPC  H14Y17021   2.033   3.401   5.493
  143DOPC  C31517022   2.115   3.579   5.396
  143DOPC  H15X17023   2.210   3.608   5.347
  143DOPC  H15Y17024   2.094   3.654   5.475
  143DOPC  C31617025   2.000   3.582   5.295
  143DOPC  H16X17026   2.016   3.506   5.216
  143DOPC  H16Y17027   1.907   3.555   5.349
  143DOPC  C31717028   1.982   3.720   5.231
  143DOPC  H17X17029   1.991   3.797   5.311
  143DOPC  H17Y17030   2.063   3.738   5.158
  143DOPC  C31817031   1.846   3.736   5.163
  143DOPC  H18X17032   1.838   3.669   5.074
  143DOPC  H18Y17033   1.764   3.710   5.233
  143DOPC  H18Z17034   1.830   3.840   5.129
  144DOPC     N17035   3.131   2.710   6.880
  144DOPC   C1217036   3.277   2.668   6.888
  144DOPC  H12A17037   3.338   2.745   6.842
  144DOPC  H12B17038   3.290   2.578   6.830
  144DOPC   C1317039   3.106   2.826   6.970
  144DOPC  H13A17040   3.126   2.798   7.072
  144DOPC  H13B17041   3.169   2.911   6.949
  144DOPC  H13C17042   3.002   2.857   6.968
  144DOPC   C1417043   3.045   2.597   6.928
  144DOPC  H14A17044   3.047   2.512   6.861
  144DOPC  H14B17045   3.083   2.563   7.023
  144DOPC  H14C17046   2.942   2.626   6.944
  144DOPC   C1517047   3.091   2.746   6.740
  144DOPC  H15A17048   2.987   2.775   6.737
  144DOPC  H15B17049   3.104   2.663   6.673
  144DOPC  H15C17050   3.149   2.830   6.704
  144DOPC   C1117051   3.338   2.639   7.028
  144DOPC  H11A17052   3.446   2.616   7.013
  144DOPC  H11B17053   3.334   2.731   7.090
  144DOPC     P17054   3.341   2.407   7.156
  144DOPC   O1317055   3.249   2.348   7.255
  144DOPC   O1417056   3.473   2.451   7.208
  144DOPC   O1217057   3.269   2.534   7.095
  144DOPC   O1117058   3.355   2.311   7.030
  144DOPC    C117059   3.254   2.320   6.928
  144DOPC    HA17060   3.290   2.385   6.845
  144DOPC    HB17061   3.159   2.361   6.967
  144DOPC    C217062   3.211   2.184   6.865
  144DOPC    HS17063   3.199   2.111   6.947
  144DOPC   O2117064   3.311   2.142   6.770
  144DOPC   C2117065   3.294   2.016   6.729
  144DOPC   O2217066   3.209   1.940   6.768
  144DOPC   C2217067   3.401   1.978   6.628
  144DOPC   H2R17068   3.415   1.868   6.633
  144DOPC   H2S17069   3.495   2.027   6.661
  144DOPC    C317070   3.073   2.207   6.795
  144DOPC    HX17071   3.000   2.230   6.875
  144DOPC    HY17072   3.036   2.113   6.748
  144DOPC   O3117073   3.080   2.320   6.704
  144DOPC   C3117074   3.097   2.289   6.576
  144DOPC   O3217075   3.090   2.177   6.529
  144DOPC   C3217076   3.129   2.415   6.496
  144DOPC   H2X17077   3.047   2.488   6.514
  144DOPC   H2Y17078   3.225   2.456   6.533
  144DOPC   C2317079   3.366   2.021   6.484
  144DOPC   H3R17080   3.459   2.014   6.424
  144DOPC   H3S17081   3.334   2.128   6.482
  144DOPC   C2417082   3.261   1.933   6.416
  144DOPC   H4R17083   3.168   1.931   6.476
  144DOPC   H4S17084   3.299   1.829   6.410
  144DOPC   C2517085   3.226   1.980   6.273
  144DOPC   H5R17086   3.169   2.076   6.279
  144DOPC   H5S17087   3.160   1.905   6.226
  144DOPC   C2617088   3.350   2.001   6.186
  144DOPC   H6R17089   3.412   1.908   6.193
  144DOPC   H6S17090   3.410   2.086   6.225
  144DOPC   C2717091   3.323   2.027   6.038
  144DOPC   H7R17092   3.260   2.119   6.027
  144DOPC   H7S17093   3.264   1.942   5.998
  144DOPC   C2817094   3.454   2.045   5.959
  144DOPC   H8R17095   3.528   1.971   5.998
  144DOPC   H8S17096   3.496   2.145   5.982
  144DOPC   C2917097   3.441   2.024   5.810
  144DOPC   H9R17098   3.466   1.923   5.775
  144DOPC  C21017099   3.403   2.116   5.719
  144DOPC  H10R17100   3.397   2.086   5.614
  144DOPC  C21117101   3.366   2.260   5.746
  144DOPC  H11R17102   3.354   2.280   5.854
  144DOPC  H11S17103   3.268   2.282   5.699
  144DOPC  C21217104   3.471   2.358   5.689
  144DOPC  H12R17105   3.564   2.350   5.751
  144DOPC  H12S17106   3.433   2.461   5.701
  144DOPC  C21317107   3.509   2.335   5.542
  144DOPC  H13R17108   3.558   2.236   5.531
  144DOPC  H13S17109   3.585   2.412   5.513
  144DOPC  C21417110   3.392   2.345   5.443
  144DOPC  H14R17111   3.351   2.448   5.446
  144DOPC  H14S17112   3.311   2.276   5.474
  144DOPC  C21517113   3.435   2.308   5.300
  144DOPC  H15R17114   3.474   2.204   5.302
  144DOPC  H15S17115   3.518   2.375   5.267
  144DOPC  C21617116   3.319   2.316   5.200
  144DOPC  H16R17117   3.229   2.271   5.246
  144DOPC  H16S17118   3.344   2.254   5.110
  144DOPC  C21717119   3.288   2.459   5.153
  144DOPC  H17R17120   3.303   2.530   5.238
  144DOPC  H17S17121   3.181   2.465   5.125
  144DOPC  C21817122   3.372   2.501   5.033
  144DOPC  H18R17123   3.480   2.490   5.055
  144DOPC  H18S17124   3.352   2.607   5.006
  144DOPC  H18T17125   3.349   2.438   4.945
  144DOPC   C3317126   3.140   2.388   6.343
  144DOPC   H3X17127   3.042   2.352   6.305
  144DOPC   H3Y17128   3.215   2.308   6.324
  144DOPC   C3417129   3.180   2.514   6.265
  144DOPC   H4X17130   3.283   2.542   6.294
  144DOPC   H4Y17131   3.112   2.597   6.293
  144DOPC   C3517132   3.174   2.496   6.112
  144DOPC   H5X17133   3.068   2.481   6.081
  144DOPC   H5Y17134   3.231   2.405   6.083
  144DOPC   C3617135   3.232   2.618   6.039
  144DOPC   H6X17136   3.180   2.710   6.073
  144DOPC   H6Y17137   3.339   2.627   6.069
  144DOPC   C3717138   3.226   2.611   5.885
  144DOPC   H7X17139   3.297   2.686   5.846
  144DOPC   H7Y17140   3.261   2.511   5.851
  144DOPC   C3817141   3.086   2.640   5.827
  144DOPC   H8X17142   3.045   2.729   5.879
  144DOPC   H8Y17143   3.019   2.555   5.853
  144DOPC   C3917144   3.092   2.667   5.678
  144DOPC   H9X17145   3.160   2.748   5.650
  144DOPC  C31017146   3.023   2.604   5.581
  144DOPC  H10X17147   3.039   2.635   5.476
  144DOPC  C31117148   2.924   2.492   5.598
  144DOPC  H11X17149   2.833   2.510   5.536
  144DOPC  H11Y17150   2.889   2.485   5.703
  144DOPC  C31217151   2.984   2.355   5.561
  144DOPC  H12X17152   2.918   2.276   5.604
  144DOPC  H12Y17153   3.083   2.344   5.611
  144DOPC  C31317154   2.999   2.328   5.411
  144DOPC  H13X17155   3.050   2.413   5.361
  144DOPC  H13Y17156   3.063   2.238   5.399
  144DOPC  C31417157   2.864   2.299   5.344
  144DOPC  H14X17158   2.813   2.221   5.404
  144DOPC  H14Y17159   2.801   2.391   5.347
  144DOPC  C31517160   2.875   2.248   5.200
  144DOPC  H15X17161   2.954   2.171   5.197
  144DOPC  H15Y17162   2.906   2.331   5.133
  144DOPC  C31617163   2.743   2.186   5.150
  144DOPC  H16X17164   2.708   2.112   5.225
  144DOPC  H16Y17165   2.665   2.265   5.143
  144DOPC  C31717166   2.757   2.114   5.015
  144DOPC  H17X17167   2.788   2.188   4.938
  144DOPC  H17Y17168   2.837   2.038   5.024
  144DOPC  C31817169   2.629   2.045   4.969
  144DOPC  H18X17170   2.592   1.974   5.047
  144DOPC  H18Y17171   2.550   2.121   4.950
  144DOPC  H18Z17172   2.647   1.988   4.876
  145DOPC     N17173   3.904   5.502   7.105
  145DOPC   C1217174   4.010   5.543   7.004
  145DOPC  H12A17175   4.080   5.462   6.995
  145DOPC  H12B17176   4.063   5.629   7.042
  145DOPC   C1317177   3.883   5.354   7.101
  145DOPC  H13A17178   3.972   5.301   7.131
  145DOPC  H13B17179   3.800   5.324   7.163
  145DOPC  H13C17180   3.863   5.324   6.999
  145DOPC   C1417181   3.773   5.568   7.073
  145DOPC  H14A17182   3.750   5.550   6.969
  145DOPC  H14B17183   3.692   5.526   7.132
  145DOPC  H14C17184   3.778   5.675   7.089
  145DOPC   C1517185   3.946   5.541   7.244
  145DOPC  H15A17186   3.962   5.647   7.250
  145DOPC  H15B17187   4.037   5.490   7.272
  145DOPC  H15C17188   3.870   5.514   7.315
  145DOPC   C1117189   3.964   5.576   6.859
  145DOPC  H11A17190   3.903   5.669   6.861
  145DOPC  H11B17191   4.053   5.600   6.797
  145DOPC     P17192   3.959   5.341   6.748
  145DOPC   O1317193   3.853   5.248   6.703
  145DOPC   O1417194   4.053   5.294   6.852
  145DOPC   O1217195   3.886   5.471   6.800
  145DOPC   O1117196   4.039   5.392   6.622
  145DOPC    C117197   3.977   5.477   6.525
  145DOPC    HA17198   3.961   5.578   6.568
  145DOPC    HB17199   3.877   5.437   6.494
  145DOPC    C217200   4.067   5.494   6.400
  145DOPC    HS17201   4.021   5.570   6.333
  145DOPC   O2117202   4.086   5.370   6.329
  145DOPC   C2117203   3.980   5.323   6.266
  145DOPC   O2217204   3.870   5.374   6.260
  145DOPC   C2217205   4.016   5.190   6.200
  145DOPC   H2R17206   3.932   5.120   6.220
  145DOPC   H2S17207   4.108   5.149   6.248
  145DOPC    C317208   4.207   5.548   6.443
  145DOPC    HX17209   4.254   5.470   6.506
  145DOPC    HY17210   4.194   5.637   6.508
  145DOPC   O3117211   4.295   5.576   6.331
  145DOPC   C3117212   4.270   5.691   6.269
  145DOPC   O3217213   4.184   5.771   6.300
  145DOPC   C3217214   4.367   5.706   6.151
  145DOPC   H2X17215   4.463   5.744   6.193
  145DOPC   H2Y17216   4.385   5.606   6.107
  145DOPC   C2317217   4.037   5.202   6.047
  145DOPC   H3R17218   3.948   5.249   5.999
  145DOPC   H3S17219   4.047   5.100   6.005
  145DOPC   C2417220   4.164   5.281   6.009
  145DOPC   H4R17221   4.250   5.237   6.065
  145DOPC   H4S17222   4.154   5.387   6.042
  145DOPC   C2517223   4.196   5.276   5.859
  145DOPC   H5R17224   4.196   5.171   5.824
  145DOPC   H5S17225   4.298   5.316   5.844
  145DOPC   C2617226   4.099   5.359   5.772
  145DOPC   H6R17227   4.103   5.464   5.809
  145DOPC   H6S17228   3.995   5.323   5.784
  145DOPC   C2717229   4.137   5.358   5.623
  145DOPC   H7R17230   4.248   5.353   5.617
  145DOPC   H7S17231   4.107   5.454   5.575
  145DOPC   C2817232   4.080   5.239   5.542
  145DOPC   H8R17233   4.111   5.148   5.597
  145DOPC   H8S17234   4.136   5.237   5.446
  145DOPC   C2917235   3.932   5.229   5.511
  145DOPC   H9R17236   3.902   5.127   5.484
  145DOPC  C21017237   3.836   5.323   5.509
  145DOPC  H10R17238   3.734   5.291   5.481
  145DOPC  C21117239   3.847   5.470   5.538
  145DOPC  H11R17240   3.917   5.519   5.467
  145DOPC  H11S17241   3.889   5.485   5.640
  145DOPC  C21217242   3.713   5.546   5.534
  145DOPC  H12R17243   3.732   5.651   5.566
  145DOPC  H12S17244   3.643   5.502   5.609
  145DOPC  C21317245   3.643   5.550   5.397
  145DOPC  H13R17246   3.549   5.608   5.408
  145DOPC  H13S17247   3.616   5.448   5.364
  145DOPC  C21417248   3.726   5.619   5.288
  145DOPC  H14R17249   3.812   5.554   5.262
  145DOPC  H14S17250   3.767   5.713   5.330
  145DOPC  C21517251   3.648   5.656   5.161
  145DOPC  H15R17252   3.717   5.704   5.089
  145DOPC  H15S17253   3.571   5.731   5.188
  145DOPC  C21617254   3.578   5.538   5.091
  145DOPC  H16R17255   3.522   5.577   5.003
  145DOPC  H16S17256   3.504   5.492   5.160
  145DOPC  C21717257   3.674   5.429   5.042
  145DOPC  H17R17258   3.727   5.385   5.129
  145DOPC  H17S17259   3.751   5.475   4.976
  145DOPC  C21817260   3.604   5.317   4.964
  145DOPC  H18R17261   3.555   5.358   4.873
  145DOPC  H18S17262   3.526   5.269   5.027
  145DOPC  H18T17263   3.676   5.239   4.933
  145DOPC   C3317264   4.314   5.804   6.044
  145DOPC   H3X17265   4.396   5.824   5.971
  145DOPC   H3Y17266   4.287   5.901   6.090
  145DOPC   C3417267   4.195   5.747   5.967
  145DOPC   H4X17268   4.111   5.730   6.038
  145DOPC   H4Y17269   4.222   5.648   5.922
  145DOPC   C3517270   4.145   5.840   5.856
  145DOPC   H5X17271   4.220   5.845   5.774
  145DOPC   H5Y17272   4.134   5.942   5.898
  145DOPC   C3617273   4.009   5.795   5.799
  145DOPC   H6X17274   4.018   5.690   5.763
  145DOPC   H6Y17275   3.935   5.796   5.881
  145DOPC   C3717276   3.957   5.882   5.684
  145DOPC   H7X17277   4.023   5.868   5.596
  145DOPC   H7Y17278   3.856   5.846   5.656
  145DOPC   C3817279   3.951   6.033   5.718
  145DOPC   H8X17280   4.055   6.072   5.720
  145DOPC   H8Y17281   3.912   6.041   5.822
  145DOPC   C3917282   3.864   6.117   5.628
  145DOPC   H9X17283   3.778   6.163   5.678
  145DOPC  C31017284   3.884   6.142   5.497
  145DOPC  H10X17285   3.813   6.206   5.443
  145DOPC  C31117286   3.999   6.090   5.413
  145DOPC  H11X17287   4.085   6.064   5.478
  145DOPC  H11Y17288   4.034   6.167   5.342
  145DOPC  C31217289   3.957   5.963   5.336
  145DOPC  H12X17290   3.888   5.988   5.253
  145DOPC  H12Y17291   3.901   5.896   5.405
  145DOPC  C31317292   4.077   5.883   5.284
  145DOPC  H13X17293   4.118   5.931   5.193
  145DOPC  H13Y17294   4.157   5.884   5.362
  145DOPC  C31417295   4.041   5.737   5.257
  145DOPC  H14X17296   3.994   5.695   5.348
  145DOPC  H14Y17297   3.966   5.731   5.174
  145DOPC  C31517298   4.163   5.650   5.223
  145DOPC  H15X17299   4.240   5.668   5.300
  145DOPC  H15Y17300   4.204   5.683   5.125
  145DOPC  C31617301   4.133   5.500   5.219
  145DOPC  H16X17302   4.230   5.445   5.217
  145DOPC  H16Y17303   4.080   5.470   5.311
  145DOPC  C31717304   4.053   5.457   5.096
  145DOPC  H17X17305   3.957   5.513   5.093
  145DOPC  H17Y17306   4.110   5.485   5.005
  145DOPC  C31817307   4.024   5.306   5.093
  145DOPC  H18X17308   3.966   5.276   5.183
  145DOPC  H18Y17309   3.965   5.280   5.002
  145DOPC  H18Z17310   4.118   5.249   5.091
  146DOPC     N17311   5.345   2.740   7.070
  146DOPC   C1217312   5.446   2.680   6.974
  146DOPC  H12A17313   5.398   2.598   6.923
  146DOPC  H12B17314   5.527   2.639   7.032
  146DOPC   C1317315   5.332   2.654   7.192
  146DOPC  H13A17316   5.424   2.652   7.249
  146DOPC  H13B17317   5.254   2.693   7.256
  146DOPC  H13C17318   5.304   2.554   7.166
  146DOPC   C1417319   5.209   2.750   7.006
  146DOPC  H14A17320   5.214   2.810   6.917
  146DOPC  H14B17321   5.171   2.653   6.978
  146DOPC  H14C17322   5.138   2.798   7.070
  146DOPC   C1517323   5.385   2.878   7.112
  146DOPC  H15A17324   5.479   2.880   7.166
  146DOPC  H15B17325   5.310   2.925   7.174
  146DOPC  H15C17326   5.397   2.942   7.025
  146DOPC   C1117327   5.511   2.770   6.864
  146DOPC  H11A17328   5.567   2.853   6.911
  146DOPC  H11B17329   5.586   2.708   6.811
  146DOPC     P17330   5.359   2.961   6.764
  146DOPC   O1317331   5.435   3.044   6.861
  146DOPC   O1417332   5.213   2.950   6.783
  146DOPC   O1217333   5.415   2.813   6.768
  146DOPC   O1117334   5.391   3.006   6.616
  146DOPC    C117335   5.326   2.942   6.506
  146DOPC    HA17336   5.250   3.011   6.463
  146DOPC    HB17337   5.271   2.850   6.535
  146DOPC    C217338   5.430   2.906   6.397
  146DOPC    HS17339   5.530   2.916   6.445
  146DOPC   O2117340   5.412   2.998   6.288
  146DOPC   C2117341   5.521   3.038   6.226
  146DOPC   O2217342   5.635   3.001   6.249
  146DOPC   C2217343   5.481   3.134   6.115
  146DOPC   H2R17344   5.389   3.188   6.145
  146DOPC   H2S17345   5.458   3.072   6.026
  146DOPC    C317346   5.414   2.759   6.350
  146DOPC    HX17347   5.320   2.748   6.292
  146DOPC    HY17348   5.403   2.697   6.442
  146DOPC   O3117349   5.532   2.712   6.280
  146DOPC   C3117350   5.527   2.718   6.147
  146DOPC   O3217351   5.428   2.742   6.080
  146DOPC   C3217352   5.668   2.691   6.093
  146DOPC   H2X17353   5.737   2.763   6.142
  146DOPC   H2Y17354   5.696   2.589   6.124
  146DOPC   C2317355   5.592   3.237   6.081
  146DOPC   H3R17356   5.691   3.186   6.078
  146DOPC   H3S17357   5.597   3.312   6.163
  146DOPC   C2417358   5.571   3.307   5.946
  146DOPC   H4R17359   5.635   3.398   5.943
  146DOPC   H4S17360   5.466   3.341   5.938
  146DOPC   C2517361   5.609   3.218   5.827
  146DOPC   H5R17362   5.551   3.123   5.833
  146DOPC   H5S17363   5.716   3.191   5.837
  146DOPC   C2617364   5.586   3.284   5.691
  146DOPC   H6R17365   5.653   3.236   5.616
  146DOPC   H6S17366   5.616   3.391   5.697
  146DOPC   C2717367   5.442   3.274   5.638
  146DOPC   H7R17368   5.435   3.338   5.548
  146DOPC   H7S17369   5.372   3.315   5.715
  146DOPC   C2817370   5.400   3.130   5.602
  146DOPC   H8R17371   5.398   3.068   5.694
  146DOPC   H8S17372   5.480   3.088   5.536
  146DOPC   C2917373   5.268   3.123   5.530
  146DOPC   H9R17374   5.230   3.219   5.492
  146DOPC  C21017375   5.196   3.011   5.509
  146DOPC  H10R17376   5.101   3.018   5.454
  146DOPC  C21117377   5.235   2.872   5.553
  146DOPC  H11R17378   5.146   2.806   5.552
  146DOPC  H11S17379   5.273   2.873   5.657
  146DOPC  C21217380   5.343   2.810   5.462
  146DOPC  H12R17381   5.435   2.873   5.469
  146DOPC  H12S17382   5.310   2.811   5.356
  146DOPC  C21317383   5.381   2.667   5.502
  146DOPC  H13R17384   5.303   2.596   5.468
  146DOPC  H13S17385   5.385   2.662   5.613
  146DOPC  C21417386   5.519   2.624   5.449
  146DOPC  H14R17387   5.548   2.526   5.493
  146DOPC  H14S17388   5.593   2.699   5.483
  146DOPC  C21517389   5.529   2.615   5.295
  146DOPC  H15R17390   5.475   2.701   5.250
  146DOPC  H15S17391   5.479   2.522   5.260
  146DOPC  C21617392   5.675   2.618   5.248
  146DOPC  H16R17393   5.731   2.539   5.303
  146DOPC  H16S17394   5.719   2.716   5.277
  146DOPC  C21717395   5.696   2.597   5.097
  146DOPC  H17R17396   5.667   2.492   5.073
  146DOPC  H17S17397   5.804   2.607   5.076
  146DOPC  C21817398   5.618   2.692   5.007
  146DOPC  H18R17399   5.641   2.672   4.900
  146DOPC  H18S17400   5.645   2.798   5.029
  146DOPC  H18T17401   5.508   2.680   5.021
  146DOPC   C3317402   5.678   2.704   5.939
  146DOPC   H3X17403   5.603   2.639   5.890
  146DOPC   H3Y17404   5.779   2.668   5.909
  146DOPC   C3417405   5.662   2.848   5.890
  146DOPC   H4X17406   5.733   2.915   5.943
  146DOPC   H4Y17407   5.559   2.883   5.915
  146DOPC   C3517408   5.681   2.863   5.738
  146DOPC   H5X17409   5.638   2.961   5.708
  146DOPC   H5Y17410   5.622   2.785   5.686
  146DOPC   C3617411   5.828   2.858   5.694
  146DOPC   H6X17412   5.884   2.937   5.749
  146DOPC   H6Y17413   5.870   2.760   5.724
  146DOPC   C3717414   5.850   2.878   5.543
  146DOPC   H7X17415   5.959   2.871   5.523
  146DOPC   H7Y17416   5.801   2.794   5.489
  146DOPC   C3817417   5.797   3.012   5.490
  146DOPC   H8X17418   5.839   3.094   5.552
  146DOPC   H8Y17419   5.687   3.014   5.506
  146DOPC   C3917420   5.831   3.035   5.345
  146DOPC   H9X17421   5.938   3.055   5.326
  146DOPC  C31017422   5.747   3.033   5.240
  146DOPC  H10X17423   5.787   3.052   5.139
  146DOPC  C31117424   5.598   3.007   5.242
  146DOPC  H11X17425   5.554   3.025   5.343
  146DOPC  H11Y17426   5.579   2.900   5.218
  146DOPC  C31217427   5.523   3.096   5.141
  146DOPC  H12X17428   5.563   3.078   5.039
  146DOPC  H12Y17429   5.541   3.202   5.168
  146DOPC  C31317430   5.371   3.072   5.139
  146DOPC  H13X17431   5.331   3.079   5.242
  146DOPC  H13Y17432   5.323   3.153   5.079
  146DOPC  C31417433   5.331   2.937   5.077
  146DOPC  H14X17434   5.371   2.931   4.974
  146DOPC  H14Y17435   5.378   2.856   5.137
  146DOPC  C31517436   5.179   2.915   5.074
  146DOPC  H15X17437   5.133   2.996   5.013
  146DOPC  H15Y17438   5.138   2.925   5.177
  146DOPC  C31617439   5.137   2.779   5.016
  146DOPC  H16X17440   5.027   2.778   5.003
  146DOPC  H16Y17441   5.183   2.766   4.916
  146DOPC  C31717442   5.176   2.660   5.105
  146DOPC  H17X17443   5.286   2.657   5.116
  146DOPC  H17Y17444   5.133   2.676   5.206
  146DOPC  C31817445   5.128   2.525   5.051
  146DOPC  H18X17446   5.158   2.443   5.119
  146DOPC  H18Y17447   5.017   2.524   5.041
  146DOPC  H18Z17448   5.172   2.505   4.951
  147DOPC     N17449   1.673   3.326   6.973
  147DOPC   C1217450   1.772   3.428   7.025
  147DOPC  H12A17451   1.724   3.499   7.091
  147DOPC  H12B17452   1.810   3.484   6.941
  147DOPC   C1317453   1.703   3.296   6.829
  147DOPC  H13A17454   1.641   3.215   6.793
  147DOPC  H13B17455   1.683   3.382   6.767
  147DOPC  H13C17456   1.806   3.269   6.818
  147DOPC   C1417457   1.530   3.372   6.979
  147DOPC  H14A17458   1.513   3.455   6.913
  147DOPC  H14B17459   1.465   3.293   6.945
  147DOPC  H14C17460   1.500   3.396   7.080
  147DOPC   C1517461   1.686   3.197   7.048
  147DOPC  H15A17462   1.661   3.211   7.152
  147DOPC  H15B17463   1.789   3.165   7.041
  147DOPC  H15C17464   1.623   3.121   7.003
  147DOPC   C1117465   1.897   3.374   7.100
  147DOPC  H11A17466   1.955   3.461   7.138
  147DOPC  H11B17467   1.867   3.318   7.190
  147DOPC     P17468   2.076   3.362   6.915
  147DOPC   O1317469   2.187   3.419   6.996
  147DOPC   O1417470   1.997   3.455   6.831
  147DOPC   O1217471   1.976   3.290   7.015
  147DOPC   O1117472   2.127   3.239   6.829
  147DOPC    C117473   2.030   3.153   6.768
  147DOPC    HA17474   1.955   3.212   6.711
  147DOPC    HB17475   1.978   3.093   6.846
  147DOPC    C217476   2.096   3.056   6.667
  147DOPC    HS17477   2.182   3.009   6.719
  147DOPC   O2117478   2.140   3.132   6.554
  147DOPC   C2117479   2.215   3.066   6.469
  147DOPC   O2217480   2.258   2.953   6.484
  147DOPC   C2217481   2.236   3.151   6.344
  147DOPC   H2R17482   2.337   3.125   6.304
  147DOPC   H2S17483   2.235   3.258   6.375
  147DOPC    C317484   1.998   2.942   6.622
  147DOPC    HX17485   1.960   2.890   6.713
  147DOPC    HY17486   2.054   2.865   6.566
  147DOPC   O3117487   1.893   2.993   6.536
  147DOPC   C3117488   1.781   3.026   6.598
  147DOPC   O3217489   1.756   3.002   6.715
  147DOPC   C3217490   1.691   3.106   6.503
  147DOPC   H2X17491   1.589   3.108   6.548
  147DOPC   H2Y17492   1.729   3.211   6.501
  147DOPC   C2317493   2.130   3.126   6.236
  147DOPC   H3R17494   2.030   3.155   6.274
  147DOPC   H3S17495   2.128   3.018   6.210
  147DOPC   C2417496   2.161   3.208   6.110
  147DOPC   H4R17497   2.259   3.177   6.069
  147DOPC   H4S17498   2.170   3.315   6.139
  147DOPC   C2517499   2.054   3.197   6.000
  147DOPC   H5R17500   2.085   3.259   5.913
  147DOPC   H5S17501   1.959   3.239   6.039
  147DOPC   C2617502   2.028   3.053   5.951
  147DOPC   H6R17503   1.951   3.057   5.871
  147DOPC   H6S17504   1.985   2.995   6.035
  147DOPC   C2717505   2.151   2.977   5.897
  147DOPC   H7R17506   2.117   2.878   5.860
  147DOPC   H7S17507   2.220   2.959   5.982
  147DOPC   C2817508   2.229   3.048   5.784
  147DOPC   H8R17509   2.311   2.980   5.753
  147DOPC   H8S17510   2.277   3.139   5.826
  147DOPC   C2917511   2.141   3.086   5.668
  147DOPC   H9R17512   2.076   3.172   5.688
  147DOPC  C21017513   2.135   3.029   5.546
  147DOPC  H10R17514   2.064   3.071   5.473
  147DOPC  C21117515   2.212   2.910   5.494
  147DOPC  H11R17516   2.143   2.826   5.477
  147DOPC  H11S17517   2.289   2.874   5.566
  147DOPC  C21217518   2.281   2.945   5.360
  147DOPC  H12R17519   2.373   3.002   5.382
  147DOPC  H12S17520   2.216   3.010   5.298
  147DOPC  C21317521   2.317   2.822   5.275
  147DOPC  H13R17522   2.369   2.746   5.337
  147DOPC  H13S17523   2.389   2.857   5.198
  147DOPC  C21417524   2.198   2.759   5.201
  147DOPC  H14R17525   2.131   2.841   5.169
  147DOPC  H14S17526   2.140   2.693   5.269
  147DOPC  C21517527   2.239   2.682   5.074
  147DOPC  H15R17528   2.277   2.581   5.100
  147DOPC  H15S17529   2.322   2.738   5.026
  147DOPC  C21617530   2.126   2.672   4.969
  147DOPC  H16R17531   2.171   2.649   4.870
  147DOPC  H16S17532   2.077   2.771   4.961
  147DOPC  C21717533   2.020   2.565   5.001
  147DOPC  H17R17534   1.981   2.583   5.103
  147DOPC  H17S17535   2.069   2.466   5.001
  147DOPC  C21817536   1.904   2.563   4.901
  147DOPC  H18R17537   1.849   2.660   4.903
  147DOPC  H18S17538   1.832   2.482   4.927
  147DOPC  H18T17539   1.941   2.545   4.798
  147DOPC   C3317540   1.682   3.050   6.360
  147DOPC   H3X17541   1.646   2.945   6.364
  147DOPC   H3Y17542   1.782   3.050   6.311
  147DOPC   C3417543   1.584   3.130   6.273
  147DOPC   H4X17544   1.621   3.233   6.255
  147DOPC   H4Y17545   1.489   3.138   6.330
  147DOPC   C3517546   1.550   3.061   6.139
  147DOPC   H5X17547   1.448   3.092   6.111
  147DOPC   H5Y17548   1.548   2.951   6.153
  147DOPC   C3617549   1.642   3.099   6.022
  147DOPC   H6X17550   1.653   3.209   6.018
  147DOPC   H6Y17551   1.743   3.055   6.038
  147DOPC   C3717552   1.583   3.050   5.887
  147DOPC   H7X17553   1.558   2.942   5.897
  147DOPC   H7Y17554   1.489   3.104   5.868
  147DOPC   C3817555   1.676   3.066   5.765
  147DOPC   H8X17556   1.620   3.029   5.676
  147DOPC   H8Y17557   1.763   2.999   5.777
  147DOPC   C3917558   1.724   3.208   5.744
  147DOPC   H9X17559   1.808   3.237   5.808
  147DOPC  C31017560   1.673   3.298   5.658
  147DOPC  H10X17561   1.719   3.398   5.653
  147DOPC  C31117562   1.556   3.279   5.565
  147DOPC  H11X17563   1.488   3.367   5.573
  147DOPC  H11Y17564   1.494   3.191   5.594
  147DOPC  C31217565   1.596   3.262   5.417
  147DOPC  H12X17566   1.503   3.260   5.357
  147DOPC  H12Y17567   1.647   3.164   5.403
  147DOPC  C31317568   1.686   3.374   5.363
  147DOPC  H13X17569   1.656   3.470   5.412
  147DOPC  H13Y17570   1.792   3.355   5.393
  147DOPC  C31417571   1.677   3.395   5.211
  147DOPC  H14X17572   1.571   3.405   5.182
  147DOPC  H14Y17573   1.728   3.490   5.185
  147DOPC  C31517574   1.742   3.283   5.129
  147DOPC  H15X17575   1.685   3.189   5.148
  147DOPC  H15Y17576   1.846   3.266   5.164
  147DOPC  C31617577   1.743   3.310   4.978
  147DOPC  H16X17578   1.770   3.215   4.928
  147DOPC  H16Y17579   1.641   3.338   4.943
  147DOPC  C31717580   1.845   3.416   4.933
  147DOPC  H17X17581   1.792   3.511   4.910
  147DOPC  H17Y17582   1.915   3.436   5.016
  147DOPC  C31817583   1.927   3.371   4.811
  147DOPC  H18X17584   1.980   3.276   4.833
  147DOPC  H18Y17585   1.860   3.353   4.723
  147DOPC  H18Z17586   2.002   3.448   4.783
  148DOPC     N17587   2.768   5.346   6.901
  148DOPC   C1217588   2.732   5.494   6.905
  148DOPC  H12A17589   2.625   5.504   6.912
  148DOPC  H12B17590   2.759   5.541   6.812
  148DOPC   C1317591   2.917   5.329   6.904
  148DOPC  H13A17592   2.958   5.376   6.993
  148DOPC  H13B17593   2.947   5.225   6.907
  148DOPC  H13C17594   2.965   5.376   6.819
  148DOPC   C1417595   2.712   5.283   6.777
  148DOPC  H14A17596   2.737   5.178   6.773
  148DOPC  H14B17597   2.605   5.292   6.775
  148DOPC  H14C17598   2.752   5.330   6.689
  148DOPC   C1517599   2.709   5.279   7.022
  148DOPC  H15A17600   2.601   5.283   7.020
  148DOPC  H15B17601   2.740   5.334   7.110
  148DOPC  H15C17602   2.741   5.176   7.031
  148DOPC   C1117603   2.792   5.577   7.021
  148DOPC  H11A17604   2.901   5.560   7.025
  148DOPC  H11B17605   2.780   5.686   7.002
  148DOPC     P17606   2.597   5.598   7.193
  148DOPC   O1317607   2.609   5.743   7.221
  148DOPC   O1417608   2.550   5.511   7.303
  148DOPC   O1217609   2.737   5.541   7.148
  148DOPC   O1117610   2.508   5.576   7.065
  148DOPC    C117611   2.395   5.658   7.034
  148DOPC    HA17612   2.390   5.750   7.096
  148DOPC    HB17613   2.302   5.600   7.052
  148DOPC    C217614   2.396   5.701   6.885
  148DOPC    HS17615   2.305   5.763   6.869
  148DOPC   O2117616   2.394   5.581   6.804
  148DOPC   C2117617   2.326   5.591   6.691
  148DOPC   O2217618   2.282   5.694   6.644
  148DOPC   C2217619   2.299   5.451   6.634
  148DOPC   H2R17620   2.214   5.463   6.564
  148DOPC   H2S17621   2.265   5.386   6.718
  148DOPC    C317622   2.520   5.792   6.855
  148DOPC    HX17623   2.612   5.739   6.887
  148DOPC    HY17624   2.511   5.881   6.921
  148DOPC   O3117625   2.526   5.837   6.718
  148DOPC   C3117626   2.594   5.760   6.635
  148DOPC   O3217627   2.663   5.664   6.667
  148DOPC   C3217628   2.569   5.806   6.492
  148DOPC   H2X17629   2.462   5.833   6.483
  148DOPC   H2Y17630   2.630   5.897   6.473
  148DOPC   C2317631   2.417   5.385   6.559
  148DOPC   H3R17632   2.435   5.285   6.606
  148DOPC   H3S17633   2.511   5.444   6.569
  148DOPC   C2417634   2.384   5.362   6.411
  148DOPC   H4R17635   2.383   5.459   6.357
  148DOPC   H4S17636   2.282   5.319   6.402
  148DOPC   C2517637   2.482   5.265   6.342
  148DOPC   H5R17638   2.475   5.166   6.392
  148DOPC   H5S17639   2.586   5.302   6.352
  148DOPC   C2617640   2.449   5.246   6.193
  148DOPC   H6R17641   2.472   5.340   6.138
  148DOPC   H6S17642   2.341   5.226   6.180
  148DOPC   C2717643   2.527   5.130   6.128
  148DOPC   H7R17644   2.488   5.035   6.171
  148DOPC   H7S17645   2.635   5.137   6.156
  148DOPC   C2817646   2.513   5.125   5.975
  148DOPC   H8R17647   2.406   5.140   5.949
  148DOPC   H8S17648   2.539   5.022   5.942
  148DOPC   C2917649   2.604   5.222   5.905
  148DOPC   H9R17650   2.711   5.195   5.909
  148DOPC  C21017651   2.571   5.335   5.839
  148DOPC  H10R17652   2.653   5.395   5.796
  148DOPC  C21117653   2.434   5.395   5.819
  148DOPC  H11R17654   2.428   5.492   5.874
  148DOPC  H11S17655   2.354   5.330   5.860
  148DOPC  C21217656   2.402   5.423   5.670
  148DOPC  H12R17657   2.299   5.464   5.664
  148DOPC  H12S17658   2.402   5.327   5.614
  148DOPC  C21317659   2.499   5.521   5.602
  148DOPC  H13R17660   2.601   5.477   5.603
  148DOPC  H13S17661   2.504   5.616   5.660
  148DOPC  C21417662   2.464   5.551   5.456
  148DOPC  H14R17663   2.438   5.457   5.403
  148DOPC  H14S17664   2.555   5.593   5.407
  148DOPC  C21517665   2.350   5.653   5.440
  148DOPC  H15R17666   2.379   5.748   5.490
  148DOPC  H15S17667   2.260   5.615   5.491
  148DOPC  C21617668   2.313   5.683   5.293
  148DOPC  H16R17669   2.228   5.754   5.292
  148DOPC  H16S17670   2.279   5.589   5.245
  148DOPC  C21717671   2.426   5.743   5.207
  148DOPC  H17R17672   2.387   5.758   5.104
  148DOPC  H17S17673   2.509   5.670   5.199
  148DOPC  C21817674   2.481   5.877   5.258
  148DOPC  H18R17675   2.528   5.865   5.358
  148DOPC  H18S17676   2.399   5.951   5.267
  148DOPC  H18T17677   2.557   5.917   5.189
  148DOPC   C3317678   2.604   5.697   6.388
  148DOPC   H3X17679   2.544   5.606   6.410
  148DOPC   H3Y17680   2.711   5.670   6.395
  148DOPC   C3417681   2.571   5.740   6.244
  148DOPC   H4X17682   2.646   5.815   6.210
  148DOPC   H4Y17683   2.471   5.790   6.243
  148DOPC   C3517684   2.567   5.623   6.144
  148DOPC   H5X17685   2.549   5.664   6.042
  148DOPC   H5Y17686   2.479   5.559   6.169
  148DOPC   C3617687   2.693   5.535   6.143
  148DOPC   H6X17688   2.702   5.483   6.241
  148DOPC   H6Y17689   2.681   5.456   6.066
  148DOPC   C3717690   2.824   5.612   6.117
  148DOPC   H7X17691   2.835   5.688   6.196
  148DOPC   H7Y17692   2.910   5.542   6.127
  148DOPC   C3817693   2.831   5.683   5.980
  148DOPC   H8X17694   2.914   5.756   5.985
  148DOPC   H8Y17695   2.738   5.742   5.964
  148DOPC   C3917696   2.855   5.588   5.865
  148DOPC   H9X17697   2.859   5.481   5.891
  148DOPC  C31017698   2.874   5.626   5.738
  148DOPC  H10X17699   2.892   5.550   5.661
  148DOPC  C31117700   2.872   5.769   5.689
  148DOPC  H11X17701   2.976   5.807   5.678
  148DOPC  H11Y17702   2.821   5.836   5.762
  148DOPC  C31217703   2.801   5.785   5.553
  148DOPC  H12X17704   2.778   5.893   5.537
  148DOPC  H12Y17705   2.704   5.731   5.553
  148DOPC  C31317706   2.889   5.739   5.436
  148DOPC  H13X17707   2.979   5.803   5.432
  148DOPC  H13Y17708   2.921   5.634   5.454
  148DOPC  C31417709   2.820   5.744   5.299
  148DOPC  H14X17710   2.722   5.692   5.305
  148DOPC  H14Y17711   2.800   5.850   5.271
  148DOPC  C31517712   2.905   5.676   5.191
  148DOPC  H15X17713   2.926   5.572   5.224
  148DOPC  H15Y17714   3.003   5.729   5.183
  148DOPC  C31617715   2.837   5.671   5.054
  148DOPC  H16X17716   2.731   5.639   5.068
  148DOPC  H16Y17717   2.835   5.773   5.010
  148DOPC  C31717718   2.904   5.573   4.957
  148DOPC  H17X17719   2.903   5.471   5.003
  148DOPC  H17Y17720   2.842   5.568   4.865
  148DOPC  C31817721   3.048   5.609   4.918
  148DOPC  H18X17722   3.088   5.535   4.846
  148DOPC  H18Y17723   3.051   5.709   4.871
  148DOPC  H18Z17724   3.114   5.610   5.008
  149DOPC     N17725   2.492   1.834   6.965
  149DOPC   C1217726   2.470   1.849   7.114
  149DOPC  H12A17727   2.552   1.804   7.167
  149DOPC  H12B17728   2.381   1.792   7.140
  149DOPC   C1317729   2.384   1.906   6.890
  149DOPC  H13A17730   2.287   1.875   6.927
  149DOPC  H13B17731   2.394   2.012   6.904
  149DOPC  H13C17732   2.389   1.884   6.784
  149DOPC   C1417733   2.491   1.690   6.925
  149DOPC  H14A17734   2.398   1.643   6.953
  149DOPC  H14B17735   2.499   1.679   6.817
  149DOPC  H14C17736   2.572   1.634   6.970
  149DOPC   C1517737   2.623   1.896   6.928
  149DOPC  H15A17738   2.623   1.999   6.961
  149DOPC  H15B17739   2.641   1.893   6.822
  149DOPC  H15C17740   2.704   1.847   6.980
  149DOPC   C1117741   2.450   1.992   7.171
  149DOPC  H11A17742   2.356   2.033   7.128
  149DOPC  H11B17743   2.434   1.983   7.280
  149DOPC     P17744   2.542   2.229   7.112
  149DOPC   O1317745   2.667   2.302   7.143
  149DOPC   O1417746   2.419   2.278   7.179
  149DOPC   O1217747   2.563   2.076   7.148
  149DOPC   O1117748   2.520   2.222   6.957
  149DOPC    C117749   2.625   2.248   6.864
  149DOPC    HA17750   2.669   2.153   6.827
  149DOPC    HB17751   2.708   2.309   6.907
  149DOPC    C217752   2.572   2.326   6.741
  149DOPC    HS17753   2.523   2.417   6.781
  149DOPC   O2117754   2.478   2.243   6.670
  149DOPC   C2117755   2.410   2.309   6.578
  149DOPC   O2217756   2.403   2.431   6.569
  149DOPC   C2217757   2.345   2.210   6.483
  149DOPC   H2R17758   2.251   2.174   6.531
  149DOPC   H2S17759   2.412   2.122   6.470
  149DOPC    C317760   2.689   2.370   6.647
  149DOPC    HX17761   2.766   2.422   6.708
  149DOPC    HY17762   2.648   2.444   6.574
  149DOPC   O3117763   2.747   2.254   6.583
  149DOPC   C3117764   2.790   2.272   6.459
  149DOPC   O3217765   2.805   2.380   6.405
  149DOPC   C3217766   2.820   2.136   6.396
  149DOPC   H2X17767   2.903   2.148   6.324
  149DOPC   H2Y17768   2.853   2.068   6.476
  149DOPC   C2317769   2.314   2.275   6.346
  149DOPC   H3R17770   2.262   2.372   6.361
  149DOPC   H3S17771   2.245   2.209   6.289
  149DOPC   C2417772   2.439   2.297   6.260
  149DOPC   H4R17773   2.471   2.200   6.217
  149DOPC   H4S17774   2.522   2.336   6.324
  149DOPC   C2517775   2.418   2.399   6.147
  149DOPC   H5R17776   2.389   2.496   6.193
  149DOPC   H5S17777   2.334   2.366   6.082
  149DOPC   C2617778   2.545   2.420   6.062
  149DOPC   H6R17779   2.631   2.437   6.130
  149DOPC   H6S17780   2.531   2.512   6.002
  149DOPC   C2717781   2.574   2.304   5.966
  149DOPC   H7R17782   2.484   2.290   5.903
  149DOPC   H7S17783   2.590   2.211   6.024
  149DOPC   C2817784   2.695   2.328   5.873
  149DOPC   H8R17785   2.682   2.427   5.824
  149DOPC   H8S17786   2.691   2.253   5.791
  149DOPC   C2917787   2.828   2.324   5.945
  149DOPC   H9R17788   2.847   2.410   6.011
  149DOPC  C21017789   2.920   2.226   5.940
  149DOPC  H10R17790   3.012   2.238   5.999
  149DOPC  C21117791   2.914   2.098   5.860
  149DOPC  H11R17792   2.832   2.099   5.784
  149DOPC  H11S17793   2.892   2.014   5.929
  149DOPC  C21217794   3.044   2.064   5.785
  149DOPC  H12R17795   3.131   2.087   5.850
  149DOPC  H12S17796   3.054   2.126   5.694
  149DOPC  C21317797   3.054   1.915   5.746
  149DOPC  H13R17798   3.044   1.855   5.839
  149DOPC  H13S17799   3.156   1.896   5.705
  149DOPC  C21417800   2.950   1.867   5.645
  149DOPC  H14R17801   2.848   1.901   5.673
  149DOPC  H14S17802   2.949   1.756   5.648
  149DOPC  C21517803   2.980   1.906   5.499
  149DOPC  H15R17804   3.087   1.885   5.478
  149DOPC  H15S17805   2.963   2.015   5.485
  149DOPC  C21617806   2.893   1.826   5.400
  149DOPC  H16R17807   2.787   1.852   5.415
  149DOPC  H16S17808   2.905   1.718   5.422
  149DOPC  C21717809   2.932   1.849   5.254
  149DOPC  H17R17810   3.039   1.823   5.240
  149DOPC  H17S17811   2.921   1.957   5.231
  149DOPC  C21817812   2.848   1.768   5.155
  149DOPC  H18R17813   2.878   1.789   5.051
  149DOPC  H18S17814   2.741   1.794   5.167
  149DOPC  H18T17815   2.860   1.659   5.174
  149DOPC   C3317816   2.696   2.078   6.325
  149DOPC   H3X17817   2.683   2.126   6.226
  149DOPC   H3Y17818   2.605   2.100   6.386
  149DOPC   C3417819   2.702   1.926   6.310
  149DOPC   H4X17820   2.726   1.883   6.410
  149DOPC   H4Y17821   2.785   1.898   6.241
  149DOPC   C3517822   2.570   1.863   6.264
  149DOPC   H5X17823   2.488   1.898   6.331
  149DOPC   H5Y17824   2.577   1.753   6.277
  149DOPC   C3617825   2.532   1.891   6.119
  149DOPC   H6X17826   2.431   1.848   6.101
  149DOPC   H6Y17827   2.524   2.001   6.102
  149DOPC   C3717828   2.627   1.828   6.016
  149DOPC   H7X17829   2.728   1.874   6.026
  149DOPC   H7Y17830   2.637   1.720   6.042
  149DOPC   C3817831   2.579   1.838   5.871
  149DOPC   H8X17832   2.482   1.783   5.863
  149DOPC   H8Y17833   2.652   1.785   5.806
  149DOPC   C3917834   2.565   1.981   5.826
  149DOPC   H9X17835   2.644   2.047   5.866
  149DOPC  C31017836   2.468   2.034   5.750
  149DOPC  H10X17837   2.473   2.141   5.726
  149DOPC  C31117838   2.351   1.962   5.690
  149DOPC  H11X17839   2.258   1.987   5.745
  149DOPC  H11Y17840   2.363   1.851   5.695
  149DOPC  C31217841   2.330   1.999   5.542
  149DOPC  H12X17842   2.264   1.923   5.494
  149DOPC  H12Y17843   2.428   1.994   5.489
  149DOPC  C31317844   2.263   2.136   5.522
  149DOPC  H13X17845   2.157   2.128   5.552
  149DOPC  H13Y17846   2.309   2.210   5.592
  149DOPC  C31417847   2.272   2.191   5.378
  149DOPC  H14X17848   2.221   2.119   5.311
  149DOPC  H14Y17849   2.216   2.287   5.373
  149DOPC  C31517850   2.415   2.215   5.327
  149DOPC  H15X17851   2.411   2.247   5.221
  149DOPC  H15Y17852   2.470   2.119   5.328
  149DOPC  C31617853   2.495   2.319   5.408
  149DOPC  H16X17854   2.480   2.303   5.517
  149DOPC  H16Y17855   2.603   2.300   5.389
  149DOPC  C31717856   2.466   2.465   5.371
  149DOPC  H17X17857   2.357   2.483   5.374
  149DOPC  H17Y17858   2.512   2.530   5.448
  149DOPC  C31817859   2.521   2.506   5.234
  149DOPC  H18X17860   2.631   2.488   5.229
  149DOPC  H18Y17861   2.473   2.448   5.153
  149DOPC  H18Z17862   2.503   2.614   5.215
  150DOPC     N17863   6.170   4.875   7.105
  150DOPC   C1217864   6.041   4.891   7.025
  150DOPC  H12A17865   5.978   4.806   7.044
  150DOPC  H12B17866   6.066   4.889   6.920
  150DOPC   C1317867   6.264   4.987   7.075
  150DOPC  H13A17868   6.352   4.982   7.137
  150DOPC  H13B17869   6.293   4.985   6.971
  150DOPC  H13C17870   6.214   5.082   7.089
  150DOPC   C1417871   6.239   4.748   7.066
  150DOPC  H14A17872   6.179   4.661   7.088
  150DOPC  H14B17873   6.265   4.749   6.961
  150DOPC  H14C17874   6.332   4.738   7.120
  150DOPC   C1517875   6.143   4.874   7.252
  150DOPC  H15A17876   6.084   4.787   7.279
  150DOPC  H15B17877   6.091   4.964   7.281
  150DOPC  H15C17878   6.236   4.868   7.306
  150DOPC   C1117879   5.958   5.021   7.046
  150DOPC  H11A17880   5.860   5.009   6.996
  150DOPC  H11B17881   5.937   5.034   7.155
  150DOPC     P17882   6.053   5.156   6.842
  150DOPC   O1317883   6.200   5.147   6.825
  150DOPC   O1417884   5.988   5.281   6.801
  150DOPC   O1217885   6.025   5.136   6.998
  150DOPC   O1117886   5.978   5.030   6.779
  150DOPC    C117887   6.044   4.941   6.689
  150DOPC    HA17888   6.041   4.838   6.730
  150DOPC    HB17889   6.150   4.967   6.671
  150DOPC    C217890   5.975   4.938   6.551
  150DOPC    HS17891   5.869   4.905   6.565
  150DOPC   O2117892   6.048   4.841   6.473
  150DOPC   C2117893   5.986   4.799   6.364
  150DOPC   O2217894   5.869   4.820   6.336
  150DOPC   C2217895   6.084   4.713   6.285
  150DOPC   H2R17896   6.106   4.623   6.346
  150DOPC   H2S17897   6.178   4.771   6.272
  150DOPC    C317898   5.973   5.078   6.483
  150DOPC    HX17899   5.903   5.141   6.542
  150DOPC    HY17900   5.929   5.071   6.381
  150DOPC   O3117901   6.103   5.141   6.484
  150DOPC   C3117902   6.183   5.117   6.381
  150DOPC   O3217903   6.157   5.047   6.285
  150DOPC   C3217904   6.317   5.187   6.406
  150DOPC   H2X17905   6.305   5.260   6.488
  150DOPC   H2Y17906   6.389   5.109   6.438
  150DOPC   C2317907   6.030   4.670   6.147
  150DOPC   H3R17908   5.929   4.625   6.157
  150DOPC   H3S17909   6.098   4.592   6.106
  150DOPC   C2417910   6.023   4.786   6.046
  150DOPC   H4R17911   6.121   4.838   6.042
  150DOPC   H4S17912   5.948   4.860   6.081
  150DOPC   C2517913   5.984   4.735   5.907
  150DOPC   H5R17914   5.876   4.708   5.907
  150DOPC   H5S17915   6.040   4.641   5.886
  150DOPC   C2617916   6.013   4.833   5.793
  150DOPC   H6R17917   6.121   4.863   5.796
  150DOPC   H6S17918   5.953   4.926   5.805
  150DOPC   C2717919   5.983   4.769   5.657
  150DOPC   H7R17920   5.877   4.738   5.655
  150DOPC   H7S17921   6.045   4.677   5.649
  150DOPC   C2817922   6.011   4.861   5.538
  150DOPC   H8R17923   6.115   4.900   5.544
  150DOPC   H8S17924   5.944   4.949   5.544
  150DOPC   C2917925   5.993   4.784   5.409
  150DOPC   H9R17926   6.081   4.726   5.378
  150DOPC  C21017927   5.882   4.778   5.334
  150DOPC  H10R17928   5.884   4.717   5.242
  150DOPC  C21117929   5.751   4.849   5.358
  150DOPC  H11R17930   5.750   4.907   5.454
  150DOPC  H11S17931   5.668   4.776   5.364
  150DOPC  C21217932   5.727   4.945   5.241
  150DOPC  H12R17933   5.730   4.887   5.146
  150DOPC  H12S17934   5.808   5.020   5.237
  150DOPC  C21317935   5.592   5.019   5.244
  150DOPC  H13R17936   5.584   5.083   5.334
  150DOPC  H13S17937   5.510   4.944   5.247
  150DOPC  C21417938   5.581   5.103   5.116
  150DOPC  H14R17939   5.608   5.036   5.032
  150DOPC  H14S17940   5.655   5.186   5.118
  150DOPC  C21517941   5.442   5.157   5.082
  150DOPC  H15R17942   5.429   5.256   5.130
  150DOPC  H15S17943   5.365   5.088   5.123
  150DOPC  C21617944   5.421   5.167   4.930
  150DOPC  H16R17945   5.318   5.200   4.909
  150DOPC  H16S17946   5.432   5.065   4.886
  150DOPC  C21717947   5.522   5.259   4.858
  150DOPC  H17R17948   5.625   5.223   4.878
  150DOPC  H17S17949   5.515   5.361   4.901
  150DOPC  C21817950   5.501   5.265   4.707
  150DOPC  H18R17951   5.577   5.330   4.659
  150DOPC  H18S17952   5.400   5.305   4.683
  150DOPC  H18T17953   5.509   5.163   4.663
  150DOPC   C3317954   6.370   5.258   6.279
  150DOPC   H3X17955   6.377   5.185   6.195
  150DOPC   H3Y17956   6.472   5.295   6.300
  150DOPC   C3417957   6.282   5.377   6.238
  150DOPC   H4X17958   6.271   5.445   6.326
  150DOPC   H4Y17959   6.181   5.341   6.211
  150DOPC   C3517960   6.339   5.459   6.121
  150DOPC   H5X17961   6.435   5.506   6.152
  150DOPC   H5Y17962   6.268   5.541   6.099
  150DOPC   C3617963   6.362   5.379   5.991
  150DOPC   H6X17964   6.389   5.451   5.911
  150DOPC   H6Y17965   6.448   5.310   6.005
  150DOPC   C3717966   6.240   5.297   5.946
  150DOPC   H7X17967   6.228   5.209   6.012
  150DOPC   H7Y17968   6.149   5.360   5.959
  150DOPC   C3817969   6.246   5.253   5.798
  150DOPC   H8X17970   6.244   5.345   5.736
  150DOPC   H8Y17971   6.154   5.196   5.776
  150DOPC   C3917972   6.367   5.168   5.770
  150DOPC   H9X17973   6.379   5.084   5.839
  150DOPC  C31017974   6.458   5.185   5.672
  150DOPC  H10X17975   6.541   5.114   5.664
  150DOPC  C31117976   6.460   5.294   5.567
  150DOPC  H11X17977   6.548   5.359   5.583
  150DOPC  H11Y17978   6.370   5.359   5.571
  150DOPC  C31217979   6.470   5.236   5.424
  150DOPC  H12X17980   6.562   5.175   5.414
  150DOPC  H12Y17981   6.479   5.321   5.353
  150DOPC  C31317982   6.349   5.151   5.383
  150DOPC  H13X17983   6.335   5.070   5.458
  150DOPC  H13Y17984   6.256   5.212   5.384
  150DOPC  C31417985   6.366   5.084   5.245
  150DOPC  H14X17986   6.468   5.039   5.242
  150DOPC  H14Y17987   6.293   5.002   5.235
  150DOPC  C31517988   6.349   5.180   5.126
  150DOPC  H15X17989   6.408   5.140   5.041
  150DOPC  H15Y17990   6.389   5.280   5.152
  150DOPC  C31617991   6.203   5.191   5.082
  150DOPC  H16X17992   6.171   5.093   5.041
  150DOPC  H16Y17993   6.139   5.213   5.170
  150DOPC  C31717994   6.178   5.300   4.975
  150DOPC  H17X17995   6.075   5.287   4.936
  150DOPC  H17Y17996   6.182   5.399   5.024
  150DOPC  C31817997   6.278   5.297   4.859
  150DOPC  H18X17998   6.241   5.357   4.774
  150DOPC  H18Y17999   6.376   5.340   4.892
  150DOPC  H18Z18000   6.295   5.193   4.824
  151DOPC     N18001   1.470   3.812   7.136
  151DOPC   C1218002   1.341   3.885   7.171
  151DOPC  H12A18003   1.310   3.945   7.087
  151DOPC  H12B18004   1.359   3.950   7.256
  151DOPC   C1318005   1.465   3.759   6.996
  151DOPC  H13A18006   1.447   3.837   6.924
  151DOPC  H13B18007   1.555   3.706   6.969
  151DOPC  H13C18008   1.381   3.692   6.985
  151DOPC   C1418009   1.490   3.697   7.231
  151DOPC  H14A18010   1.491   3.733   7.333
  151DOPC  H14B18011   1.409   3.627   7.220
  151DOPC  H14C18012   1.585   3.648   7.212
  151DOPC   C1518013   1.588   3.902   7.150
  151DOPC  H15A18014   1.602   3.932   7.253
  151DOPC  H15B18015   1.579   3.989   7.087
  151DOPC  H15C18016   1.678   3.849   7.123
  151DOPC   C1118017   1.216   3.799   7.207
  151DOPC  H11A18018   1.236   3.743   7.301
  151DOPC  H11B18019   1.131   3.867   7.228
  151DOPC     P18020   1.121   3.761   6.967
  151DOPC   O1318021   1.158   3.904   6.951
  151DOPC   O1418022   0.979   3.721   6.972
  151DOPC   O1218023   1.184   3.707   7.103
  151DOPC   O1118024   1.202   3.673   6.865
  151DOPC    C118025   1.201   3.530   6.873
  151DOPC    HA18026   1.128   3.490   6.947
  151DOPC    HB18027   1.301   3.494   6.905
  151DOPC    C218028   1.166   3.465   6.736
  151DOPC    HS18029   1.191   3.357   6.739
  151DOPC   O2118030   1.234   3.525   6.624
  151DOPC   C2118031   1.360   3.560   6.627
  151DOPC   O2218032   1.441   3.540   6.716
  151DOPC   C2218033   1.392   3.628   6.493
  151DOPC   H2R18034   1.305   3.616   6.425
  151DOPC   H2S18035   1.478   3.574   6.448
  151DOPC    C318036   1.013   3.477   6.710
  151DOPC    HX18037   0.978   3.577   6.746
  151DOPC    HY18038   0.961   3.402   6.774
  151DOPC   O3118039   0.978   3.453   6.572
  151DOPC   C3118040   0.976   3.562   6.495
  151DOPC   O3218041   0.990   3.677   6.532
  151DOPC   C3218042   0.965   3.519   6.349
  151DOPC   H2X18043   1.067   3.528   6.306
  151DOPC   H2Y18044   0.933   3.413   6.344
  151DOPC   C2318045   1.426   3.779   6.507
  151DOPC   H3R18046   1.533   3.796   6.485
  151DOPC   H3S18047   1.410   3.810   6.613
  151DOPC   C2418048   1.338   3.871   6.420
  151DOPC   H4R18049   1.325   3.965   6.479
  151DOPC   H4S18050   1.236   3.829   6.408
  151DOPC   C2518051   1.399   3.913   6.285
  151DOPC   H5R18052   1.509   3.919   6.293
  151DOPC   H5S18053   1.362   4.015   6.264
  151DOPC   C2618054   1.361   3.828   6.163
  151DOPC   H6R18055   1.257   3.791   6.172
  151DOPC   H6S18056   1.428   3.740   6.158
  151DOPC   C2718057   1.374   3.912   6.034
  151DOPC   H7R18058   1.452   3.989   6.052
  151DOPC   H7S18059   1.279   3.968   6.016
  151DOPC   C2818060   1.417   3.835   5.908
  151DOPC   H8R18061   1.512   3.782   5.929
  151DOPC   H8S18062   1.439   3.910   5.829
  151DOPC   C2918063   1.313   3.739   5.857
  151DOPC   H9R18064   1.224   3.727   5.921
  151DOPC  C21018065   1.322   3.667   5.744
  151DOPC  H10R18066   1.240   3.599   5.717
  151DOPC  C21118067   1.438   3.669   5.647
  151DOPC  H11R18068   1.511   3.593   5.680
  151DOPC  H11S18069   1.491   3.767   5.647
  151DOPC  C21218070   1.397   3.634   5.502
  151DOPC  H12R18071   1.319   3.556   5.501
  151DOPC  H12S18072   1.486   3.590   5.453
  151DOPC  C21318073   1.353   3.753   5.414
  151DOPC  H13R18074   1.327   3.711   5.315
  151DOPC  H13S18075   1.439   3.822   5.400
  151DOPC  C21418076   1.232   3.833   5.463
  151DOPC  H14R18077   1.259   3.893   5.553
  151DOPC  H14S18078   1.151   3.763   5.492
  151DOPC  C21518079   1.179   3.925   5.353
  151DOPC  H15R18080   1.162   3.864   5.261
  151DOPC  H15S18081   1.255   4.002   5.328
  151DOPC  C21618082   1.047   3.993   5.392
  151DOPC  H16R18083   1.066   4.055   5.482
  151DOPC  H16S18084   0.973   3.915   5.419
  151DOPC  C21718085   0.987   4.081   5.281
  151DOPC  H17R18086   1.064   4.152   5.245
  151DOPC  H17S18087   0.904   4.141   5.325
  151DOPC  C21818088   0.931   4.002   5.163
  151DOPC  H18R18089   0.882   4.070   5.090
  151DOPC  H18S18090   0.855   3.928   5.198
  151DOPC  H18T18091   1.012   3.946   5.111
  151DOPC   C3318092   0.866   3.607   6.270
  151DOPC   H3X18093   0.886   3.715   6.288
  151DOPC   H3Y18094   0.763   3.586   6.306
  151DOPC   C3418095   0.874   3.578   6.120
  151DOPC   H4X18096   0.780   3.612   6.071
  151DOPC   H4Y18097   0.882   3.468   6.105
  151DOPC   C3518098   0.993   3.648   6.052
  151DOPC   H5X18099   1.024   3.588   5.963
  151DOPC   H5Y18100   1.080   3.648   6.122
  151DOPC   C3618101   0.963   3.792   6.008
  151DOPC   H6X18102   0.909   3.843   6.090
  151DOPC   H6Y18103   1.058   3.847   5.992
  151DOPC   C3718104   0.880   3.800   5.878
  151DOPC   H7X18105   0.790   3.735   5.889
  151DOPC   H7Y18106   0.843   3.904   5.867
  151DOPC   C3818107   0.958   3.762   5.751
  151DOPC   H8X18108   1.004   3.661   5.767
  151DOPC   H8Y18109   1.043   3.833   5.739
  151DOPC   C3918110   0.872   3.764   5.628
  151DOPC   H9X18111   0.833   3.863   5.600
  151DOPC  C31018112   0.840   3.658   5.551
  151DOPC  H10X18113   0.777   3.673   5.462
  151DOPC  C31118114   0.883   3.515   5.575
  151DOPC  H11X18115   0.811   3.444   5.529
  151DOPC  H11Y18116   0.882   3.494   5.684
  151DOPC  C31218117   1.024   3.480   5.524
  151DOPC  H12X18118   1.063   3.397   5.587
  151DOPC  H12Y18119   1.093   3.566   5.539
  151DOPC  C31318120   1.032   3.431   5.378
  151DOPC  H13X18121   1.138   3.403   5.356
  151DOPC  H13Y18122   0.971   3.339   5.368
  151DOPC  C31418123   0.987   3.534   5.273
  151DOPC  H14X18124   0.880   3.558   5.289
  151DOPC  H14Y18125   1.045   3.628   5.287
  151DOPC  C31518126   1.004   3.486   5.128
  151DOPC  H15X18127   1.112   3.465   5.108
  151DOPC  H15Y18128   0.974   3.569   5.060
  151DOPC  C31618129   0.921   3.361   5.094
  151DOPC  H16X18130   0.963   3.275   5.151
  151DOPC  H16Y18131   0.816   3.376   5.128
  151DOPC  C31718132   0.919   3.324   4.945
  151DOPC  H17X18133   1.024   3.320   4.907
  151DOPC  H17Y18134   0.877   3.221   4.935
  151DOPC  C31818135   0.836   3.418   4.858
  151DOPC  H18X18136   0.838   3.386   4.752
  151DOPC  H18Y18137   0.730   3.419   4.893
  151DOPC  H18Z18138   0.875   3.522   4.864
  152DOPC     N18139   3.922   1.390   7.024
  152DOPC   C1218140   3.899   1.312   6.895
  152DOPC  H12A18141   3.922   1.376   6.811
  152DOPC  H12B18142   3.794   1.287   6.890
  152DOPC   C1318143   4.068   1.421   7.043
  152DOPC  H13A18144   4.111   1.473   6.959
  152DOPC  H13B18145   4.081   1.483   7.131
  152DOPC  H13C18146   4.124   1.330   7.060
  152DOPC   C1418147   3.878   1.307   7.140
  152DOPC  H14A18148   3.910   1.351   7.234
  152DOPC  H14B18149   3.771   1.297   7.144
  152DOPC  H14C18150   3.921   1.208   7.132
  152DOPC   C1518151   3.847   1.519   7.028
  152DOPC  H15A18152   3.873   1.572   7.118
  152DOPC  H15B18153   3.740   1.502   7.030
  152DOPC  H15C18154   3.873   1.583   6.945
  152DOPC   C1118155   3.978   1.180   6.878
  152DOPC  H11A18156   3.962   1.143   6.775
  152DOPC  H11B18157   4.086   1.202   6.888
  152DOPC     P18158   4.027   0.955   6.997
  152DOPC   O1318159   3.965   0.870   7.100
  152DOPC   O1418160   4.165   1.001   7.022
  152DOPC   O1218161   3.933   1.082   6.972
  152DOPC   O1118162   4.017   0.878   6.860
  152DOPC    C118163   3.886   0.860   6.804
  152DOPC    HA18164   3.842   0.959   6.782
  152DOPC    HB18165   3.818   0.807   6.875
  152DOPC    C218166   3.883   0.781   6.670
  152DOPC    HS18167   3.894   0.674   6.697
  152DOPC   O2118168   3.995   0.822   6.589
  152DOPC   C2118169   4.017   0.745   6.484
  152DOPC   O2218170   3.953   0.646   6.453
  152DOPC   C2218171   4.134   0.802   6.404
  152DOPC   H2R18172   4.220   0.734   6.420
  152DOPC   H2S18173   4.160   0.902   6.444
  152DOPC    C318174   3.747   0.800   6.595
  152DOPC    HX18175   3.664   0.803   6.669
  152DOPC    HY18176   3.730   0.709   6.533
  152DOPC   O3118177   3.747   0.915   6.507
  152DOPC   C3118178   3.712   1.032   6.557
  152DOPC   O3218179   3.661   1.051   6.666
  152DOPC   C3218180   3.748   1.142   6.457
  152DOPC   H2X18181   3.793   1.096   6.367
  152DOPC   H2Y18182   3.654   1.193   6.428
  152DOPC   C2318183   4.103   0.813   6.253
  152DOPC   H3R18184   4.093   0.711   6.210
  152DOPC   H3S18185   4.188   0.862   6.202
  152DOPC   C2418186   3.975   0.893   6.224
  152DOPC   H4R18187   3.980   0.992   6.274
  152DOPC   H4S18188   3.888   0.838   6.267
  152DOPC   C2518189   3.949   0.913   6.074
  152DOPC   H5R18190   3.965   0.816   6.022
  152DOPC   H5S18191   4.024   0.983   6.031
  152DOPC   C2618192   3.806   0.961   6.043
  152DOPC   H6R18193   3.735   0.917   6.117
  152DOPC   H6S18194   3.777   0.923   5.943
  152DOPC   C2718195   3.792   1.113   6.040
  152DOPC   H7R18196   3.854   1.150   5.955
  152DOPC   H7S18197   3.833   1.157   6.134
  152DOPC   C2818198   3.647   1.159   6.020
  152DOPC   H8R18199   3.589   1.139   6.112
  152DOPC   H8S18200   3.603   1.095   5.940
  152DOPC   C2918201   3.642   1.305   5.984
  152DOPC   H9R18202   3.673   1.373   6.065
  152DOPC  C21018203   3.606   1.358   5.866
  152DOPC  H10R18204   3.610   1.468   5.854
  152DOPC  C21118205   3.563   1.283   5.742
  152DOPC  H11R18206   3.479   1.335   5.692
  152DOPC  H11S18207   3.524   1.182   5.768
  152DOPC  C21218208   3.678   1.265   5.642
  152DOPC  H12R18209   3.651   1.185   5.570
  152DOPC  H12S18210   3.769   1.231   5.697
  152DOPC  C21318211   3.711   1.392   5.562
  152DOPC  H13R18212   3.720   1.479   5.631
  152DOPC  H13S18213   3.628   1.413   5.492
  152DOPC  C21418214   3.843   1.377   5.485
  152DOPC  H14R18215   3.836   1.286   5.421
  152DOPC  H14S18216   3.925   1.361   5.558
  152DOPC  C21518217   3.878   1.497   5.396
  152DOPC  H15R18218   3.984   1.485   5.363
  152DOPC  H15S18219   3.872   1.591   5.454
  152DOPC  C21618220   3.790   1.506   5.270
  152DOPC  H16R18221   3.685   1.528   5.300
  152DOPC  H16S18222   3.791   1.408   5.219
  152DOPC  C21718223   3.839   1.613   5.172
  152DOPC  H17R18224   3.945   1.592   5.146
  152DOPC  H17S18225   3.835   1.712   5.222
  152DOPC  C21818226   3.756   1.618   5.043
  152DOPC  H18R18227   3.761   1.521   4.989
  152DOPC  H18S18228   3.794   1.698   4.975
  152DOPC  H18T18229   3.649   1.640   5.066
  152DOPC   C3318230   3.847   1.244   6.519
  152DOPC   H3X18231   3.937   1.192   6.558
  152DOPC   H3Y18232   3.796   1.294   6.605
  152DOPC   C3418233   3.893   1.352   6.419
  152DOPC   H4X18234   3.926   1.442   6.475
  152DOPC   H4Y18235   3.808   1.381   6.355
  152DOPC   C3518236   4.011   1.305   6.332
  152DOPC   H5X18237   3.984   1.208   6.286
  152DOPC   H5Y18238   4.101   1.289   6.395
  152DOPC   C3618239   4.045   1.406   6.221
  152DOPC   H6X18240   3.955   1.418   6.157
  152DOPC   H6Y18241   4.068   1.504   6.266
  152DOPC   C3718242   4.163   1.364   6.131
  152DOPC   H7X18243   4.179   1.444   6.055
  152DOPC   H7Y18244   4.255   1.357   6.192
  152DOPC   C3818245   4.139   1.230   6.058
  152DOPC   H8X18246   4.040   1.238   6.008
  152DOPC   H8Y18247   4.131   1.150   6.135
  152DOPC   C3918248   4.247   1.192   5.960
  152DOPC   H9X18249   4.346   1.174   6.006
  152DOPC  C31018250   4.234   1.177   5.827
  152DOPC  H10X18251   4.322   1.146   5.768
  152DOPC  C31118252   4.108   1.197   5.745
  152DOPC  H11X18253   4.134   1.241   5.646
  152DOPC  H11Y18254   4.040   1.269   5.794
  152DOPC  C31218255   4.028   1.066   5.723
  152DOPC  H12X18256   3.934   1.091   5.670
  152DOPC  H12Y18257   3.999   1.025   5.822
  152DOPC  C31318258   4.101   0.956   5.644
  152DOPC  H13X18259   4.188   0.921   5.703
  152DOPC  H13Y18260   4.031   0.870   5.635
  152DOPC  C31418261   4.149   0.997   5.504
  152DOPC  H14X18262   4.227   1.075   5.515
  152DOPC  H14Y18263   4.196   0.910   5.455
  152DOPC  C31518264   4.038   1.051   5.412
  152DOPC  H15X18265   4.086   1.096   5.322
  152DOPC  H15Y18266   3.984   1.132   5.464
  152DOPC  C31618267   3.938   0.943   5.365
  152DOPC  H16X18268   3.988   0.877   5.292
  152DOPC  H16Y18269   3.908   0.881   5.452
  152DOPC  C31718270   3.810   1.002   5.303
  152DOPC  H17X18271   3.746   0.918   5.269
  152DOPC  H17Y18272   3.754   1.056   5.383
  152DOPC  C31818273   3.834   1.098   5.186
  152DOPC  H18X18274   3.737   1.135   5.146
  152DOPC  H18Y18275   3.893   1.186   5.218
  152DOPC  H18Z18276   3.888   1.047   5.104
  153DOPC     N18277   5.428   6.463   7.038
  153DOPC   C1218278   5.536   6.417   6.941
  153DOPC  H12A18279   5.633   6.427   6.987
  153DOPC  H12B18280   5.537   6.485   6.857
  153DOPC   C1318281   5.401   6.359   7.141
  153DOPC  H13A18282   5.332   6.395   7.217
  153DOPC  H13B18283   5.357   6.271   7.095
  153DOPC  H13C18284   5.492   6.328   7.190
  153DOPC   C1418285   5.301   6.485   6.960
  153DOPC  H14A18286   5.315   6.562   6.886
  153DOPC  H14B18287   5.279   6.393   6.908
  153DOPC  H14C18288   5.219   6.508   7.026
  153DOPC   C1518289   5.469   6.590   7.106
  153DOPC  H15A18290   5.556   6.573   7.167
  153DOPC  H15B18291   5.392   6.627   7.171
  153DOPC  H15C18292   5.494   6.666   7.032
  153DOPC   C1118293   5.526   6.273   6.885
  153DOPC  H11A18294   5.603   6.261   6.805
  153DOPC  H11B18295   5.555   6.205   6.967
  153DOPC     P18296   5.323   6.111   6.867
  153DOPC   O1318297   5.255   6.130   6.997
  153DOPC   O1418298   5.422   6.000   6.862
  153DOPC   O1218299   5.397   6.245   6.829
  153DOPC   O1118300   5.216   6.095   6.753
  153DOPC    C118301   5.243   6.021   6.634
  153DOPC    HA18302   5.148   6.007   6.578
  153DOPC    HB18303   5.282   5.919   6.658
  153DOPC    C218304   5.343   6.091   6.538
  153DOPC    HS18305   5.438   6.106   6.595
  153DOPC   O2118306   5.289   6.218   6.496
  153DOPC   C2118307   5.380   6.302   6.447
  153DOPC   O2218308   5.500   6.286   6.448
  153DOPC   C2218309   5.308   6.426   6.391
  153DOPC   H2R18310   5.313   6.504   6.470
  153DOPC   H2S18311   5.202   6.400   6.373
  153DOPC    C318312   5.377   6.001   6.415
  153DOPC    HX18313   5.418   5.906   6.455
  153DOPC    HY18314   5.459   6.049   6.357
  153DOPC   O3118315   5.262   5.970   6.333
  153DOPC   C3118316   5.245   6.050   6.228
  153DOPC   O3218317   5.314   6.147   6.201
  153DOPC   C3218318   5.132   6.000   6.139
  153DOPC   H2X18319   5.152   5.894   6.115
  153DOPC   H2Y18320   5.036   6.009   6.194
  153DOPC   C2318321   5.372   6.478   6.260
  153DOPC   H3R18322   5.360   6.401   6.181
  153DOPC   H3S18323   5.481   6.492   6.274
  153DOPC   C2418324   5.310   6.610   6.213
  153DOPC   H4R18325   5.314   6.683   6.296
  153DOPC   H4S18326   5.203   6.593   6.190
  153DOPC   C2518327   5.380   6.672   6.090
  153DOPC   H5R18328   5.484   6.700   6.118
  153DOPC   H5S18329   5.326   6.766   6.063
  153DOPC   C2618330   5.387   6.582   5.966
  153DOPC   H6R18331   5.452   6.495   5.989
  153DOPC   H6S18332   5.436   6.638   5.884
  153DOPC   C2718333   5.250   6.531   5.917
  153DOPC   H7R18334   5.183   6.619   5.904
  153DOPC   H7S18335   5.205   6.466   5.995
  153DOPC   C2818336   5.257   6.455   5.784
  153DOPC   H8R18337   5.293   6.524   5.705
  153DOPC   H8S18338   5.154   6.425   5.755
  153DOPC   C2918339   5.344   6.331   5.794
  153DOPC   H9R18340   5.327   6.271   5.884
  153DOPC  C21018341   5.439   6.293   5.707
  153DOPC  H10R18342   5.494   6.199   5.726
  153DOPC  C21118343   5.479   6.365   5.580
  153DOPC  H11R18344   5.583   6.338   5.552
  153DOPC  H11S18345   5.480   6.475   5.597
  153DOPC  C21218346   5.385   6.336   5.461
  153DOPC  H12R18347   5.422   6.394   5.374
  153DOPC  H12S18348   5.284   6.374   5.485
  153DOPC  C21318349   5.374   6.188   5.420
  153DOPC  H13R18350   5.302   6.180   5.336
  153DOPC  H13S18351   5.333   6.129   5.505
  153DOPC  C21418352   5.507   6.126   5.376
  153DOPC  H14R18353   5.580   6.131   5.460
  153DOPC  H14S18354   5.549   6.184   5.292
  153DOPC  C21518355   5.492   5.979   5.334
  153DOPC  H15R18356   5.423   5.973   5.247
  153DOPC  H15S18357   5.446   5.922   5.418
  153DOPC  C21618358   5.627   5.916   5.297
  153DOPC  H16R18359   5.696   5.925   5.384
  153DOPC  H16S18360   5.670   5.976   5.214
  153DOPC  C21718361   5.622   5.769   5.253
  153DOPC  H17R18362   5.723   5.738   5.220
  153DOPC  H17S18363   5.556   5.761   5.164
  153DOPC  C21818364   5.575   5.673   5.363
  153DOPC  H18R18365   5.579   5.568   5.326
  153DOPC  H18S18366   5.471   5.695   5.394
  153DOPC  H18T18367   5.641   5.681   5.451
  153DOPC   C3318368   5.128   6.084   6.008
  153DOPC   H3X18369   5.231   6.088   5.966
  153DOPC   H3Y18370   5.097   6.188   6.031
  153DOPC   C3418371   5.038   6.027   5.898
  153DOPC   H4X18372   4.932   6.026   5.931
  153DOPC   H4Y18373   5.069   5.922   5.877
  153DOPC   C3518374   5.053   6.110   5.770
  153DOPC   H5X18375   5.161   6.120   5.748
  153DOPC   H5Y18376   5.013   6.212   5.787
  153DOPC   C3618377   4.987   6.048   5.646
  153DOPC   H6X18378   5.028   5.946   5.631
  153DOPC   H6Y18379   4.877   6.039   5.660
  153DOPC   C3718380   5.017   6.132   5.520
  153DOPC   H7X18381   4.943   6.214   5.512
  153DOPC   H7Y18382   5.116   6.179   5.532
  153DOPC   C3818383   5.021   6.050   5.389
  153DOPC   H8X18384   5.087   5.962   5.404
  153DOPC   H8Y18385   5.066   6.112   5.310
  153DOPC   C3918386   4.882   6.006   5.350
  153DOPC   H9X18387   4.812   5.995   5.434
  153DOPC  C31018388   4.841   5.978   5.225
  153DOPC  H10X18389   4.738   5.942   5.211
  153DOPC  C31118390   4.924   5.982   5.101
  153DOPC  H11X18391   4.884   5.907   5.029
  153DOPC  H11Y18392   5.028   5.951   5.124
  153DOPC  C31218393   4.932   6.116   5.026
  153DOPC  H12X18394   4.976   6.192   5.094
  153DOPC  H12Y18395   4.830   6.151   4.997
  153DOPC  C31318396   5.018   6.101   4.900
  153DOPC  H13X18397   5.112   6.048   4.928
  153DOPC  H13Y18398   4.965   6.036   4.828
  153DOPC  C31418399   5.057   6.232   4.830
  153DOPC  H14X18400   5.121   6.205   4.742
  153DOPC  H14Y18401   4.966   6.282   4.791
  153DOPC  C31518402   5.136   6.332   4.916
  153DOPC  H15X18403   5.065   6.384   4.984
  153DOPC  H15Y18404   5.180   6.409   4.849
  153DOPC  C31618405   5.248   6.268   5.001
  153DOPC  H16X18406   5.203   6.212   5.085
  153DOPC  H16Y18407   5.303   6.195   4.938
  153DOPC  C31718408   5.349   6.370   5.057
  153DOPC  H17X18409   5.422   6.315   5.119
  153DOPC  H17Y18410   5.404   6.416   4.972
  153DOPC  C31818411   5.286   6.482   5.140
  153DOPC  H18X18412   5.230   6.439   5.227
  153DOPC  H18Y18413   5.364   6.550   5.179
  153DOPC  H18Z18414   5.215   6.541   5.079
  154DOPC     N18415   6.968   3.713   7.080
  154DOPC   C1218416   6.914   3.850   7.047
  154DOPC  H12A18417   6.997   3.913   7.017
  154DOPC  H12B18418   6.873   3.894   7.137
  154DOPC   C1318419   7.081   3.727   7.177
  154DOPC  H13A18420   7.124   3.631   7.200
  154DOPC  H13B18421   7.159   3.788   7.135
  154DOPC  H13C18422   7.046   3.772   7.269
  154DOPC   C1418423   7.020   3.645   6.956
  154DOPC  H14A18424   7.091   3.706   6.903
  154DOPC  H14B18425   7.064   3.549   6.978
  154DOPC  H14C18426   6.939   3.627   6.886
  154DOPC   C1518427   6.860   3.629   7.140
  154DOPC  H15A18428   6.830   3.667   7.237
  154DOPC  H15B18429   6.888   3.525   7.151
  154DOPC  H15C18430   6.772   3.635   7.077
  154DOPC   C1118431   6.804   3.859   6.939
  154DOPC  H11A18432   6.796   3.966   6.910
  154DOPC  H11B18433   6.833   3.802   6.848
  154DOPC     P18434   6.549   3.832   6.911
  154DOPC   O1318435   6.549   3.973   6.866
  154DOPC   O1418436   6.439   3.788   6.999
  154DOPC   O1218437   6.682   3.811   6.993
  154DOPC   O1118438   6.568   3.728   6.792
  154DOPC    C118439   6.595   3.592   6.834
  154DOPC    HA18440   6.515   3.554   6.902
  154DOPC    HB18441   6.691   3.588   6.889
  154DOPC    C218442   6.609   3.489   6.717
  154DOPC    HS18443   6.668   3.404   6.756
  154DOPC   O2118444   6.672   3.548   6.603
  154DOPC   C2118445   6.799   3.577   6.619
  154DOPC   O2218446   6.868   3.548   6.715
  154DOPC   C2218447   6.851   3.645   6.492
  154DOPC   H2R18448   6.922   3.725   6.523
  154DOPC   H2S18449   6.764   3.693   6.442
  154DOPC    C318450   6.471   3.429   6.674
  154DOPC    HX18451   6.413   3.409   6.766
  154DOPC    HY18452   6.491   3.330   6.628
  154DOPC   O3118453   6.394   3.515   6.588
  154DOPC   C3118454   6.413   3.495   6.457
  154DOPC   O3218455   6.483   3.409   6.408
  154DOPC   C3218456   6.328   3.595   6.378
  154DOPC   H2X18457   6.222   3.578   6.408
  154DOPC   H2Y18458   6.358   3.697   6.409
  154DOPC   C2318459   6.921   3.544   6.399
  154DOPC   H3R18460   6.856   3.455   6.386
  154DOPC   H3S18461   7.016   3.511   6.445
  154DOPC   C2418462   6.950   3.600   6.258
  154DOPC   H4R18463   7.010   3.524   6.203
  154DOPC   H4S18464   7.012   3.692   6.266
  154DOPC   C2518465   6.824   3.629   6.176
  154DOPC   H5R18466   6.764   3.708   6.227
  154DOPC   H5S18467   6.761   3.537   6.171
  154DOPC   C2618468   6.855   3.676   6.033
  154DOPC   H6R18469   6.914   3.598   5.979
  154DOPC   H6S18470   6.917   3.768   6.039
  154DOPC   C2718471   6.726   3.706   5.955
  154DOPC   H7R18472   6.662   3.771   6.019
  154DOPC   H7S18473   6.670   3.612   5.937
  154DOPC   C2818474   6.749   3.781   5.823
  154DOPC   H8R18475   6.811   3.872   5.843
  154DOPC   H8S18476   6.651   3.819   5.788
  154DOPC   C2918477   6.812   3.699   5.713
  154DOPC   H9R18478   6.922   3.699   5.710
  154DOPC  C21018479   6.742   3.628   5.622
  154DOPC  H10R18480   6.796   3.574   5.543
  154DOPC  C21118481   6.592   3.618   5.616
  154DOPC  H11R18482   6.550   3.710   5.572
  154DOPC  H11S18483   6.549   3.608   5.718
  154DOPC  C21218484   6.544   3.498   5.532
  154DOPC  H12R18485   6.582   3.511   5.428
  154DOPC  H12S18486   6.433   3.500   5.528
  154DOPC  C21318487   6.589   3.361   5.584
  154DOPC  H13R18488   6.555   3.349   5.689
  154DOPC  H13S18489   6.700   3.358   5.585
  154DOPC  C21418490   6.540   3.240   5.501
  154DOPC  H14R18491   6.430   3.228   5.513
  154DOPC  H14S18492   6.587   3.149   5.545
  154DOPC  C21518493   6.574   3.245   5.351
  154DOPC  H15R18494   6.594   3.142   5.316
  154DOPC  H15S18495   6.668   3.304   5.337
  154DOPC  C21618496   6.462   3.303   5.264
  154DOPC  H16R18497   6.436   3.406   5.299
  154DOPC  H16S18498   6.371   3.241   5.276
  154DOPC  C21718499   6.499   3.311   5.116
  154DOPC  H17R18500   6.514   3.208   5.077
  154DOPC  H17S18501   6.596   3.364   5.105
  154DOPC  C21818502   6.393   3.383   5.031
  154DOPC  H18R18503   6.295   3.332   5.041
  154DOPC  H18S18504   6.422   3.384   4.924
  154DOPC  H18T18505   6.381   3.487   5.066
  154DOPC   C3318506   6.343   3.578   6.225
  154DOPC   H3X18507   6.330   3.471   6.197
  154DOPC   H3Y18508   6.446   3.608   6.195
  154DOPC   C3418509   6.240   3.662   6.149
  154DOPC   H4X18510   6.248   3.767   6.183
  154DOPC   H4Y18511   6.138   3.627   6.174
  154DOPC   C3518512   6.257   3.658   5.997
  154DOPC   H5X18513   6.238   3.555   5.960
  154DOPC   H5Y18514   6.362   3.685   5.970
  154DOPC   C3618515   6.161   3.756   5.927
  154DOPC   H6X18516   6.058   3.737   5.963
  154DOPC   H6Y18517   6.187   3.860   5.956
  154DOPC   C3718518   6.162   3.744   5.774
  154DOPC   H7X18519   6.266   3.743   5.736
  154DOPC   H7Y18520   6.118   3.645   5.749
  154DOPC   C3818521   6.078   3.853   5.705
  154DOPC   H8X18522   5.992   3.877   5.770
  154DOPC   H8Y18523   6.036   3.809   5.612
  154DOPC   C3918524   6.158   3.977   5.674
  154DOPC   H9X18525   6.200   4.028   5.761
  154DOPC  C31018526   6.181   4.027   5.551
  154DOPC  H10X18527   6.243   4.118   5.542
  154DOPC  C31118528   6.132   3.970   5.421
  154DOPC  H11X18529   6.137   4.047   5.341
  154DOPC  H11Y18530   6.025   3.942   5.430
  154DOPC  C31218531   6.209   3.845   5.373
  154DOPC  H12X18532   6.158   3.806   5.282
  154DOPC  H12Y18533   6.205   3.765   5.450
  154DOPC  C31318534   6.356   3.872   5.337
  154DOPC  H13X18535   6.361   3.959   5.267
  154DOPC  H13Y18536   6.412   3.900   5.429
  154DOPC  C31418537   6.423   3.751   5.271
  154DOPC  H14X18538   6.417   3.664   5.340
  154DOPC  H14Y18539   6.367   3.725   5.179
  154DOPC  C31518540   6.570   3.777   5.234
  154DOPC  H15X18541   6.628   3.798   5.327
  154DOPC  H15Y18542   6.575   3.868   5.170
  154DOPC  C31618543   6.633   3.659   5.160
  154DOPC  H16X18544   6.634   3.570   5.226
  154DOPC  H16Y18545   6.570   3.635   5.072
  154DOPC  C31718546   6.776   3.687   5.112
  154DOPC  H17X18547   6.775   3.779   5.050
  154DOPC  H17Y18548   6.841   3.707   5.200
  154DOPC  C31818549   6.834   3.572   5.029
  154DOPC  H18X18550   6.770   3.550   4.942
  154DOPC  H18Y18551   6.936   3.598   4.992
  154DOPC  H18Z18552   6.842   3.480   5.091
  155DOPC     N18553   1.779   1.775   6.895
  155DOPC   C1218554   1.891   1.718   6.980
  155DOPC  H12A18555   1.950   1.799   7.022
  155DOPC  H12B18556   1.959   1.661   6.917
  155DOPC   C1318557   1.675   1.835   6.984
  155DOPC  H13A18558   1.630   1.760   7.047
  155DOPC  H13B18559   1.718   1.909   7.050
  155DOPC  H13C18560   1.596   1.885   6.929
  155DOPC   C1418561   1.721   1.665   6.811
  155DOPC  H14A18562   1.684   1.587   6.876
  155DOPC  H14B18563   1.640   1.701   6.749
  155DOPC  H14C18564   1.797   1.620   6.750
  155DOPC   C1518565   1.833   1.883   6.806
  155DOPC  H15A18566   1.908   1.843   6.738
  155DOPC  H15B18567   1.880   1.960   6.865
  155DOPC  H15C18568   1.754   1.929   6.748
  155DOPC   C1118569   1.852   1.622   7.097
  155DOPC  H11A18570   1.943   1.599   7.155
  155DOPC  H11B18571   1.785   1.677   7.167
  155DOPC     P18572   1.878   1.386   6.994
  155DOPC   O1318573   1.789   1.285   6.934
  155DOPC   O1418574   1.967   1.341   7.103
  155DOPC   O1218575   1.786   1.504   7.051
  155DOPC   O1118576   1.961   1.461   6.883
  155DOPC    C118577   2.042   1.388   6.791
  155DOPC    HA18578   1.980   1.350   6.707
  155DOPC    HB18579   2.091   1.300   6.839
  155DOPC    C218580   2.156   1.475   6.730
  155DOPC    HS18581   2.218   1.510   6.816
  155DOPC   O2118582   2.098   1.589   6.662
  155DOPC   C2118583   2.183   1.688   6.634
  155DOPC   O2218584   2.300   1.694   6.667
  155DOPC   C2218585   2.103   1.804   6.572
  155DOPC   H2R18586   2.091   1.878   6.655
  155DOPC   H2S18587   2.003   1.768   6.542
  155DOPC    C318588   2.248   1.389   6.638
  155DOPC    HX18589   2.291   1.308   6.702
  155DOPC    HY18590   2.336   1.448   6.604
  155DOPC   O3118591   2.174   1.327   6.530
  155DOPC   C3118592   2.171   1.398   6.418
  155DOPC   O3218593   2.226   1.506   6.401
  155DOPC   C3218594   2.088   1.327   6.311
  155DOPC   H2X18595   2.140   1.344   6.215
  155DOPC   H2Y18596   2.088   1.217   6.332
  155DOPC   C2318597   2.171   1.878   6.453
  155DOPC   H3R18598   2.282   1.880   6.463
  155DOPC   H3S18599   2.136   1.983   6.457
  155DOPC   C2418600   2.130   1.824   6.315
  155DOPC   H4R18601   2.022   1.796   6.319
  155DOPC   H4S18602   2.188   1.732   6.292
  155DOPC   C2518603   2.146   1.926   6.201
  155DOPC   H5R18604   2.252   1.954   6.189
  155DOPC   H5S18605   2.090   2.018   6.230
  155DOPC   C2618606   2.089   1.877   6.066
  155DOPC   H6R18607   2.068   1.966   6.002
  155DOPC   H6S18608   1.991   1.827   6.084
  155DOPC   C2718609   2.183   1.783   5.988
  155DOPC   H7R18610   2.222   1.708   6.060
  155DOPC   H7S18611   2.269   1.841   5.951
  155DOPC   C2818612   2.117   1.707   5.870
  155DOPC   H8R18613   2.037   1.643   5.911
  155DOPC   H8S18614   2.194   1.639   5.828
  155DOPC   C2918615   2.061   1.796   5.761
  155DOPC   H9R18616   2.033   1.897   5.794
  155DOPC  C21018617   2.043   1.764   5.632
  155DOPC  H10R18618   2.000   1.840   5.565
  155DOPC  C21118619   2.073   1.632   5.565
  155DOPC  H11R18620   1.979   1.588   5.525
  155DOPC  H11S18621   2.113   1.558   5.638
  155DOPC  C21218622   2.176   1.642   5.450
  155DOPC  H12R18623   2.202   1.539   5.417
  155DOPC  H12S18624   2.268   1.688   5.490
  155DOPC  C21318625   2.131   1.723   5.327
  155DOPC  H13R18626   2.217   1.738   5.259
  155DOPC  H13S18627   2.099   1.824   5.361
  155DOPC  C21418628   2.015   1.661   5.245
  155DOPC  H14R18629   1.954   1.745   5.205
  155DOPC  H14S18630   1.949   1.602   5.311
  155DOPC  C21518631   2.059   1.576   5.125
  155DOPC  H15R18632   2.121   1.638   5.056
  155DOPC  H15S18633   1.968   1.546   5.069
  155DOPC  C21618634   2.136   1.448   5.162
  155DOPC  H16R18635   2.084   1.401   5.248
  155DOPC  H16S18636   2.238   1.475   5.196
  155DOPC  C21718637   2.144   1.345   5.048
  155DOPC  H17R18638   2.041   1.318   5.018
  155DOPC  H17S18639   2.193   1.253   5.087
  155DOPC  C21818640   2.221   1.393   4.924
  155DOPC  H18R18641   2.170   1.480   4.878
  155DOPC  H18S18642   2.226   1.312   4.848
  155DOPC  H18T18643   2.324   1.422   4.952
  155DOPC   C3318644   1.943   1.379   6.301
  155DOPC   H3X18645   1.881   1.336   6.383
  155DOPC   H3Y18646   1.901   1.343   6.204
  155DOPC   C3418647   1.933   1.532   6.306
  155DOPC   H4X18648   2.014   1.575   6.243
  155DOPC   H4Y18649   1.952   1.564   6.411
  155DOPC   C3518650   1.799   1.590   6.260
  155DOPC   H5X18651   1.792   1.693   6.302
  155DOPC   H5Y18652   1.714   1.532   6.301
  155DOPC   C3618653   1.789   1.603   6.107
  155DOPC   H6X18654   1.891   1.627   6.069
  155DOPC   H6Y18655   1.759   1.506   6.062
  155DOPC   C3718656   1.695   1.715   6.062
  155DOPC   H7X18657   1.589   1.684   6.075
  155DOPC   H7Y18658   1.712   1.802   6.129
  155DOPC   C3818659   1.721   1.765   5.918
  155DOPC   H8X18660   1.828   1.746   5.894
  155DOPC   H8Y18661   1.710   1.876   5.918
  155DOPC   C3918662   1.631   1.709   5.812
  155DOPC   H9X18663   1.539   1.768   5.795
  155DOPC  C31018664   1.650   1.598   5.740
  155DOPC  H10X18665   1.576   1.571   5.663
  155DOPC  C31118666   1.768   1.504   5.751
  155DOPC  H11X18667   1.759   1.443   5.843
  155DOPC  H11Y18668   1.864   1.559   5.757
  155DOPC  C31218669   1.773   1.407   5.631
  155DOPC  H12X18670   1.792   1.464   5.538
  155DOPC  H12Y18671   1.675   1.356   5.620
  155DOPC  C31318672   1.880   1.297   5.648
  155DOPC  H13X18673   1.981   1.342   5.649
  155DOPC  H13Y18674   1.864   1.248   5.746
  155DOPC  C31418675   1.870   1.190   5.538
  155DOPC  H14X18676   1.930   1.101   5.568
  155DOPC  H14Y18677   1.764   1.158   5.531
  155DOPC  C31518678   1.920   1.239   5.401
  155DOPC  H15X18679   2.027   1.211   5.391
  155DOPC  H15Y18680   1.916   1.350   5.397
  155DOPC  C31618681   1.840   1.183   5.282
  155DOPC  H16X18682   1.896   1.204   5.189
  155DOPC  H16Y18683   1.833   1.073   5.293
  155DOPC  C31718684   1.699   1.242   5.267
  155DOPC  H17X18685   1.646   1.185   5.187
  155DOPC  H17Y18686   1.641   1.227   5.361
  155DOPC  C31818687   1.696   1.391   5.229
  155DOPC  H18X18688   1.591   1.425   5.213
  155DOPC  H18Y18689   1.740   1.453   5.309
  155DOPC  H18Z18690   1.753   1.408   5.135
  156DOPC     N18691   6.122   5.609   6.986
  156DOPC   C1218692   6.196   5.705   6.894
  156DOPC  H12A18693   6.160   5.690   6.793
  156DOPC  H12B18694   6.301   5.679   6.893
  156DOPC   C1318695   6.159   5.467   6.955
  156DOPC  H13A18696   6.111   5.399   7.024
  156DOPC  H13B18697   6.121   5.437   6.859
  156DOPC  H13C18698   6.265   5.449   6.957
  156DOPC   C1418699   5.974   5.622   6.965
  156DOPC  H14A18700   5.947   5.727   6.968
  156DOPC  H14B18701   5.944   5.582   6.869
  156DOPC  H14C18702   5.919   5.567   7.040
  156DOPC   C1518703   6.153   5.639   7.129
  156DOPC  H15A18704   6.096   5.575   7.195
  156DOPC  H15B18705   6.127   5.742   7.152
  156DOPC  H15C18706   6.258   5.626   7.151
  156DOPC   C1118707   6.184   5.856   6.926
  156DOPC  H11A18708   6.230   5.876   7.025
  156DOPC  H11B18709   6.243   5.912   6.851
  156DOPC     P18710   6.009   6.047   6.955
  156DOPC   O1318711   6.099   6.097   7.062
  156DOPC   O1418712   5.864   6.054   6.984
  156DOPC   O1218713   6.047   5.897   6.924
  156DOPC   O1118714   6.040   6.124   6.820
  156DOPC    C118715   5.966   6.095   6.701
  156DOPC    HA18716   5.975   6.181   6.631
  156DOPC    HB18717   5.857   6.084   6.720
  156DOPC    C218718   6.019   5.969   6.626
  156DOPC    HS18719   6.096   5.924   6.692
  156DOPC   O2118720   6.077   6.007   6.500
  156DOPC   C2118721   6.164   5.918   6.452
  156DOPC   O2218722   6.204   5.820   6.512
  156DOPC   C2218723   6.212   5.964   6.314
  156DOPC   H2R18724   6.317   5.999   6.327
  156DOPC   H2S18725   6.151   6.050   6.281
  156DOPC    C318726   5.907   5.862   6.607
  156DOPC    HX18727   5.858   5.847   6.706
  156DOPC    HY18728   5.953   5.765   6.581
  156DOPC   O3118729   5.808   5.907   6.512
  156DOPC   C3118730   5.827   5.864   6.387
  156DOPC   O3218731   5.908   5.779   6.354
  156DOPC   C3218732   5.739   5.942   6.290
  156DOPC   H2X18733   5.659   5.993   6.348
  156DOPC   H2Y18734   5.804   6.020   6.244
  156DOPC   C2318735   6.209   5.852   6.207
  156DOPC   H3R18736   6.191   5.753   6.253
  156DOPC   H3S18737   6.308   5.847   6.156
  156DOPC   C2418738   6.101   5.879   6.101
  156DOPC   H4R18739   6.123   5.974   6.048
  156DOPC   H4S18740   6.004   5.893   6.154
  156DOPC   C2518741   6.084   5.765   6.000
  156DOPC   H5R18742   5.989   5.781   5.945
  156DOPC   H5S18743   6.075   5.668   6.054
  156DOPC   C2618744   6.197   5.757   5.897
  156DOPC   H6R18745   6.294   5.733   5.947
  156DOPC   H6S18746   6.208   5.857   5.849
  156DOPC   C2718747   6.167   5.652   5.790
  156DOPC   H7R18748   6.063   5.667   5.755
  156DOPC   H7S18749   6.171   5.551   5.837
  156DOPC   C2818750   6.262   5.653   5.668
  156DOPC   H8R18751   6.237   5.567   5.603
  156DOPC   H8S18752   6.366   5.635   5.705
  156DOPC   C2918753   6.256   5.780   5.588
  156DOPC   H9R18754   6.344   5.846   5.599
  156DOPC  C21018755   6.156   5.820   5.507
  156DOPC  H10R18756   6.167   5.916   5.453
  156DOPC  C21118757   6.027   5.749   5.477
  156DOPC  H11R18758   5.944   5.822   5.478
  156DOPC  H11S18759   6.003   5.675   5.556
  156DOPC  C21218760   6.027   5.674   5.343
  156DOPC  H12R18761   5.926   5.631   5.328
  156DOPC  H12S18762   6.098   5.589   5.348
  156DOPC  C21318763   6.062   5.759   5.219
  156DOPC  H13R18764   6.041   5.697   5.129
  156DOPC  H13S18765   6.170   5.783   5.218
  156DOPC  C21418766   5.982   5.890   5.208
  156DOPC  H14R18767   6.035   5.970   5.265
  156DOPC  H14S18768   5.884   5.875   5.258
  156DOPC  C21518769   5.956   5.935   5.063
  156DOPC  H15R18770   5.894   5.857   5.014
  156DOPC  H15S18771   6.052   5.942   5.008
  156DOPC  C21618772   5.882   6.070   5.055
  156DOPC  H16R18773   5.954   6.150   5.029
  156DOPC  H16S18774   5.842   6.095   5.156
  156DOPC  C21718775   5.765   6.070   4.956
  156DOPC  H17R18776   5.706   6.164   4.971
  156DOPC  H17S18777   5.697   5.985   4.980
  156DOPC  C21818778   5.806   6.063   4.809
  156DOPC  H18R18779   5.866   5.971   4.790
  156DOPC  H18S18780   5.867   6.152   4.782
  156DOPC  H18T18781   5.717   6.061   4.743
  156DOPC   C3318782   5.679   5.851   6.180
  156DOPC   H3X18783   5.620   5.770   6.228
  156DOPC   H3Y18784   5.761   5.803   6.123
  156DOPC   C3418785   5.587   5.926   6.082
  156DOPC   H4X18786   5.498   5.962   6.137
  156DOPC   H4Y18787   5.552   5.854   6.005
  156DOPC   C3518788   5.651   6.047   6.011
  156DOPC   H5X18789   5.680   6.123   6.087
  156DOPC   H5Y18790   5.574   6.095   5.946
  156DOPC   C3618791   5.773   6.011   5.925
  156DOPC   H6X18792   5.848   5.958   5.987
  156DOPC   H6Y18793   5.742   5.942   5.843
  156DOPC   C3718794   5.841   6.135   5.864
  156DOPC   H7X18795   5.768   6.189   5.800
  156DOPC   H7Y18796   5.869   6.203   5.948
  156DOPC   C3818797   5.966   6.100   5.782
  156DOPC   H8X18798   5.934   6.038   5.696
  156DOPC   H8Y18799   6.033   6.036   5.844
  156DOPC   C3918800   6.039   6.225   5.739
  156DOPC   H9X18801   6.088   6.279   5.822
  156DOPC  C31018802   6.049   6.275   5.615
  156DOPC  H10X18803   6.105   6.368   5.599
  156DOPC  C31118804   5.987   6.215   5.490
  156DOPC  H11X18805   5.885   6.255   5.477
  156DOPC  H11Y18806   5.979   6.105   5.497
  156DOPC  C31218807   6.070   6.249   5.365
  156DOPC  H12X18808   6.071   6.358   5.348
  156DOPC  H12Y18809   6.017   6.204   5.278
  156DOPC  C31318810   6.214   6.194   5.370
  156DOPC  H13X18811   6.283   6.270   5.410
  156DOPC  H13Y18812   6.214   6.109   5.442
  156DOPC  C31418813   6.266   6.141   5.235
  156DOPC  H14X18814   6.181   6.102   5.175
  156DOPC  H14Y18815   6.311   6.224   5.176
  156DOPC  C31518816   6.368   6.028   5.250
  156DOPC  H15X18817   6.325   5.949   5.316
  156DOPC  H15Y18818   6.459   6.067   5.301
  156DOPC  C31618819   6.406   5.965   5.116
  156DOPC  H16X18820   6.315   5.923   5.067
  156DOPC  H16Y18821   6.446   6.044   5.050
  156DOPC  C31718822   6.511   5.853   5.131
  156DOPC  H17X18823   6.550   5.830   5.029
  156DOPC  H17Y18824   6.596   5.891   5.190
  156DOPC  C31818825   6.457   5.724   5.193
  156DOPC  H18X18826   6.420   5.742   5.297
  156DOPC  H18Y18827   6.373   5.683   5.133
  156DOPC  H18Z18828   6.537   5.647   5.199
  157DOPC     N18829   5.977   1.734   7.074
  157DOPC   C1218830   6.076   1.675   6.975
  157DOPC  H12A18831   6.160   1.742   6.965
  157DOPC  H12B18832   6.027   1.669   6.879
  157DOPC   C1318833   6.028   1.718   7.213
  157DOPC  H13A18834   6.122   1.770   7.227
  157DOPC  H13B18835   5.957   1.755   7.285
  157DOPC  H13C18836   6.044   1.613   7.233
  157DOPC   C1418837   5.847   1.659   7.064
  157DOPC  H14A18838   5.866   1.554   7.078
  157DOPC  H14B18839   5.775   1.691   7.138
  157DOPC  H14C18840   5.801   1.670   6.966
  157DOPC   C1518841   5.950   1.879   7.045
  157DOPC  H15A18842   5.902   1.892   6.950
  157DOPC  H15B18843   6.041   1.938   7.047
  157DOPC  H15C18844   5.884   1.920   7.120
  157DOPC   C1118845   6.133   1.533   7.006
  157DOPC  H11A18846   6.199   1.507   6.920
  157DOPC  H11B18847   6.197   1.537   7.096
  157DOPC     P18848   6.038   1.289   6.971
  157DOPC   O1318849   5.921   1.214   7.022
  157DOPC   O1418850   6.172   1.234   7.001
  157DOPC   O1218851   6.028   1.438   7.025
  157DOPC   O1118852   6.025   1.311   6.814
  157DOPC    C118853   5.926   1.402   6.765
  157DOPC    HA18854   5.965   1.506   6.770
  157DOPC    HB18855   5.833   1.397   6.826
  157DOPC    C218856   5.885   1.373   6.618
  157DOPC    HS18857   5.865   1.264   6.611
  157DOPC   O2118858   5.993   1.410   6.530
  157DOPC   C2118859   5.973   1.384   6.402
  157DOPC   O2218860   5.880   1.322   6.354
  157DOPC   C2218861   6.087   1.449   6.323
  157DOPC   H2R18862   6.181   1.400   6.359
  157DOPC   H2S18863   6.092   1.556   6.350
  157DOPC    C318864   5.753   1.449   6.582
  157DOPC    HX18865   5.681   1.437   6.666
  157DOPC    HY18866   5.706   1.399   6.495
  157DOPC   O3118867   5.776   1.588   6.548
  157DOPC   C3118868   5.778   1.674   6.648
  157DOPC   O3218869   5.749   1.651   6.764
  157DOPC   C3218870   5.831   1.808   6.598
  157DOPC   H2X18871   5.811   1.817   6.489
  157DOPC   H2Y18872   5.775   1.888   6.650
  157DOPC   C2318873   6.076   1.432   6.170
  157DOPC   H3R18874   6.047   1.329   6.143
  157DOPC   H3S18875   6.178   1.449   6.128
  157DOPC   C2418876   5.983   1.534   6.102
  157DOPC   H4R18877   6.005   1.635   6.141
  157DOPC   H4S18878   5.877   1.510   6.127
  157DOPC   C2518879   6.002   1.536   5.949
  157DOPC   H5R18880   5.974   1.437   5.906
  157DOPC   H5S18881   6.111   1.550   5.929
  157DOPC   C2618882   5.927   1.649   5.878
  157DOPC   H6R18883   5.969   1.662   5.776
  157DOPC   H6S18884   5.946   1.744   5.933
  157DOPC   C2718885   5.775   1.627   5.866
  157DOPC   H7R18886   5.731   1.723   5.832
  157DOPC   H7S18887   5.733   1.604   5.965
  157DOPC   C2818888   5.738   1.517   5.764
  157DOPC   H8R18889   5.773   1.419   5.804
  157DOPC   H8S18890   5.794   1.536   5.670
  157DOPC   C2918891   5.589   1.512   5.740
  157DOPC   H9R18892   5.527   1.535   5.828
  157DOPC  C21018893   5.528   1.480   5.625
  157DOPC  H10R18894   5.418   1.480   5.622
  157DOPC  C21118895   5.595   1.442   5.495
  157DOPC  H11R18896   5.628   1.336   5.504
  157DOPC  H11S18897   5.687   1.502   5.477
  157DOPC  C21218898   5.503   1.453   5.371
  157DOPC  H12R18899   5.528   1.546   5.316
  157DOPC  H12S18900   5.397   1.462   5.403
  157DOPC  C21318901   5.510   1.332   5.276
  157DOPC  H13R18902   5.440   1.349   5.191
  157DOPC  H13S18903   5.472   1.243   5.331
  157DOPC  C21418904   5.648   1.299   5.217
  157DOPC  H14R18905   5.723   1.291   5.299
  157DOPC  H14S18906   5.680   1.380   5.148
  157DOPC  C21518907   5.644   1.166   5.141
  157DOPC  H15R18908   5.567   1.170   5.061
  157DOPC  H15S18909   5.613   1.087   5.213
  157DOPC  C21618910   5.779   1.125   5.081
  157DOPC  H16R18911   5.857   1.144   5.158
  157DOPC  H16S18912   5.803   1.189   4.993
  157DOPC  C21718913   5.783   0.977   5.042
  157DOPC  H17R18914   5.712   0.959   4.959
  157DOPC  H17S18915   5.747   0.917   5.129
  157DOPC  C21818916   5.922   0.926   5.002
  157DOPC  H18R18917   5.920   0.817   4.982
  157DOPC  H18S18918   5.995   0.944   5.084
  157DOPC  H18T18919   5.959   0.978   4.911
  157DOPC   C3318920   5.982   1.824   6.626
  157DOPC   H3X18921   6.039   1.751   6.565
  157DOPC   H3Y18922   6.002   1.801   6.733
  157DOPC   C3418923   6.035   1.965   6.600
  157DOPC   H4X18924   6.143   1.968   6.623
  157DOPC   H4Y18925   5.985   2.037   6.669
  157DOPC   C3518926   6.015   2.016   6.456
  157DOPC   H5X18927   6.064   2.115   6.449
  157DOPC   H5Y18928   5.907   2.031   6.434
  157DOPC   C3618929   6.076   1.925   6.348
  157DOPC   H6X18930   6.170   1.881   6.388
  157DOPC   H6Y18931   6.007   1.841   6.326
  157DOPC   C3718932   6.112   1.999   6.218
  157DOPC   H7X18933   6.195   2.068   6.241
  157DOPC   H7Y18934   6.150   1.926   6.143
  157DOPC   C3818935   5.998   2.083   6.156
  157DOPC   H8X18936   6.045   2.147   6.079
  157DOPC   H8Y18937   5.958   2.153   6.233
  157DOPC   C3918938   5.886   2.000   6.099
  157DOPC   H9X18939   5.850   1.919   6.165
  157DOPC  C31018940   5.828   2.016   5.978
  157DOPC  H10X18941   5.748   1.946   5.948
  157DOPC  C31118942   5.863   2.120   5.874
  157DOPC  H11X18943   5.933   2.196   5.914
  157DOPC  H11Y18944   5.772   2.175   5.843
  157DOPC  C31218945   5.928   2.059   5.749
  157DOPC  H12X18946   6.012   1.991   5.777
  157DOPC  H12Y18947   5.973   2.142   5.690
  157DOPC  C31318948   5.828   1.985   5.658
  157DOPC  H13X18949   5.803   1.887   5.702
  157DOPC  H13Y18950   5.734   2.045   5.654
  157DOPC  C31418951   5.878   1.967   5.514
  157DOPC  H14X18952   5.798   1.918   5.455
  157DOPC  H14Y18953   5.896   2.067   5.469
  157DOPC  C31518954   6.005   1.882   5.503
  157DOPC  H15X18955   5.985   1.781   5.543
  157DOPC  H15Y18956   6.086   1.928   5.563
  157DOPC  C31618957   6.052   1.871   5.357
  157DOPC  H16X18958   5.969   1.831   5.295
  157DOPC  H16Y18959   6.076   1.973   5.319
  157DOPC  C31718960   6.174   1.781   5.340
  157DOPC  H17X18961   6.259   1.822   5.400
  157DOPC  H17Y18962   6.151   1.680   5.381
  157DOPC  C31818963   6.217   1.767   5.194
  157DOPC  H18X18964   6.134   1.726   5.133
  157DOPC  H18Y18965   6.246   1.866   5.153
  157DOPC  H18Z18966   6.304   1.699   5.185
  158DOPC     N18967   4.236   7.138   6.923
  158DOPC   C1218968   4.122   7.138   6.822
  158DOPC  H12A18969   4.053   7.057   6.844
  158DOPC  H12B18970   4.162   7.120   6.724
  158DOPC   C1318971   4.313   7.010   6.916
  158DOPC  H13A18972   4.251   6.925   6.941
  158DOPC  H13B18973   4.355   6.996   6.818
  158DOPC  H13C18974   4.397   7.011   6.985
  158DOPC   C1418975   4.180   7.154   7.062
  158DOPC  H14A18976   4.258   7.166   7.135
  158DOPC  H14B18977   4.116   7.241   7.064
  158DOPC  H14C18978   4.118   7.070   7.089
  158DOPC   C1518979   4.329   7.253   6.897
  158DOPC  H15A18980   4.277   7.347   6.900
  158DOPC  H15B18981   4.378   7.246   6.801
  158DOPC  H15C18982   4.409   7.258   6.970
  158DOPC   C1118983   4.034   7.265   6.816
  158DOPC  H11A18984   4.098   7.356   6.809
  158DOPC  H11B18985   3.975   7.262   6.722
  158DOPC     P18986   3.808   7.208   6.932
  158DOPC   O1318987   3.762   7.195   7.073
  158DOPC   O1418988   3.814   7.085   6.852
  158DOPC   O1218989   3.951   7.277   6.932
  158DOPC   O1118990   3.713   7.313   6.863
  158DOPC    C118991   3.755   7.434   6.799
  158DOPC    HA18992   3.865   7.452   6.805
  158DOPC    HB18993   3.708   7.521   6.848
  158DOPC    C218994   3.715   7.435   6.649
  158DOPC    HS18995   3.604   7.444   6.647
  158DOPC   O2118996   3.763   7.317   6.583
  158DOPC   C2118997   3.673   7.251   6.512
  158DOPC   O2218998   3.552   7.263   6.524
  158DOPC   C2218999   3.743   7.168   6.404
  158DOPC   H2R19000   3.800   7.238   6.341
  158DOPC   H2S19001   3.664   7.121   6.341
  158DOPC    C319002   3.772   7.559   6.577
  158DOPC    HX19003   3.727   7.649   6.623
  158DOPC    HY19004   3.738   7.557   6.471
  158DOPC   O3119005   3.916   7.568   6.589
  158DOPC   C3119006   3.985   7.501   6.497
  158DOPC   O3219007   3.938   7.445   6.400
  158DOPC   C3219008   4.134   7.506   6.530
  158DOPC   H2X19009   4.177   7.594   6.477
  158DOPC   H2Y19010   4.147   7.521   6.640
  158DOPC   C2319011   3.839   7.060   6.459
  158DOPC   H3R19012   3.780   6.978   6.506
  158DOPC   H3S19013   3.904   7.104   6.538
  158DOPC   C2419014   3.930   6.999   6.350
  158DOPC   H4R19015   3.994   6.922   6.399
  158DOPC   H4S19016   3.998   7.078   6.310
  158DOPC   C2519017   3.855   6.933   6.234
  158DOPC   H5R19018   3.751   6.911   6.266
  158DOPC   H5S19019   3.903   6.836   6.210
  158DOPC   C2619020   3.851   7.017   6.105
  158DOPC   H6R19021   3.956   7.035   6.071
  158DOPC   H6S19022   3.806   7.116   6.128
  158DOPC   C2719023   3.770   6.950   5.993
  158DOPC   H7R19024   3.667   6.933   6.032
  158DOPC   H7S19025   3.813   6.850   5.970
  158DOPC   C2819026   3.759   7.034   5.865
  158DOPC   H8R19027   3.724   7.136   5.893
  158DOPC   H8S19028   3.680   6.989   5.801
  158DOPC   C2919029   3.888   7.043   5.787
  158DOPC   H9R19030   3.978   7.011   5.842
  158DOPC  C21019031   3.901   7.086   5.660
  158DOPC  H10R19032   4.001   7.089   5.614
  158DOPC  C21119033   3.788   7.133   5.571
  158DOPC  H11R19034   3.692   7.084   5.598
  158DOPC  H11S19035   3.809   7.105   5.465
  158DOPC  C21219036   3.768   7.285   5.580
  158DOPC  H12R19037   3.860   7.338   5.546
  158DOPC  H12S19038   3.751   7.312   5.686
  158DOPC  C21319039   3.647   7.336   5.499
  158DOPC  H13R19040   3.629   7.442   5.527
  158DOPC  H13S19041   3.557   7.278   5.529
  158DOPC  C21419042   3.662   7.330   5.346
  158DOPC  H14R19043   3.571   7.374   5.302
  158DOPC  H14S19044   3.668   7.224   5.312
  158DOPC  C21519045   3.784   7.407   5.293
  158DOPC  H15R19046   3.874   7.341   5.298
  158DOPC  H15S19047   3.803   7.494   5.359
  158DOPC  C21619048   3.764   7.460   5.151
  158DOPC  H16R19049   3.674   7.524   5.150
  158DOPC  H16S19050   3.745   7.375   5.081
  158DOPC  C21719051   3.882   7.543   5.100
  158DOPC  H17R19052   3.970   7.477   5.087
  158DOPC  H17S19053   3.909   7.618   5.178
  158DOPC  C21819054   3.852   7.617   4.970
  158DOPC  H18R19055   3.941   7.676   4.936
  158DOPC  H18S19056   3.768   7.688   4.985
  158DOPC  H18T19057   3.824   7.546   4.890
  158DOPC   C3319058   4.206   7.378   6.484
  158DOPC   H3X19059   4.187   7.363   6.375
  158DOPC   H3Y19060   4.165   7.289   6.537
  158DOPC   C3419061   4.358   7.384   6.505
  158DOPC   H4X19062   4.380   7.403   6.612
  158DOPC   H4Y19063   4.399   7.470   6.448
  158DOPC   C3519064   4.432   7.256   6.462
  158DOPC   H5X19065   4.402   7.173   6.530
  158DOPC   H5Y19066   4.541   7.272   6.475
  158DOPC   C3619067   4.406   7.212   6.317
  158DOPC   H6X19068   4.466   7.120   6.296
  158DOPC   H6Y19069   4.299   7.184   6.304
  158DOPC   C3719070   4.442   7.319   6.212
  158DOPC   H7X19071   4.384   7.411   6.229
  158DOPC   H7Y19072   4.549   7.345   6.228
  158DOPC   C3819073   4.425   7.272   6.067
  158DOPC   H8X19074   4.475   7.173   6.056
  158DOPC   H8Y19075   4.479   7.343   6.001
  158DOPC   C3919076   4.281   7.263   6.022
  158DOPC   H9X19077   4.209   7.317   6.086
  158DOPC  C31019078   4.237   7.197   5.914
  158DOPC  H10X19079   4.129   7.201   5.890
  158DOPC  C31119080   4.322   7.120   5.815
  158DOPC  H11X19081   4.263   7.037   5.772
  158DOPC  H11Y19082   4.409   7.074   5.866
  158DOPC  C31219083   4.376   7.207   5.699
  158DOPC  H12X19084   4.439   7.143   5.635
  158DOPC  H12Y19085   4.440   7.287   5.741
  158DOPC  C31319086   4.266   7.271   5.612
  158DOPC  H13X19087   4.199   7.193   5.572
  158DOPC  H13Y19088   4.204   7.337   5.677
  158DOPC  C31419089   4.322   7.357   5.497
  158DOPC  H14X19090   4.240   7.420   5.457
  158DOPC  H14Y19091   4.398   7.426   5.539
  158DOPC  C31519092   4.385   7.278   5.381
  158DOPC  H15X19093   4.469   7.217   5.421
  158DOPC  H15Y19094   4.428   7.351   5.309
  158DOPC  C31619095   4.289   7.186   5.304
  158DOPC  H16X19096   4.347   7.133   5.225
  158DOPC  H16Y19097   4.249   7.108   5.372
  158DOPC  C31719098   4.172   7.260   5.237
  158DOPC  H17X19099   4.109   7.308   5.316
  158DOPC  H17Y19100   4.213   7.341   5.173
  158DOPC  C31819101   4.083   7.169   5.152
  158DOPC  H18X19102   4.142   7.122   5.070
  158DOPC  H18Y19103   4.039   7.088   5.214
  158DOPC  H18Z19104   4.000   7.227   5.106
  159DOPC     N19105   6.624   2.057   7.174
  159DOPC   C1219106   6.688   2.012   7.043
  159DOPC  H12A19107   6.628   1.932   7.000
  159DOPC  H12B19108   6.786   1.972   7.063
  159DOPC   C1319109   6.636   1.949   7.277
  159DOPC  H13A19110   6.603   1.985   7.373
  159DOPC  H13B19111   6.576   1.863   7.251
  159DOPC  H13C19112   6.739   1.917   7.287
  159DOPC   C1419113   6.478   2.085   7.152
  159DOPC  H14A19114   6.427   1.997   7.116
  159DOPC  H14B19115   6.428   2.122   7.240
  159DOPC  H14C19116   6.468   2.159   7.074
  159DOPC   C1519117   6.690   2.182   7.222
  159DOPC  H15A19118   6.796   2.166   7.237
  159DOPC  H15B19119   6.646   2.217   7.314
  159DOPC  H15C19120   6.678   2.259   7.147
  159DOPC   C1119121   6.702   2.117   6.930
  159DOPC  H11A19122   6.768   2.200   6.964
  159DOPC  H11B19123   6.753   2.070   6.844
  159DOPC     P19124   6.479   2.086   6.799
  159DOPC   O1319125   6.342   2.138   6.822
  159DOPC   O1419126   6.501   1.942   6.827
  159DOPC   O1219127   6.575   2.171   6.893
  159DOPC   O1119128   6.531   2.125   6.654
  159DOPC    C119129   6.569   2.259   6.623
  159DOPC    HA19130   6.587   2.321   6.713
  159DOPC    HB19131   6.487   2.309   6.567
  159DOPC    C219132   6.699   2.272   6.536
  159DOPC    HS19133   6.748   2.364   6.573
  159DOPC   O2119134   6.659   2.288   6.398
  159DOPC   C2119135   6.750   2.349   6.324
  159DOPC   O2219136   6.855   2.395   6.365
  159DOPC   C2219137   6.699   2.359   6.180
  159DOPC   H2R19138   6.615   2.432   6.180
  159DOPC   H2S19139   6.660   2.260   6.151
  159DOPC    C319140   6.802   2.155   6.553
  159DOPC    HX19141   6.828   2.151   6.661
  159DOPC    HY19142   6.896   2.180   6.499
  159DOPC   O3119143   6.752   2.025   6.515
  159DOPC   C3119144   6.767   1.992   6.388
  159DOPC   O3219145   6.823   2.058   6.302
  159DOPC   C3219146   6.706   1.853   6.367
  159DOPC   H2X19147   6.757   1.783   6.436
  159DOPC   H2Y19148   6.599   1.860   6.398
  159DOPC   C2319149   6.807   2.406   6.080
  159DOPC   H3R19150   6.884   2.326   6.070
  159DOPC   H3S19151   6.858   2.497   6.119
  159DOPC   C2419152   6.751   2.440   5.941
  159DOPC   H4R19153   6.836   2.474   5.876
  159DOPC   H4S19154   6.681   2.526   5.950
  159DOPC   C2519155   6.679   2.323   5.872
  159DOPC   H5R19156   6.592   2.293   5.934
  159DOPC   H5S19157   6.747   2.236   5.865
  159DOPC   C2619158   6.625   2.358   5.731
  159DOPC   H6R19159   6.558   2.446   5.740
  159DOPC   H6S19160   6.564   2.273   5.695
  159DOPC   C2719161   6.733   2.389   5.625
  159DOPC   H7R19162   6.791   2.479   5.656
  159DOPC   H7S19163   6.680   2.414   5.531
  159DOPC   C2819164   6.828   2.271   5.599
  159DOPC   H8R19165   6.766   2.182   5.577
  159DOPC   H8S19166   6.885   2.251   5.692
  159DOPC   C2919167   6.922   2.295   5.483
  159DOPC   H9R19168   6.895   2.378   5.416
  159DOPC  C21019169   7.032   2.222   5.457
  159DOPC  H10R19170   7.094   2.247   5.370
  159DOPC  C21119171   7.080   2.106   5.540
  159DOPC  H11R19172   7.053   2.122   5.647
  159DOPC  H11S19173   7.191   2.101   5.538
  159DOPC  C21219174   7.023   1.969   5.498
  159DOPC  H12R19175   6.916   1.978   5.470
  159DOPC  H12S19176   7.028   1.903   5.588
  159DOPC  C21319177   7.102   1.899   5.387
  159DOPC  H13R19178   7.209   1.897   5.416
  159DOPC  H13S19179   7.093   1.956   5.292
  159DOPC  C21419180   7.054   1.754   5.365
  159DOPC  H14R19181   6.958   1.756   5.309
  159DOPC  H14S19182   7.034   1.709   5.464
  159DOPC  C21519183   7.156   1.664   5.294
  159DOPC  H15R19184   7.114   1.562   5.286
  159DOPC  H15S19185   7.248   1.657   5.357
  159DOPC  C21619186   7.198   1.712   5.153
  159DOPC  H16R19187   7.269   1.637   5.111
  159DOPC  H16S19188   7.253   1.808   5.162
  159DOPC  C21719189   7.082   1.728   5.055
  159DOPC  H17R19190   7.019   1.814   5.086
  159DOPC  H17S19191   7.018   1.637   5.059
  159DOPC  C21819192   7.128   1.748   4.910
  159DOPC  H18R19193   7.189   1.662   4.877
  159DOPC  H18S19194   7.189   1.840   4.901
  159DOPC  H18T19195   7.041   1.757   4.842
  159DOPC   C3319196   6.714   1.801   6.222
  159DOPC   H3X19197   6.668   1.874   6.152
  159DOPC   H3Y19198   6.654   1.707   6.216
  159DOPC   C3419199   6.857   1.769   6.176
  159DOPC   H4X19200   6.910   1.714   6.257
  159DOPC   H4Y19201   6.912   1.863   6.159
  159DOPC   C3519202   6.862   1.682   6.049
  159DOPC   H5X19203   6.817   1.583   6.071
  159DOPC   H5Y19204   6.968   1.666   6.021
  159DOPC   C3619205   6.786   1.739   5.928
  159DOPC   H6X19206   6.803   1.670   5.842
  159DOPC   H6Y19207   6.677   1.740   5.948
  159DOPC   C3719208   6.831   1.880   5.886
  159DOPC   H7X19209   6.796   1.954   5.961
  159DOPC   H7Y19210   6.942   1.882   5.887
  159DOPC   C3819211   6.784   1.919   5.745
  159DOPC   H8X19212   6.830   1.847   5.674
  159DOPC   H8Y19213   6.826   2.019   5.721
  159DOPC   C3919214   6.634   1.922   5.729
  159DOPC   H9X19215   6.583   2.003   5.783
  159DOPC  C31019216   6.560   1.836   5.655
  159DOPC  H10X19217   6.452   1.851   5.648
  159DOPC  C31119218   6.615   1.721   5.574
  159DOPC  H11X19219   6.537   1.642   5.563
  159DOPC  H11Y19220   6.700   1.673   5.628
  159DOPC  C31219221   6.665   1.762   5.435
  159DOPC  H12X19222   6.720   1.676   5.390
  159DOPC  H12Y19223   6.738   1.846   5.445
  159DOPC  C31319224   6.552   1.803   5.339
  159DOPC  H13X19225   6.482   1.717   5.331
  159DOPC  H13Y19226   6.496   1.888   5.381
  159DOPC  C31419227   6.601   1.839   5.197
  159DOPC  H14X19228   6.656   1.752   5.155
  159DOPC  H14Y19229   6.512   1.857   5.133
  159DOPC  C31519230   6.692   1.963   5.190
  159DOPC  H15X19231   6.720   1.978   5.084
  159DOPC  H15Y19232   6.786   1.944   5.247
  159DOPC  C31619233   6.626   2.091   5.242
  159DOPC  H16X19234   6.526   2.104   5.195
  159DOPC  H16Y19235   6.611   2.082   5.351
  159DOPC  C31719236   6.710   2.217   5.215
  159DOPC  H17X19237   6.668   2.301   5.275
  159DOPC  H17Y19238   6.813   2.199   5.252
  159DOPC  C31819239   6.717   2.260   5.068
  159DOPC  H18X19240   6.614   2.275   5.028
  159DOPC  H18Y19241   6.773   2.356   5.058
  159DOPC  H18Z19242   6.768   2.183   5.007
  160DOPC     N19243   1.881   6.978   7.064
  160DOPC   C1219244   1.791   6.858   7.085
  160DOPC  H12A19245   1.749   6.829   6.990
  160DOPC  H12B19246   1.710   6.887   7.151
  160DOPC   C1319247   2.004   6.940   6.988
  160DOPC  H13A19248   2.059   6.865   7.043
  160DOPC  H13B19249   1.977   6.893   6.895
  160DOPC  H13C19250   2.066   7.026   6.967
  160DOPC   C1419251   1.919   7.036   7.197
  160DOPC  H14A19252   1.976   6.964   7.254
  160DOPC  H14B19253   1.977   7.126   7.188
  160DOPC  H14C19254   1.831   7.059   7.255
  160DOPC   C1519255   1.809   7.082   6.986
  160DOPC  H15A19256   1.875   7.166   6.967
  160DOPC  H15B19257   1.722   7.120   7.037
  160DOPC  H15C19258   1.779   7.045   6.889
  160DOPC   C1119259   1.856   6.730   7.142
  160DOPC  H11A19260   1.914   6.755   7.233
  160DOPC  H11B19261   1.777   6.658   7.175
  160DOPC     P19262   1.889   6.603   6.915
  160DOPC   O1319263   1.749   6.560   6.936
  160DOPC   O1419264   1.989   6.501   6.876
  160DOPC   O1219265   1.943   6.669   7.048
  160DOPC   O1119266   1.887   6.727   6.814
  160DOPC    C119267   1.874   6.697   6.675
  160DOPC    HA19268   1.799   6.617   6.657
  160DOPC    HB19269   1.971   6.660   6.634
  160DOPC    C219270   1.824   6.817   6.588
  160DOPC    HS19271   1.796   6.777   6.488
  160DOPC   O2119272   1.925   6.919   6.575
  160DOPC   C2119273   2.013   6.892   6.479
  160DOPC   O2219274   2.028   6.784   6.426
  160DOPC   C2219275   2.082   7.022   6.441
  160DOPC   H2R19276   2.169   7.033   6.508
  160DOPC   H2S19277   2.012   7.106   6.459
  160DOPC    C319278   1.697   6.886   6.645
  160DOPC    HX19279   1.725   6.928   6.744
  160DOPC    HY19280   1.619   6.810   6.664
  160DOPC   O3119281   1.653   6.994   6.559
  160DOPC   C3119282   1.570   6.956   6.460
  160DOPC   O3219283   1.522   6.845   6.450
  160DOPC   C3219284   1.538   7.071   6.367
  160DOPC   H2X19285   1.428   7.088   6.373
  160DOPC   H2Y19286   1.588   7.163   6.403
  160DOPC   C2319287   2.130   7.029   6.294
  160DOPC   H3R19288   2.199   6.945   6.270
  160DOPC   H3S19289   2.190   7.122   6.282
  160DOPC   C2419290   2.018   7.035   6.188
  160DOPC   H4R19291   2.065   7.065   6.092
  160DOPC   H4S19292   1.943   7.112   6.214
  160DOPC   C2519293   1.948   6.900   6.163
  160DOPC   H5R19294   1.872   6.881   6.242
  160DOPC   H5S19295   2.024   6.819   6.169
  160DOPC   C2619296   1.881   6.891   6.025
  160DOPC   H6R19297   1.960   6.906   5.949
  160DOPC   H6S19298   1.807   6.972   6.014
  160DOPC   C2719299   1.812   6.755   6.004
  160DOPC   H7R19300   1.731   6.745   6.079
  160DOPC   H7S19301   1.884   6.673   6.023
  160DOPC   C2819302   1.750   6.737   5.863
  160DOPC   H8R19303   1.676   6.818   5.848
  160DOPC   H8S19304   1.693   6.641   5.863
  160DOPC   C2919305   1.854   6.739   5.754
  160DOPC   H9R19306   1.927   6.821   5.761
  160DOPC  C21019307   1.864   6.657   5.648
  160DOPC  H10R19308   1.946   6.675   5.576
  160DOPC  C21119309   1.774   6.541   5.611
  160DOPC  H11R19310   1.692   6.527   5.684
  160DOPC  H11S19311   1.833   6.447   5.609
  160DOPC  C21219312   1.713   6.563   5.471
  160DOPC  H12R19313   1.661   6.471   5.438
  160DOPC  H12S19314   1.794   6.582   5.398
  160DOPC  C21319315   1.612   6.679   5.466
  160DOPC  H13R19316   1.660   6.770   5.508
  160DOPC  H13S19317   1.525   6.656   5.530
  160DOPC  C21419318   1.566   6.711   5.324
  160DOPC  H14R19319   1.504   6.628   5.284
  160DOPC  H14S19320   1.656   6.721   5.259
  160DOPC  C21519321   1.487   6.842   5.316
  160DOPC  H15R19322   1.543   6.919   5.373
  160DOPC  H15S19323   1.388   6.829   5.365
  160DOPC  C21619324   1.468   6.892   5.172
  160DOPC  H16R19325   1.418   6.812   5.112
  160DOPC  H16S19326   1.568   6.910   5.127
  160DOPC  C21719327   1.385   7.021   5.162
  160DOPC  H17R19328   1.283   7.001   5.201
  160DOPC  H17S19329   1.374   7.048   5.055
  160DOPC  C21819330   1.444   7.142   5.235
  160DOPC  H18R19331   1.386   7.233   5.213
  160DOPC  H18S19332   1.549   7.158   5.204
  160DOPC  H18T19333   1.443   7.126   5.345
  160DOPC   C3319334   1.574   7.047   6.218
  160DOPC   H3X19335   1.521   6.957   6.180
  160DOPC   H3Y19336   1.683   7.029   6.208
  160DOPC   C3419337   1.535   7.170   6.134
  160DOPC   H4X19338   1.593   7.257   6.173
  160DOPC   H4Y19339   1.428   7.193   6.150
  160DOPC   C3519340   1.562   7.158   5.984
  160DOPC   H5X19341   1.667   7.125   5.967
  160DOPC   H5Y19342   1.553   7.260   5.941
  160DOPC   C3619343   1.463   7.067   5.909
  160DOPC   H6X19344   1.485   6.960   5.928
  160DOPC   H6Y19345   1.362   7.089   5.950
  160DOPC   C3719346   1.455   7.095   5.757
  160DOPC   H7X19347   1.353   7.066   5.724
  160DOPC   H7Y19348   1.465   7.204   5.739
  160DOPC   C3819349   1.554   7.017   5.668
  160DOPC   H8X19350   1.522   7.033   5.563
  160DOPC   H8Y19351   1.541   6.908   5.688
  160DOPC   C3919352   1.698   7.057   5.689
  160DOPC   H9X19353   1.736   7.038   5.791
  160DOPC  C31019354   1.784   7.107   5.599
  160DOPC  H10X19355   1.886   7.132   5.631
  160DOPC  C31119356   1.758   7.137   5.453
  160DOPC  H11X19357   1.747   7.246   5.438
  160DOPC  H11Y19358   1.663   7.090   5.418
  160DOPC  C31219359   1.871   7.085   5.363
  160DOPC  H12X19360   1.965   7.140   5.385
  160DOPC  H12Y19361   1.844   7.107   5.258
  160DOPC  C31319362   1.897   6.935   5.377
  160DOPC  H13X19363   1.931   6.912   5.480
  160DOPC  H13Y19364   1.802   6.880   5.360
  160DOPC  C31419365   2.003   6.880   5.279
  160DOPC  H14X19366   2.099   6.934   5.293
  160DOPC  H14Y19367   2.020   6.774   5.306
  160DOPC  C31519368   1.959   6.889   5.132
  160DOPC  H15X19369   1.963   6.995   5.099
  160DOPC  H15Y19370   1.852   6.858   5.125
  160DOPC  C31619371   2.043   6.804   5.036
  160DOPC  H16X19372   2.002   6.816   4.934
  160DOPC  H16Y19373   2.147   6.842   5.035
  160DOPC  C31719374   2.045   6.653   5.070
  160DOPC  H17X19375   2.094   6.599   4.986
  160DOPC  H17Y19376   2.108   6.637   5.159
  160DOPC  C31819377   1.907   6.593   5.096
  160DOPC  H18X19378   1.914   6.483   5.107
  160DOPC  H18Y19379   1.862   6.635   5.188
  160DOPC  H18Z19380   1.839   6.615   5.011
  161DOPC     N19381   3.939   0.310   7.164
  161DOPC   C1219382   3.876   0.352   7.032
  161DOPC  H12A19383   3.921   0.446   7.002
  161DOPC  H12B19384   3.771   0.373   7.048
  161DOPC   C1319385   4.087   0.294   7.144
  161DOPC  H13A19386   4.130   0.386   7.109
  161DOPC  H13B19387   4.140   0.264   7.234
  161DOPC  H13C19388   4.106   0.223   7.065
  161DOPC   C1419389   3.880   0.182   7.214
  161DOPC  H14A19390   3.895   0.104   7.141
  161DOPC  H14B19391   3.928   0.150   7.306
  161DOPC  H14C19392   3.774   0.191   7.234
  161DOPC   C1519393   3.919   0.420   7.264
  161DOPC  H15A19394   3.815   0.440   7.283
  161DOPC  H15B19395   3.964   0.511   7.227
  161DOPC  H15C19396   3.967   0.397   7.358
  161DOPC   C1119397   3.891   0.258   6.909
  161DOPC  H11A19398   3.855   0.157   6.936
  161DOPC  H11B19399   3.826   0.296   6.828
  161DOPC     P19400   4.100   0.375   6.803
  161DOPC   O1319401   4.232   0.386   6.868
  161DOPC   O1419402   4.011   0.493   6.819
  161DOPC   O1219403   4.026   0.249   6.865
  161DOPC   O1119404   4.117   0.337   6.650
  161DOPC    C119405   4.004   0.294   6.574
  161DOPC    HA19406   3.938   0.380   6.551
  161DOPC    HB19407   3.945   0.218   6.631
  161DOPC    C219408   4.044   0.226   6.440
  161DOPC    HS19409   4.125   0.152   6.461
  161DOPC   O2119410   4.089   0.327   6.348
  161DOPC   C2119411   4.140   0.282   6.235
  161DOPC   O2219412   4.195   0.175   6.218
  161DOPC   C2219413   4.107   0.382   6.123
  161DOPC   H2R19414   4.106   0.326   6.028
  161DOPC   H2S19415   4.188   0.458   6.121
  161DOPC    C319416   3.921   0.151   6.380
  161DOPC    HX19417   3.850   0.229   6.343
  161DOPC    HY19418   3.871   0.098   6.464
  161DOPC   O3119419   3.957   0.059   6.276
  161DOPC   C3119420   3.854  -0.006   6.223
  161DOPC   O3219421   3.738   0.005   6.260
  161DOPC   C3219422   3.901  -0.100   6.112
  161DOPC   H2X19423   3.989  -0.155   6.150
  161DOPC   H2Y19424   3.819  -0.173   6.093
  161DOPC   C2319425   3.969   0.449   6.147
  161DOPC   H3R19426   3.973   0.505   6.243
  161DOPC   H3S19427   3.890   0.371   6.159
  161DOPC   C2419428   3.926   0.549   6.039
  161DOPC   H4R19429   4.012   0.585   5.979
  161DOPC   H4S19430   3.885   0.636   6.096
  161DOPC   C2519431   3.812   0.499   5.949
  161DOPC   H5R19432   3.745   0.438   6.013
  161DOPC   H5S19433   3.850   0.434   5.868
  161DOPC   C2619434   3.726   0.614   5.892
  161DOPC   H6R19435   3.725   0.698   5.965
  161DOPC   H6S19436   3.621   0.579   5.883
  161DOPC   C2719437   3.774   0.666   5.755
  161DOPC   H7R19438   3.885   0.671   5.757
  161DOPC   H7S19439   3.736   0.769   5.740
  161DOPC   C2819440   3.727   0.577   5.638
  161DOPC   H8R19441   3.753   0.472   5.660
  161DOPC   H8S19442   3.786   0.607   5.548
  161DOPC   C2919443   3.578   0.590   5.612
  161DOPC   H9R19444   3.514   0.586   5.701
  161DOPC  C21019445   3.520   0.603   5.491
  161DOPC  H10R19446   3.411   0.611   5.485
  161DOPC  C21119447   3.594   0.606   5.360
  161DOPC  H11R19448   3.661   0.518   5.352
  161DOPC  H11S19449   3.658   0.697   5.354
  161DOPC  C21219450   3.498   0.607   5.239
  161DOPC  H12R19451   3.437   0.700   5.243
  161DOPC  H12S19452   3.429   0.520   5.244
  161DOPC  C21319453   3.574   0.603   5.106
  161DOPC  H13R19454   3.661   0.672   5.112
  161DOPC  H13S19455   3.507   0.642   5.026
  161DOPC  C21419456   3.623   0.463   5.066
  161DOPC  H14R19457   3.536   0.396   5.046
  161DOPC  H14S19458   3.678   0.420   5.153
  161DOPC  C21519459   3.719   0.465   4.946
  161DOPC  H15R19460   3.773   0.368   4.941
  161DOPC  H15S19461   3.793   0.544   4.966
  161DOPC  C21619462   3.654   0.495   4.810
  161DOPC  H16R19463   3.735   0.518   4.737
  161DOPC  H16S19464   3.591   0.586   4.820
  161DOPC  C21719465   3.569   0.380   4.752
  161DOPC  H17R19466   3.514   0.420   4.664
  161DOPC  H17S19467   3.494   0.350   4.827
  161DOPC  C21819468   3.651   0.259   4.708
  161DOPC  H18R19469   3.585   0.182   4.662
  161DOPC  H18S19470   3.703   0.212   4.794
  161DOPC  H18T19471   3.728   0.288   4.633
  161DOPC   C3319472   3.937  -0.025   5.982
  161DOPC   H3X19473   3.972  -0.101   5.908
  161DOPC   H3Y19474   4.022   0.044   6.000
  161DOPC   C3419475   3.818   0.051   5.921
  161DOPC   H4X19476   3.800   0.142   5.981
  161DOPC   H4Y19477   3.727  -0.013   5.929
  161DOPC   C3519478   3.837   0.090   5.774
  161DOPC   H5X19479   3.749   0.150   5.742
  161DOPC   H5Y19480   3.840  -0.002   5.711
  161DOPC   C3619481   3.964   0.172   5.747
  161DOPC   H6X19482   3.966   0.259   5.815
  161DOPC   H6Y19483   4.053   0.109   5.768
  161DOPC   C3719484   3.972   0.220   5.601
  161DOPC   H7X19485   3.983   0.130   5.536
  161DOPC   H7Y19486   3.877   0.270   5.572
  161DOPC   C3819487   4.092   0.314   5.574
  161DOPC   H8X19488   4.111   0.312   5.464
  161DOPC   H8Y19489   4.182   0.272   5.623
  161DOPC   C3919490   4.068   0.454   5.624
  161DOPC   H9X19491   4.038   0.462   5.729
  161DOPC  C31019492   4.078   0.567   5.550
  161DOPC  H10X19493   4.056   0.663   5.598
  161DOPC  C31119494   4.117   0.574   5.405
  161DOPC  H11X19495   4.194   0.497   5.382
  161DOPC  H11Y19496   4.163   0.672   5.383
  161DOPC  C31219497   3.998   0.553   5.308
  161DOPC  H12X19498   3.935   0.645   5.307
  161DOPC  H12Y19499   3.935   0.470   5.344
  161DOPC  C31319500   4.043   0.518   5.165
  161DOPC  H13X19501   4.091   0.418   5.167
  161DOPC  H13Y19502   3.952   0.510   5.101
  161DOPC  C31419503   4.141   0.619   5.102
  161DOPC  H14X19504   4.097   0.721   5.102
  161DOPC  H14Y19505   4.233   0.620   5.164
  161DOPC  C31519506   4.183   0.580   4.959
  161DOPC  H15X19507   4.201   0.471   4.956
  161DOPC  H15Y19508   4.279   0.630   4.934
  161DOPC  C31619509   4.079   0.620   4.853
  161DOPC  H16X19510   3.978   0.588   4.886
  161DOPC  H16Y19511   4.078   0.731   4.846
  161DOPC  C31719512   4.105   0.560   4.714
  161DOPC  H17X19513   4.040   0.614   4.641
  161DOPC  H17Y19514   4.210   0.578   4.685
  161DOPC  C31819515   4.073   0.411   4.704
  161DOPC  H18X19516   4.139   0.352   4.771
  161DOPC  H18Y19517   3.967   0.392   4.733
  161DOPC  H18Z19518   4.088   0.375   4.600
  162DOPC     N19519   1.349   6.542   6.963
  162DOPC   C1219520   1.366   6.413   6.884
  162DOPC  H12A19521   1.466   6.375   6.900
  162DOPC  H12B19522   1.358   6.434   6.779
  162DOPC   C1319523   1.211   6.600   6.944
  162DOPC  H13A19524   1.193   6.625   6.841
  162DOPC  H13B19525   1.137   6.528   6.975
  162DOPC  H13C19526   1.199   6.689   7.003
  162DOPC   C1419527   1.452   6.644   6.925
  162DOPC  H14A19528   1.441   6.674   6.822
  162DOPC  H14B19529   1.443   6.731   6.988
  162DOPC  H14C19530   1.551   6.604   6.938
  162DOPC   C1519531   1.368   6.512   7.108
  162DOPC  H15A19532   1.346   6.595   7.173
  162DOPC  H15B19533   1.470   6.482   7.128
  162DOPC  H15C19534   1.307   6.428   7.137
  162DOPC   C1119535   1.272   6.294   6.918
  162DOPC  H11A19536   1.166   6.327   6.909
  162DOPC  H11B19537   1.286   6.213   6.844
  162DOPC     P19538   1.415   6.151   7.083
  162DOPC   O1319539   1.380   6.014   7.042
  162DOPC   O1419540   1.453   6.170   7.225
  162DOPC   O1219541   1.294   6.247   7.051
  162DOPC   O1119542   1.534   6.211   6.995
  162DOPC    C119543   1.632   6.125   6.934
  162DOPC    HA19544   1.583   6.036   6.889
  162DOPC    HB19545   1.704   6.089   7.010
  162DOPC    C219546   1.712   6.193   6.818
  162DOPC    HS19547   1.796   6.248   6.867
  162DOPC   O2119548   1.625   6.289   6.757
  162DOPC   C2119549   1.672   6.369   6.664
  162DOPC   O2219550   1.786   6.374   6.623
  162DOPC   C2219551   1.555   6.458   6.619
  162DOPC   H2R19552   1.537   6.533   6.699
  162DOPC   H2S19553   1.466   6.392   6.611
  162DOPC    C319554   1.779   6.086   6.720
  162DOPC    HX19555   1.843   6.022   6.784
  162DOPC    HY19556   1.845   6.140   6.649
  162DOPC   O3119557   1.686   6.000   6.649
  162DOPC   C3119558   1.738   5.914   6.560
  162DOPC   O3219559   1.857   5.904   6.538
  162DOPC   C3219560   1.628   5.826   6.495
  162DOPC   H2X19561   1.647   5.720   6.523
  162DOPC   H2Y19562   1.529   5.852   6.539
  162DOPC   C2319563   1.570   6.533   6.484
  162DOPC   H3R19564   1.637   6.477   6.416
  162DOPC   H3S19565   1.619   6.631   6.500
  162DOPC   C2419566   1.435   6.551   6.411
  162DOPC   H4R19567   1.378   6.635   6.456
  162DOPC   H4S19568   1.373   6.460   6.424
  162DOPC   C2519569   1.453   6.576   6.260
  162DOPC   H5R19570   1.532   6.508   6.220
  162DOPC   H5S19571   1.491   6.680   6.247
  162DOPC   C2619572   1.324   6.558   6.178
  162DOPC   H6R19573   1.337   6.610   6.081
  162DOPC   H6S19574   1.241   6.608   6.232
  162DOPC   C2719575   1.285   6.411   6.150
  162DOPC   H7R19576   1.181   6.408   6.112
  162DOPC   H7S19577   1.286   6.355   6.245
  162DOPC   C2819578   1.377   6.338   6.049
  162DOPC   H8R19579   1.354   6.230   6.056
  162DOPC   H8S19580   1.483   6.351   6.080
  162DOPC   C2919581   1.359   6.384   5.906
  162DOPC   H9R19582   1.312   6.483   5.893
  162DOPC  C21019583   1.397   6.315   5.797
  162DOPC  H10R19584   1.379   6.358   5.697
  162DOPC  C21119585   1.463   6.180   5.799
  162DOPC  H11R19586   1.394   6.104   5.842
  162DOPC  H11S19587   1.553   6.182   5.864
  162DOPC  C21219588   1.507   6.129   5.659
  162DOPC  H12R19589   1.418   6.121   5.593
  162DOPC  H12S19590   1.549   6.028   5.671
  162DOPC  C21319591   1.613   6.218   5.593
  162DOPC  H13R19592   1.693   6.239   5.666
  162DOPC  H13S19593   1.567   6.316   5.566
  162DOPC  C21419594   1.677   6.157   5.467
  162DOPC  H14R19595   1.728   6.062   5.495
  162DOPC  H14S19596   1.754   6.227   5.429
  162DOPC  C21519597   1.577   6.128   5.354
  162DOPC  H15R19598   1.518   6.220   5.333
  162DOPC  H15S19599   1.507   6.049   5.387
  162DOPC  C21619600   1.645   6.082   5.224
  162DOPC  H16R19601   1.706   5.991   5.244
  162DOPC  H16S19602   1.714   6.162   5.188
  162DOPC  C21719603   1.544   6.051   5.112
  162DOPC  H17R19604   1.481   6.141   5.095
  162DOPC  H17S19605   1.476   5.969   5.147
  162DOPC  C21819606   1.608   6.008   4.980
  162DOPC  H18R19607   1.677   6.087   4.943
  162DOPC  H18S19608   1.530   5.991   4.903
  162DOPC  H18T19609   1.665   5.914   4.993
  162DOPC   C3319610   1.613   5.825   6.341
  162DOPC   H3X19611   1.707   5.783   6.298
  162DOPC   H3Y19612   1.602   5.927   6.300
  162DOPC   C3419613   1.491   5.743   6.293
  162DOPC   H4X19614   1.445   5.688   6.378
  162DOPC   H4Y19615   1.528   5.666   6.223
  162DOPC   C3519616   1.382   5.824   6.218
  162DOPC   H5X19617   1.351   5.763   6.130
  162DOPC   H5Y19618   1.425   5.918   6.177
  162DOPC   C3619619   1.253   5.854   6.298
  162DOPC   H6X19620   1.227   5.765   6.360
  162DOPC   H6Y19621   1.267   5.933   6.374
  162DOPC   C3719622   1.132   5.893   6.211
  162DOPC   H7X19623   1.111   5.811   6.139
  162DOPC   H7Y19624   1.044   5.902   6.278
  162DOPC   C3819625   1.152   6.025   6.135
  162DOPC   H8X19626   1.239   6.013   6.066
  162DOPC   H8Y19627   1.180   6.104   6.207
  162DOPC   C3919628   1.027   6.065   6.060
  162DOPC   H9X19629   0.946   6.102   6.124
  162DOPC  C31019630   1.005   6.057   5.928
  162DOPC  H10X19631   0.909   6.092   5.888
  162DOPC  C31119632   1.101   6.007   5.822
  162DOPC  H11X19633   1.198   5.975   5.864
  162DOPC  H11Y19634   1.123   6.091   5.753
  162DOPC  C31219635   1.043   5.889   5.742
  162DOPC  H12X19636   0.939   5.911   5.708
  162DOPC  H12Y19637   1.038   5.800   5.809
  162DOPC  C31319638   1.127   5.854   5.618
  162DOPC  H13X19639   1.234   5.853   5.648
  162DOPC  H13Y19640   1.101   5.753   5.582
  162DOPC  C31419641   1.107   5.954   5.503
  162DOPC  H14X19642   1.007   5.938   5.457
  162DOPC  H14Y19643   1.108   6.057   5.544
  162DOPC  C31519644   1.217   5.946   5.396
  162DOPC  H15X19645   1.215   5.847   5.345
  162DOPC  H15Y19646   1.314   5.955   5.448
  162DOPC  C31619647   1.206   6.061   5.293
  162DOPC  H16X19648   1.175   6.153   5.346
  162DOPC  H16Y19649   1.307   6.080   5.250
  162DOPC  C31719650   1.110   6.032   5.177
  162DOPC  H17X19651   1.014   5.994   5.217
  162DOPC  H17Y19652   1.088   6.129   5.127
  162DOPC  C31819653   1.166   5.935   5.073
  162DOPC  H18X19654   1.097   5.924   4.987
  162DOPC  H18Y19655   1.264   5.972   5.034
  162DOPC  H18Z19656   1.183   5.835   5.118
  163DOPC     N19657   0.365   2.826   6.819
  163DOPC   C1219658   0.488   2.751   6.767
  163DOPC  H12A19659   0.482   2.745   6.659
  163DOPC  H12B19660   0.485   2.649   6.802
  163DOPC   C1319661   0.240   2.769   6.759
  163DOPC  H13A19662   0.154   2.829   6.784
  163DOPC  H13B19663   0.249   2.765   6.652
  163DOPC  H13C19664   0.225   2.668   6.794
  163DOPC   C1419665   0.376   2.970   6.779
  163DOPC  H14A19666   0.460   3.016   6.829
  163DOPC  H14B19667   0.396   2.981   6.673
  163DOPC  H14C19668   0.286   3.025   6.804
  163DOPC   C1519669   0.359   2.818   6.968
  163DOPC  H15A19670   0.277   2.875   7.009
  163DOPC  H15B19671   0.450   2.860   7.009
  163DOPC  H15C19672   0.355   2.716   7.003
  163DOPC   C1119673   0.629   2.803   6.805
  163DOPC  H11A19674   0.705   2.745   6.749
  163DOPC  H11B19675   0.641   2.908   6.770
  163DOPC     P19676   0.683   2.659   7.017
  163DOPC   O1319677   0.614   2.658   7.148
  163DOPC   O1419678   0.829   2.637   7.021
  163DOPC   O1219679   0.653   2.797   6.945
  163DOPC   O1119680   0.614   2.552   6.922
  163DOPC    C119681   0.689   2.443   6.866
  163DOPC    HA19682   0.675   2.353   6.930
  163DOPC    HB19683   0.798   2.463   6.860
  163DOPC    C219684   0.643   2.410   6.722
  163DOPC    HS19685   0.693   2.315   6.693
  163DOPC   O2119686   0.681   2.520   6.636
  163DOPC   C2119687   0.723   2.484   6.515
  163DOPC   O2219688   0.728   2.370   6.472
  163DOPC   C2219689   0.763   2.608   6.435
  163DOPC   H2R19690   0.863   2.589   6.391
  163DOPC   H2S19691   0.771   2.695   6.503
  163DOPC    C319692   0.489   2.386   6.717
  163DOPC    HX19693   0.437   2.473   6.764
  163DOPC    HY19694   0.468   2.299   6.783
  163DOPC   O3119695   0.442   2.356   6.584
  163DOPC   C3119696   0.389   2.458   6.516
  163DOPC   O3219697   0.361   2.567   6.563
  163DOPC   C3219698   0.373   2.418   6.370
  163DOPC   H2X19699   0.474   2.394   6.331
  163DOPC   H2Y19700   0.311   2.325   6.364
  163DOPC   C2319701   0.663   2.639   6.321
  163DOPC   H3R19702   0.567   2.673   6.367
  163DOPC   H3S19703   0.642   2.547   6.262
  163DOPC   C2419704   0.713   2.748   6.225
  163DOPC   H4R19705   0.800   2.708   6.169
  163DOPC   H4S19706   0.749   2.835   6.284
  163DOPC   C2519707   0.602   2.795   6.129
  163DOPC   H5R19708   0.575   2.900   6.153
  163DOPC   H5S19709   0.511   2.734   6.147
  163DOPC   C2619710   0.638   2.785   5.979
  163DOPC   H6R19711   0.740   2.745   5.966
  163DOPC   H6S19712   0.638   2.888   5.937
  163DOPC   C2719713   0.538   2.698   5.901
  163DOPC   H7R19714   0.435   2.737   5.918
  163DOPC   H7S19715   0.542   2.595   5.943
  163DOPC   C2819716   0.564   2.689   5.749
  163DOPC   H8R19717   0.494   2.614   5.706
  163DOPC   H8S19718   0.667   2.649   5.734
  163DOPC   C2919719   0.550   2.822   5.682
  163DOPC   H9R19720   0.643   2.880   5.678
  163DOPC  C21019721   0.439   2.876   5.629
  163DOPC  H10R19722   0.445   2.977   5.586
  163DOPC  C21119723   0.301   2.814   5.623
  163DOPC  H11R19724   0.240   2.847   5.709
  163DOPC  H11S19725   0.308   2.703   5.627
  163DOPC  C21219726   0.230   2.855   5.493
  163DOPC  H12R19727   0.305   2.855   5.410
  163DOPC  H12S19728   0.191   2.958   5.501
  163DOPC  C21319729   0.117   2.758   5.454
  163DOPC  H13R19730   0.032   2.770   5.525
  163DOPC  H13S19731   0.154   2.654   5.465
  163DOPC  C21419732   0.066   2.776   5.309
  163DOPC  H14R19733   0.008   2.870   5.303
  163DOPC  H14S19734  -0.005   2.692   5.288
  163DOPC  C21519735   0.175   2.776   5.200
  163DOPC  H15R19736   0.231   2.872   5.207
  163DOPC  H15S19737   0.127   2.774   5.100
  163DOPC  C21619738   0.275   2.660   5.211
  163DOPC  H16R19739   0.223   2.563   5.195
  163DOPC  H16S19740   0.315   2.658   5.314
  163DOPC  C21719741   0.396   2.671   5.116
  163DOPC  H17R19742   0.488   2.667   5.177
  163DOPC  H17S19743   0.395   2.771   5.067
  163DOPC  C21819744   0.402   2.562   5.010
  163DOPC  H18R19745   0.402   2.461   5.057
  163DOPC  H18S19746   0.494   2.571   4.949
  163DOPC  H18T19747   0.314   2.568   4.942
  163DOPC   C3319748   0.310   2.530   6.284
  163DOPC   H3X19749   0.352   2.628   6.314
  163DOPC   H3Y19750   0.200   2.535   6.301
  163DOPC   C3419751   0.338   2.516   6.133
  163DOPC   H4X19752   0.447   2.506   6.116
  163DOPC   H4Y19753   0.305   2.611   6.085
  163DOPC   C3519754   0.264   2.401   6.063
  163DOPC   H5X19755   0.245   2.433   5.958
  163DOPC   H5Y19756   0.165   2.384   6.111
  163DOPC   C3619757   0.344   2.270   6.057
  163DOPC   H6X19758   0.442   2.289   6.009
  163DOPC   H6Y19759   0.364   2.236   6.161
  163DOPC   C3719760   0.270   2.158   5.983
  163DOPC   H7X19761   0.322   2.062   6.001
  163DOPC   H7Y19762   0.169   2.149   6.027
  163DOPC   C3819763   0.255   2.178   5.831
  163DOPC   H8X19764   0.204   2.275   5.811
  163DOPC   H8Y19765   0.187   2.099   5.792
  163DOPC   C3919766   0.386   2.171   5.758
  163DOPC   H9X19767   0.470   2.130   5.817
  163DOPC  C31019768   0.408   2.208   5.631
  163DOPC  H10X19769   0.509   2.196   5.589
  163DOPC  C31119770   0.306   2.265   5.535
  163DOPC  H11X19771   0.204   2.259   5.576
  163DOPC  H11Y19772   0.305   2.203   5.442
  163DOPC  C31219773   0.333   2.411   5.494
  163DOPC  H12X19774   0.320   2.476   5.583
  163DOPC  H12Y19775   0.256   2.440   5.420
  163DOPC  C31319776   0.472   2.439   5.433
  163DOPC  H13X19777   0.474   2.544   5.396
  163DOPC  H13Y19778   0.549   2.434   5.513
  163DOPC  C31419779   0.511   2.344   5.319
  163DOPC  H14X19780   0.525   2.242   5.360
  163DOPC  H14Y19781   0.428   2.340   5.245
  163DOPC  C31519782   0.641   2.387   5.248
  163DOPC  H15X19783   0.714   2.420   5.325
  163DOPC  H15Y19784   0.621   2.474   5.182
  163DOPC  C31619785   0.705   2.273   5.166
  163DOPC  H16X19786   0.804   2.307   5.128
  163DOPC  H16Y19787   0.724   2.187   5.234
  163DOPC  C31719788   0.620   2.226   5.048
  163DOPC  H17X19789   0.517   2.204   5.084
  163DOPC  H17Y19790   0.612   2.309   4.974
  163DOPC  C31819791   0.676   2.101   4.979
  163DOPC  H18X19792   0.675   2.015   5.049
  163DOPC  H18Y19793   0.615   2.075   4.891
  163DOPC  H18Z19794   0.781   2.118   4.946
  164DOPC     N19795   1.232   1.326   7.158
  164DOPC   C1219796   1.310   1.352   7.029
  164DOPC  H12A19797   1.408   1.391   7.054
  164DOPC  H12B19798   1.259   1.429   6.974
  164DOPC   C1319799   1.299   1.219   7.239
  164DOPC  H13A19800   1.401   1.244   7.263
  164DOPC  H13B19801   1.246   1.202   7.331
  164DOPC  H13C19802   1.298   1.125   7.184
  164DOPC   C1419803   1.094   1.279   7.124
  164DOPC  H14A19804   1.040   1.353   7.068
  164DOPC  H14B19805   1.101   1.192   7.060
  164DOPC  H14C19806   1.037   1.252   7.212
  164DOPC   C1519807   1.222   1.450   7.241
  164DOPC  H15A19808   1.165   1.527   7.191
  164DOPC  H15B19809   1.319   1.490   7.265
  164DOPC  H15C19810   1.169   1.430   7.333
  164DOPC   C1119811   1.327   1.234   6.930
  164DOPC  H11A19812   1.397   1.264   6.849
  164DOPC  H11B19813   1.373   1.148   6.983
  164DOPC     P19814   1.158   1.055   6.834
  164DOPC   O1319815   1.014   1.056   6.802
  164DOPC   O1419816   1.201   0.967   6.945
  164DOPC   O1219817   1.201   1.203   6.872
  164DOPC   O1119818   1.247   1.025   6.706
  164DOPC    C119819   1.373   0.958   6.722
  164DOPC    HA19820   1.357   0.850   6.741
  164DOPC    HB19821   1.430   1.000   6.807
  164DOPC    C219822   1.467   0.973   6.598
  164DOPC    HS19823   1.565   0.933   6.630
  164DOPC   O2119824   1.477   1.112   6.561
  164DOPC   C2119825   1.580   1.137   6.482
  164DOPC   O2219826   1.678   1.066   6.469
  164DOPC   C2219827   1.554   1.267   6.405
  164DOPC   H2R19828   1.613   1.349   6.451
  164DOPC   H2S19829   1.446   1.290   6.412
  164DOPC    C319830   1.420   0.887   6.476
  164DOPC    HX19831   1.419   0.781   6.510
  164DOPC    HY19832   1.497   0.892   6.395
  164DOPC   O3119833   1.287   0.923   6.432
  164DOPC   C3119834   1.278   0.991   6.318
  164DOPC   O3219835   1.369   1.010   6.240
  164DOPC   C3219836   1.136   1.045   6.303
  164DOPC   H2X19837   1.065   0.960   6.317
  164DOPC   H2Y19838   1.121   1.117   6.386
  164DOPC   C2319839   1.592   1.248   6.257
  164DOPC   H3R19840   1.574   1.142   6.227
  164DOPC   H3S19841   1.701   1.266   6.242
  164DOPC   C2419842   1.510   1.336   6.162
  164DOPC   H4R19843   1.531   1.443   6.184
  164DOPC   H4S19844   1.402   1.318   6.179
  164DOPC   C2519845   1.541   1.308   6.014
  164DOPC   H5R19846   1.650   1.316   5.997
  164DOPC   H5S19847   1.492   1.388   5.954
  164DOPC   C2619848   1.492   1.170   5.965
  164DOPC   H6R19849   1.382   1.161   5.978
  164DOPC   H6S19850   1.539   1.092   6.028
  164DOPC   C2719851   1.530   1.138   5.819
  164DOPC   H7R19852   1.542   1.028   5.812
  164DOPC   H7S19853   1.629   1.182   5.795
  164DOPC   C2819854   1.424   1.178   5.715
  164DOPC   H8R19855   1.329   1.129   5.743
  164DOPC   H8S19856   1.456   1.135   5.617
  164DOPC   C2919857   1.407   1.327   5.701
  164DOPC   H9R19858   1.489   1.386   5.744
  164DOPC  C21019859   1.305   1.390   5.642
  164DOPC  H10R19860   1.305   1.500   5.638
  164DOPC  C21119861   1.186   1.323   5.578
  164DOPC  H11R19862   1.093   1.373   5.613
  164DOPC  H11S19863   1.178   1.217   5.608
  164DOPC  C21219864   1.190   1.327   5.424
  164DOPC  H12R19865   1.175   1.431   5.388
  164DOPC  H12S19866   1.106   1.266   5.387
  164DOPC  C21319867   1.321   1.272   5.364
  164DOPC  H13R19868   1.351   1.183   5.423
  164DOPC  H13S19869   1.402   1.347   5.374
  164DOPC  C21419870   1.307   1.228   5.217
  164DOPC  H14R19871   1.227   1.152   5.209
  164DOPC  H14S19872   1.403   1.181   5.186
  164DOPC  C21519873   1.277   1.344   5.121
  164DOPC  H15R19874   1.359   1.418   5.128
  164DOPC  H15S19875   1.183   1.394   5.155
  164DOPC  C21619876   1.260   1.302   4.974
  164DOPC  H16R19877   1.356   1.262   4.936
  164DOPC  H16S19878   1.235   1.392   4.915
  164DOPC  C21719879   1.150   1.197   4.952
  164DOPC  H17R19880   1.062   1.223   5.014
  164DOPC  H17S19881   1.185   1.098   4.987
  164DOPC  C21819882   1.104   1.187   4.806
  164DOPC  H18R19883   1.187   1.151   4.742
  164DOPC  H18S19884   1.071   1.286   4.769
  164DOPC  H18T19885   1.019   1.117   4.796
  164DOPC   C3319886   1.110   1.116   6.168
  164DOPC   H3X19887   1.193   1.184   6.141
  164DOPC   H3Y19888   1.019   1.178   6.180
  164DOPC   C3419889   1.083   1.017   6.053
  164DOPC   H4X19890   1.009   0.943   6.091
  164DOPC   H4Y19891   1.176   0.961   6.031
  164DOPC   C3519892   1.029   1.081   5.924
  164DOPC   H5X19893   1.111   1.084   5.849
  164DOPC   H5Y19894   1.001   1.187   5.944
  164DOPC   C3619895   0.906   1.009   5.867
  164DOPC   H6X19896   0.891   0.914   5.923
  164DOPC   H6Y19897   0.816   1.072   5.884
  164DOPC   C3719898   0.912   0.973   5.717
  164DOPC   H7X19899   0.873   1.058   5.658
  164DOPC   H7Y19900   1.018   0.959   5.688
  164DOPC   C3819901   0.834   0.843   5.687
  164DOPC   H8X19902   0.734   0.852   5.735
  164DOPC   H8Y19903   0.885   0.758   5.737
  164DOPC   C3919904   0.814   0.815   5.539
  164DOPC   H9X19905   0.763   0.896   5.486
  164DOPC  C31019906   0.853   0.707   5.468
  164DOPC  H10X19907   0.830   0.705   5.361
  164DOPC  C31119908   0.928   0.585   5.517
  164DOPC  H11X19909   0.855   0.507   5.546
  164DOPC  H11Y19910   0.990   0.607   5.606
  164DOPC  C31219911   1.019   0.526   5.406
  164DOPC  H12X19912   1.101   0.597   5.383
  164DOPC  H12Y19913   0.959   0.514   5.314
  164DOPC  C31319914   1.079   0.388   5.440
  164DOPC  H13X19915   0.996   0.324   5.478
  164DOPC  H13Y19916   1.116   0.341   5.347
  164DOPC  C31419917   1.193   0.391   5.543
  164DOPC  H14X19918   1.175   0.309   5.616
  164DOPC  H14Y19919   1.190   0.486   5.600
  164DOPC  C31519920   1.334   0.368   5.483
  164DOPC  H15X19921   1.332   0.273   5.426
  164DOPC  H15Y19922   1.406   0.356   5.567
  164DOPC  C31619923   1.383   0.483   5.393
  164DOPC  H16X19924   1.311   0.497   5.310
  164DOPC  H16Y19925   1.385   0.577   5.453
  164DOPC  C31719926   1.524   0.464   5.335
  164DOPC  H17X19927   1.544   0.549   5.267
  164DOPC  H17Y19928   1.598   0.471   5.418
  164DOPC  C31819929   1.547   0.333   5.259
  164DOPC  H18X19930   1.541   0.246   5.328
  164DOPC  H18Y19931   1.471   0.320   5.179
  164DOPC  H18Z19932   1.647   0.333   5.211
  165DOPC     N19933   6.066   0.799   7.120
  165DOPC   C1219934   6.112   0.695   7.018
  165DOPC  H12A19935   6.037   0.617   7.012
  165DOPC  H12B19936   6.201   0.648   7.056
  165DOPC   C1319937   6.154   0.921   7.117
  165DOPC  H13A19938   6.257   0.896   7.140
  165DOPC  H13B19939   6.149   0.967   7.020
  165DOPC  H13C19940   6.119   0.995   7.187
  165DOPC   C1419941   6.070   0.738   7.257
  165DOPC  H14A19942   6.166   0.694   7.277
  165DOPC  H14B19943   6.051   0.813   7.332
  165DOPC  H14C19944   5.995   0.661   7.267
  165DOPC   C1519945   5.927   0.846   7.091
  165DOPC  H15A19946   5.921   0.877   6.987
  165DOPC  H15B19947   5.901   0.931   7.152
  165DOPC  H15C19948   5.853   0.769   7.105
  165DOPC   C1119949   6.137   0.742   6.873
  165DOPC  H11A19950   6.212   0.824   6.871
  165DOPC  H11B19951   6.181   0.658   6.815
  165DOPC     P19952   5.902   0.687   6.774
  165DOPC   O1319953   5.772   0.743   6.818
  165DOPC   O1419954   5.934   0.554   6.833
  165DOPC   O1219955   6.017   0.789   6.811
  165DOPC   O1119956   5.906   0.676   6.617
  165DOPC    C119957   6.030   0.665   6.547
  165DOPC    HA19958   6.014   0.599   6.459
  165DOPC    HB19959   6.110   0.617   6.608
  165DOPC    C219960   6.080   0.801   6.492
  165DOPC    HS19961   6.088   0.872   6.577
  165DOPC   O2119962   5.984   0.844   6.394
  165DOPC   C2119963   5.975   0.973   6.372
  165DOPC   O2219964   6.042   1.060   6.425
  165DOPC   C2219965   5.863   0.998   6.269
  165DOPC   H2R19966   5.890   1.090   6.212
  165DOPC   H2S19967   5.770   1.019   6.327
  165DOPC    C319968   6.221   0.781   6.427
  165DOPC    HX19969   6.208   0.712   6.342
  165DOPC    HY19970   6.287   0.730   6.500
  165DOPC   O3119971   6.280   0.903   6.378
  165DOPC   C3119972   6.344   0.976   6.468
  165DOPC   O3219973   6.358   0.947   6.586
  165DOPC   C3219974   6.409   1.100   6.406
  165DOPC   H2X19975   6.352   1.189   6.440
  165DOPC   H2Y19976   6.511   1.106   6.448
  165DOPC   C2319977   5.839   0.879   6.172
  165DOPC   H3R19978   5.747   0.898   6.113
  165DOPC   H3S19979   5.822   0.785   6.229
  165DOPC   C2419980   5.956   0.861   6.074
  165DOPC   H4R19981   6.050   0.872   6.132
  165DOPC   H4S19982   5.953   0.944   6.000
  165DOPC   C2519983   5.964   0.725   6.004
  165DOPC   H5R19984   5.980   0.648   6.083
  165DOPC   H5S19985   6.055   0.724   5.940
  165DOPC   C2619986   5.843   0.683   5.919
  165DOPC   H6R19987   5.758   0.665   5.988
  165DOPC   H6S19988   5.867   0.586   5.870
  165DOPC   C2719989   5.797   0.782   5.810
  165DOPC   H7R19990   5.762   0.874   5.861
  165DOPC   H7S19991   5.707   0.738   5.761
  165DOPC   C2819992   5.900   0.815   5.699
  165DOPC   H8R19993   5.851   0.793   5.601
  165DOPC   H8S19994   5.985   0.744   5.708
  165DOPC   C2919995   5.950   0.957   5.702
  165DOPC   H9R19996   5.978   0.992   5.803
  165DOPC  C21019997   5.966   1.043   5.600
  165DOPC  H10R19998   6.003   1.144   5.622
  165DOPC  C21119999   5.938   1.021   5.453
  165DOPC  H11R20000   5.848   1.079   5.423
  165DOPC  H11S20001   5.917   0.914   5.429
  165DOPC  C21220002   6.056   1.070   5.366
  165DOPC  H12R20003   6.090   1.169   5.401
  165DOPC  H12S20004   6.022   1.083   5.261
  165DOPC  C21320005   6.175   0.973   5.362
  165DOPC  H13R20006   6.150   0.886   5.297
  165DOPC  H13S20007   6.194   0.934   5.464
  165DOPC  C21420008   6.302   1.041   5.311
  165DOPC  H14R20009   6.326   1.126   5.378
  165DOPC  H14S20010   6.283   1.082   5.209
  165DOPC  C21520011   6.423   0.946   5.304
  165DOPC  H15R20012   6.400   0.863   5.235
  165DOPC  H15S20013   6.442   0.903   5.405
  165DOPC  C21620014   6.548   1.021   5.256
  165DOPC  H16R20015   6.577   1.096   5.332
  165DOPC  H16S20016   6.522   1.076   5.163
  165DOPC  C21720017   6.667   0.930   5.227
  165DOPC  H17R20018   6.636   0.849   5.157
  165DOPC  H17S20019   6.700   0.881   5.322
  165DOPC  C21820020   6.784   1.007   5.166
  165DOPC  H18R20021   6.870   0.940   5.143
  165DOPC  H18S20022   6.820   1.086   5.236
  165DOPC  H18T20023   6.752   1.056   5.071
  165DOPC   C3320024   6.418   1.099   6.251
  165DOPC   H3X20025   6.431   0.995   6.215
  165DOPC   H3Y20026   6.508   1.157   6.220
  165DOPC   C3420027   6.296   1.164   6.184
  165DOPC   H4X20028   6.292   1.270   6.217
  165DOPC   H4Y20029   6.203   1.114   6.219
  165DOPC   C3520030   6.300   1.161   6.031
  165DOPC   H5X20031   6.396   1.204   5.995
  165DOPC   H5Y20032   6.218   1.225   5.991
  165DOPC   C3620033   6.281   1.020   5.973
  165DOPC   H6X20034   6.357   0.950   6.015
  165DOPC   H6Y20035   6.182   0.982   6.005
  165DOPC   C3720036   6.288   1.015   5.820
  165DOPC   H7X20037   6.386   1.055   5.785
  165DOPC   H7Y20038   6.210   1.083   5.780
  165DOPC   C3820039   6.264   0.874   5.762
  165DOPC   H8X20040   6.247   0.886   5.653
  165DOPC   H8Y20041   6.170   0.836   5.805
  165DOPC   C3920042   6.374   0.773   5.782
  165DOPC   H9X20043   6.473   0.815   5.809
  165DOPC  C31020044   6.362   0.641   5.764
  165DOPC  H10X20045   6.451   0.577   5.779
  165DOPC  C31120046   6.238   0.567   5.721
  165DOPC  H11X20047   6.146   0.610   5.767
  165DOPC  H11Y20048   6.244   0.462   5.756
  165DOPC  C31220049   6.219   0.566   5.567
  165DOPC  H12X20050   6.316   0.538   5.521
  165DOPC  H12Y20051   6.195   0.669   5.532
  165DOPC  C31320052   6.114   0.464   5.517
  165DOPC  H13X20053   6.156   0.412   5.428
  165DOPC  H13Y20054   6.099   0.387   5.596
  165DOPC  C31420055   5.978   0.523   5.476
  165DOPC  H14X20056   5.911   0.439   5.449
  165DOPC  H14Y20057   5.932   0.575   5.564
  165DOPC  C31520058   5.987   0.620   5.357
  165DOPC  H15X20059   6.049   0.574   5.277
  165DOPC  H15Y20060   6.041   0.712   5.391
  165DOPC  C31620061   5.851   0.663   5.301
  165DOPC  H16X20062   5.786   0.696   5.385
  165DOPC  H16Y20063   5.867   0.752   5.236
  165DOPC  C31720064   5.777   0.556   5.218
  165DOPC  H17X20065   5.762   0.466   5.281
  165DOPC  H17Y20066   5.677   0.596   5.193
  165DOPC  C31820067   5.847   0.517   5.087
  165DOPC  H18X20068   5.859   0.606   5.022
  165DOPC  H18Y20069   5.947   0.474   5.107
  165DOPC  H18Z20070   5.787   0.441   5.033
  166DOPC     N20071   7.298   2.694   6.875
  166DOPC   C1220072   7.294   2.646   7.020
  166DOPC  H12A20073   7.200   2.597   7.037
  166DOPC  H12B20074   7.299   2.731   7.087
  166DOPC   C1320075   7.208   2.811   6.853
  166DOPC  H13A20076   7.106   2.788   6.880
  166DOPC  H13B20077   7.238   2.899   6.909
  166DOPC  H13C20078   7.208   2.842   6.750
  166DOPC   C1420079   7.253   2.581   6.788
  166DOPC  H14A20080   7.254   2.607   6.684
  166DOPC  H14B20081   7.319   2.497   6.802
  166DOPC  H14C20082   7.154   2.547   6.817
  166DOPC   C1520083   7.438   2.727   6.833
  166DOPC  H15A20084   7.502   2.642   6.850
  166DOPC  H15B20085   7.478   2.812   6.887
  166DOPC  H15C20086   7.442   2.752   6.728
  166DOPC   C1120087   7.402   2.542   7.064
  166DOPC  H11A20088   7.504   2.586   7.053
  166DOPC  H11B20089   7.388   2.523   7.172
  166DOPC     P20090   7.282   2.315   7.025
  166DOPC   O1320091   7.155   2.388   7.040
  166DOPC   O1420092   7.331   2.236   7.141
  166DOPC   O1220093   7.395   2.421   6.989
  166DOPC   O1120094   7.276   2.223   6.896
  166DOPC    C120095   7.396   2.197   6.823
  166DOPC    HA20096   7.460   2.125   6.878
  166DOPC    HB20097   7.456   2.289   6.807
  166DOPC    C220098   7.370   2.139   6.680
  166DOPC    HS20099   7.462   2.151   6.619
  166DOPC   O2120100   7.259   2.206   6.616
  166DOPC   C2120101   7.283   2.329   6.575
  166DOPC   O2220102   7.382   2.395   6.599
  166DOPC   C2220103   7.167   2.378   6.488
  166DOPC   H2R20104   7.142   2.482   6.516
  166DOPC   H2S20105   7.078   2.314   6.509
  166DOPC    C320106   7.341   1.987   6.685
  166DOPC    HX20107   7.265   1.964   6.762
  166DOPC    HY20108   7.435   1.935   6.717
  166DOPC   O3120109   7.305   1.938   6.554
  166DOPC   C3120110   7.175   1.948   6.524
  166DOPC   O3220111   7.086   1.963   6.606
  166DOPC   C3220112   7.156   1.948   6.372
  166DOPC   H2X20113   7.120   1.848   6.340
  166DOPC   H2Y20114   7.076   2.022   6.352
  166DOPC   C2320115   7.200   2.371   6.337
  166DOPC   H3R20116   7.106   2.383   6.279
  166DOPC   H3S20117   7.241   2.270   6.312
  166DOPC   C2420118   7.299   2.479   6.290
  166DOPC   H4R20119   7.381   2.490   6.364
  166DOPC   H4S20120   7.246   2.577   6.284
  166DOPC   C2520121   7.363   2.447   6.154
  166DOPC   H5R20122   7.422   2.353   6.164
  166DOPC   H5S20123   7.434   2.528   6.128
  166DOPC   C2620124   7.263   2.430   6.039
  166DOPC   H6R20125   7.203   2.523   6.028
  166DOPC   H6S20126   7.193   2.347   6.061
  166DOPC   C2720127   7.333   2.400   5.906
  166DOPC   H7R20128   7.390   2.305   5.917
  166DOPC   H7S20129   7.407   2.481   5.885
  166DOPC   C2820130   7.236   2.389   5.787
  166DOPC   H8R20131   7.186   2.487   5.773
  166DOPC   H8S20132   7.157   2.316   5.813
  166DOPC   C2920133   7.310   2.344   5.664
  166DOPC   H9R20134   7.356   2.244   5.674
  166DOPC  C21020135   7.322   2.408   5.546
  166DOPC  H10R20136   7.378   2.359   5.466
  166DOPC  C21120137   7.262   2.542   5.512
  166DOPC  H11R20138   7.325   2.624   5.553
  166DOPC  H11S20139   7.161   2.552   5.557
  166DOPC  C21220140   7.248   2.565   5.359
  166DOPC  H12R20141   7.190   2.658   5.343
  166DOPC  H12S20142   7.190   2.481   5.315
  166DOPC  C21320143   7.383   2.579   5.287
  166DOPC  H13R20144   7.444   2.489   5.307
  166DOPC  H13S20145   7.437   2.667   5.328
  166DOPC  C21420146   7.368   2.596   5.135
  166DOPC  H14R20147   7.310   2.689   5.114
  166DOPC  H14S20148   7.309   2.511   5.095
  166DOPC  C21520149   7.502   2.601   5.059
  166DOPC  H15R20150   7.557   2.694   5.087
  166DOPC  H15S20151   7.480   2.607   4.950
  166DOPC  C21620152   7.591   2.479   5.085
  166DOPC  H16R20153   7.530   2.387   5.074
  166DOPC  H16S20154   7.629   2.482   5.190
  166DOPC  C21720155   7.711   2.470   4.991
  166DOPC  H17R20156   7.772   2.562   4.999
  166DOPC  H17S20157   7.673   2.465   4.886
  166DOPC  C21820158   7.798   2.347   5.018
  166DOPC  H18R20159   7.842   2.352   5.120
  166DOPC  H18S20160   7.881   2.341   4.944
  166DOPC  H18T20161   7.738   2.254   5.011
  166DOPC   C3320162   7.284   1.989   6.293
  166DOPC   H3X20163   7.358   1.906   6.291
  166DOPC   H3Y20164   7.332   2.073   6.347
  166DOPC   C3420165   7.254   2.038   6.151
  166DOPC   H4X20166   7.332   2.113   6.124
  166DOPC   H4Y20167   7.156   2.091   6.149
  166DOPC   C3520168   7.257   1.929   6.044
  166DOPC   H5X20169   7.182   1.851   6.066
  166DOPC   H5Y20170   7.357   1.881   6.045
  166DOPC   C3620171   7.229   1.988   5.904
  166DOPC   H6X20172   7.122   2.016   5.899
  166DOPC   H6Y20173   7.287   2.082   5.893
  166DOPC   C3720174   7.263   1.895   5.786
  166DOPC   H7X20175   7.204   1.801   5.796
  166DOPC   H7Y20176   7.230   1.945   5.693
  166DOPC   C3820177   7.412   1.860   5.769
  166DOPC   H8X20178   7.424   1.804   5.674
  166DOPC   H8Y20179   7.442   1.789   5.850
  166DOPC   C3920180   7.503   1.980   5.773
  166DOPC   H9X20181   7.540   2.006   5.874
  166DOPC  C31020182   7.541   2.058   5.670
  166DOPC  H10X20183   7.608   2.143   5.690
  166DOPC  C31120184   7.501   2.043   5.525
  166DOPC  H11X20185   7.410   2.103   5.505
  166DOPC  H11Y20186   7.477   1.938   5.500
  166DOPC  C31220187   7.612   2.094   5.431
  166DOPC  H12X20188   7.699   2.024   5.435
  166DOPC  H12Y20189   7.647   2.194   5.464
  166DOPC  C31320190   7.566   2.107   5.284
  166DOPC  H13X20191   7.482   2.180   5.281
  166DOPC  H13Y20192   7.650   2.150   5.224
  166DOPC  C31420193   7.523   1.974   5.221
  166DOPC  H14X20194   7.606   1.901   5.232
  166DOPC  H14Y20195   7.435   1.934   5.277
  166DOPC  C31520196   7.486   1.984   5.072
  166DOPC  H15X20197   7.443   1.887   5.039
  166DOPC  H15Y20198   7.580   2.000   5.014
  166DOPC  C31620199   7.389   2.098   5.036
  166DOPC  H16X20200   7.438   2.195   5.057
  166DOPC  H16Y20201   7.368   2.095   4.927
  166DOPC  C31720202   7.255   2.093   5.112
  166DOPC  H17X20203   7.197   2.005   5.076
  166DOPC  H17Y20204   7.273   2.080   5.220
  166DOPC  C31820205   7.171   2.219   5.092
  166DOPC  H18X20206   7.221   2.306   5.140
  166DOPC  H18Y20207   7.160   2.241   4.984
  166DOPC  H18Z20208   7.070   2.207   5.137
  167DOPC     N20209   6.468   1.247   6.850
  167DOPC   C1220210   6.607   1.242   6.790
  167DOPC  H12A20211   6.666   1.322   6.834
  167DOPC  H12B20212   6.600   1.260   6.684
  167DOPC   C1320213   6.385   1.356   6.792
  167DOPC  H13A20214   6.428   1.453   6.810
  167DOPC  H13B20215   6.369   1.342   6.686
  167DOPC  H13C20216   6.287   1.352   6.838
  167DOPC   C1420217   6.476   1.269   6.998
  167DOPC  H14A20218   6.377   1.266   7.041
  167DOPC  H14B20219   6.536   1.191   7.044
  167DOPC  H14C20220   6.523   1.363   7.023
  167DOPC   C1520221   6.394   1.118   6.832
  167DOPC  H15A20222   6.379   1.092   6.728
  167DOPC  H15B20223   6.297   1.126   6.879
  167DOPC  H15C20224   6.448   1.037   6.878
  167DOPC   C1120225   6.689   1.112   6.811
  167DOPC  H11A20226   6.632   1.027   6.768
  167DOPC  H11B20227   6.783   1.118   6.752
  167DOPC     P20228   6.833   1.163   7.019
  167DOPC   O1320229   6.850   1.108   7.156
  167DOPC   O1420230   6.811   1.308   7.004
  167DOPC   O1220231   6.713   1.087   6.949
  167DOPC   O1120232   6.956   1.117   6.932
  167DOPC    C120233   7.075   1.196   6.921
  167DOPC    HA20234   7.152   1.157   6.991
  167DOPC    HB20235   7.059   1.302   6.948
  167DOPC    C220236   7.136   1.193   6.777
  167DOPC    HS20237   7.221   1.265   6.776
  167DOPC   O2120238   7.038   1.227   6.678
  167DOPC   C2120239   6.993   1.350   6.678
  167DOPC   O2220240   7.030   1.442   6.749
  167DOPC   C2220241   6.882   1.359   6.573
  167DOPC   H2R20242   6.803   1.427   6.613
  167DOPC   H2S20243   6.838   1.258   6.560
  167DOPC    C320244   7.197   1.054   6.738
  167DOPC    HX20245   7.248   1.008   6.826
  167DOPC    HY20246   7.276   1.075   6.664
  167DOPC   O3120247   7.101   0.965   6.676
  167DOPC   C3120248   7.040   0.876   6.751
  167DOPC   O3220249   7.056   0.858   6.870
  167DOPC   C3220250   6.946   0.793   6.663
  167DOPC   H2X20251   7.010   0.748   6.583
  167DOPC   H2Y20252   6.906   0.710   6.726
  167DOPC   C2320253   6.934   1.412   6.437
  167DOPC   H3R20254   7.030   1.363   6.410
  167DOPC   H3S20255   6.953   1.521   6.447
  167DOPC   C2420256   6.833   1.388   6.323
  167DOPC   H4R20257   6.854   1.461   6.242
  167DOPC   H4S20258   6.731   1.409   6.361
  167DOPC   C2520259   6.838   1.246   6.265
  167DOPC   H5R20260   6.741   1.224   6.216
  167DOPC   H5S20261   6.850   1.172   6.348
  167DOPC   C2620262   6.949   1.223   6.160
  167DOPC   H6R20263   6.956   1.114   6.139
  167DOPC   H6S20264   7.047   1.255   6.201
  167DOPC   C2720265   6.921   1.294   6.027
  167DOPC   H7R20266   6.930   1.404   6.042
  167DOPC   H7S20267   6.817   1.271   5.996
  167DOPC   C2820268   7.018   1.252   5.914
  167DOPC   H8R20269   7.011   1.142   5.901
  167DOPC   H8S20270   7.122   1.274   5.946
  167DOPC   C2920271   6.985   1.324   5.785
  167DOPC   H9R20272   6.931   1.420   5.798
  167DOPC  C21020273   7.015   1.284   5.660
  167DOPC  H10R20274   6.983   1.345   5.575
  167DOPC  C21120275   7.089   1.157   5.624
  167DOPC  H11R20276   7.136   1.111   5.714
  167DOPC  H11S20277   7.173   1.187   5.558
  167DOPC  C21220278   7.010   1.038   5.550
  167DOPC  H12R20279   6.930   1.057   5.624
  167DOPC  H12S20280   7.113   0.999   5.535
  167DOPC  C21320281   6.993   0.892   5.616
  167DOPC  H13R20282   6.892   0.853   5.591
  167DOPC  H13S20283   6.999   0.904   5.726
  167DOPC  C21420284   7.097   0.783   5.581
  167DOPC  H14R20285   7.101   0.711   5.666
  167DOPC  H14S20286   7.199   0.827   5.579
  167DOPC  C21520287   7.072   0.700   5.453
  167DOPC  H15R20288   6.991   0.627   5.472
  167DOPC  H15S20289   7.164   0.641   5.432
  167DOPC  C21620290   7.035   0.782   5.329
  167DOPC  H16R20291   7.108   0.864   5.313
  167DOPC  H16S20292   6.936   0.829   5.348
  167DOPC  C21720293   7.025   0.695   5.202
  167DOPC  H17R20294   6.962   0.748   5.127
  167DOPC  H17S20295   6.973   0.600   5.228
  167DOPC  C21820296   7.160   0.665   5.136
  167DOPC  H18R20297   7.146   0.599   5.047
  167DOPC  H18S20298   7.228   0.613   5.208
  167DOPC  H18T20299   7.209   0.759   5.103
  167DOPC   C3320300   6.830   0.876   6.603
  167DOPC   H3X20301   6.860   0.982   6.594
  167DOPC   H3Y20302   6.743   0.870   6.672
  167DOPC   C3420303   6.787   0.831   6.462
  167DOPC   H4X20304   6.702   0.896   6.430
  167DOPC   H4Y20305   6.751   0.726   6.464
  167DOPC   C3520306   6.901   0.846   6.360
  167DOPC   H5X20307   6.968   0.757   6.366
  167DOPC   H5Y20308   6.961   0.935   6.388
  167DOPC   C3620309   6.854   0.866   6.215
  167DOPC   H6X20310   6.798   0.962   6.212
  167DOPC   H6Y20311   6.943   0.878   6.150
  167DOPC   C3720312   6.766   0.754   6.158
  167DOPC   H7X20313   6.823   0.658   6.160
  167DOPC   H7Y20314   6.677   0.739   6.222
  167DOPC   C3820315   6.723   0.782   6.013
  167DOPC   H8X20316   6.667   0.694   5.975
  167DOPC   H8Y20317   6.813   0.795   5.950
  167DOPC   C3920318   6.635   0.904   6.011
  167DOPC   H9X20319   6.563   0.906   6.094
  167DOPC  C31020320   6.634   1.005   5.922
  167DOPC  H10X20321   6.563   1.087   5.939
  167DOPC  C31120322   6.721   1.022   5.800
  167DOPC  H11X20323   6.758   0.923   5.766
  167DOPC  H11Y20324   6.810   1.083   5.825
  167DOPC  C31220325   6.647   1.089   5.682
  167DOPC  H12X20326   6.558   1.029   5.655
  167DOPC  H12Y20327   6.714   1.087   5.593
  167DOPC  C31320328   6.607   1.235   5.709
  167DOPC  H13X20329   6.543   1.239   5.799
  167DOPC  H13Y20330   6.697   1.296   5.729
  167DOPC  C31420331   6.526   1.299   5.594
  167DOPC  H14X20332   6.448   1.227   5.561
  167DOPC  H14Y20333   6.474   1.389   5.632
  167DOPC  C31520334   6.612   1.341   5.474
  167DOPC  H15X20335   6.673   1.254   5.440
  167DOPC  H15Y20336   6.682   1.421   5.504
  167DOPC  C31620337   6.525   1.391   5.357
  167DOPC  H16X20338   6.448   1.314   5.333
  167DOPC  H16Y20339   6.472   1.484   5.387
  167DOPC  C31720340   6.607   1.418   5.230
  167DOPC  H17X20341   6.685   1.494   5.252
  167DOPC  H17Y20342   6.659   1.323   5.202
  167DOPC  C31820343   6.522   1.464   5.112
  167DOPC  H18X20344   6.586   1.490   5.025
  167DOPC  H18Y20345   6.451   1.385   5.081
  167DOPC  H18Z20346   6.464   1.555   5.140
  168DOPC     N20347   2.083   7.613   6.966
  168DOPC   C1220348   2.017   7.648   6.833
  168DOPC  H12A20349   1.989   7.557   6.782
  168DOPC  H12B20350   2.088   7.699   6.770
  168DOPC   C1320351   2.231   7.593   6.952
  168DOPC  H13A20352   2.274   7.568   7.048
  168DOPC  H13B20353   2.256   7.513   6.884
  168DOPC  H13C20354   2.282   7.683   6.920
  168DOPC   C1420355   2.021   7.489   7.022
  168DOPC  H14A20356   2.037   7.403   6.960
  168DOPC  H14B20357   2.059   7.468   7.122
  168DOPC  H14C20358   1.914   7.503   7.031
  168DOPC   C1520359   2.060   7.723   7.065
  168DOPC  H15A20360   2.105   7.816   7.033
  168DOPC  H15B20361   2.098   7.696   7.162
  168DOPC  H15C20362   1.954   7.740   7.076
  168DOPC   C1120363   1.887   7.736   6.835
  168DOPC  H11A20364   1.913   7.838   6.869
  168DOPC  H11B20365   1.849   7.747   6.731
  168DOPC     P20366   1.702   7.556   6.878
  168DOPC   O1320367   1.574   7.595   6.818
  168DOPC   O1420368   1.697   7.468   6.997
  168DOPC   O1220369   1.786   7.683   6.921
  168DOPC   O1120370   1.795   7.486   6.769
  168DOPC    C120371   1.782   7.344   6.758
  168DOPC    HA20372   1.675   7.314   6.749
  168DOPC    HB20373   1.822   7.297   6.850
  168DOPC    C220374   1.854   7.284   6.634
  168DOPC    HS20375   1.843   7.173   6.638
  168DOPC   O2120376   1.993   7.318   6.626
  168DOPC   C2120377   2.075   7.281   6.720
  168DOPC   O2220378   2.046   7.226   6.825
  168DOPC   C2220379   2.218   7.312   6.677
  168DOPC   H2R20380   2.278   7.225   6.712
  168DOPC   H2S20381   2.253   7.403   6.731
  168DOPC    C320382   1.789   7.332   6.502
  168DOPC    HX20383   1.679   7.318   6.511
  168DOPC    HY20384   1.827   7.267   6.420
  168DOPC   O3120385   1.819   7.471   6.476
  168DOPC   C3120386   1.771   7.511   6.359
  168DOPC   O3220387   1.711   7.439   6.281
  168DOPC   C3220388   1.804   7.657   6.336
  168DOPC   H2X20389   1.872   7.693   6.416
  168DOPC   H2Y20390   1.857   7.661   6.238
  168DOPC   C2320391   2.243   7.329   6.525
  168DOPC   H3R20392   2.177   7.261   6.467
  168DOPC   H3S20393   2.347   7.298   6.502
  168DOPC   C2420394   2.225   7.471   6.471
  168DOPC   H4R20395   2.288   7.543   6.527
  168DOPC   H4S20396   2.119   7.500   6.484
  168DOPC   C2520397   2.262   7.474   6.322
  168DOPC   H5R20398   2.233   7.376   6.280
  168DOPC   H5S20399   2.372   7.484   6.308
  168DOPC   C2620400   2.189   7.584   6.243
  168DOPC   H6R20401   2.232   7.683   6.269
  168DOPC   H6S20402   2.082   7.586   6.275
  168DOPC   C2720403   2.192   7.564   6.090
  168DOPC   H7R20404   2.296   7.582   6.054
  168DOPC   H7S20405   2.128   7.642   6.044
  168DOPC   C2820406   2.146   7.426   6.039
  168DOPC   H8R20407   2.224   7.351   6.065
  168DOPC   H8S20408   2.144   7.430   5.928
  168DOPC   C2920409   2.014   7.381   6.097
  168DOPC   H9R20410   2.008   7.380   6.207
  168DOPC  C21020411   1.905   7.343   6.028
  168DOPC  H10R20412   1.813   7.318   6.083
  168DOPC  C21120413   1.893   7.337   5.878
  168DOPC  H11R20414   1.823   7.256   5.849
  168DOPC  H11S20415   1.990   7.313   5.830
  168DOPC  C21220416   1.840   7.470   5.822
  168DOPC  H12R20417   1.905   7.554   5.855
  168DOPC  H12S20418   1.739   7.488   5.864
  168DOPC  C21320419   1.832   7.472   5.669
  168DOPC  H13R20420   1.764   7.555   5.639
  168DOPC  H13S20421   1.785   7.378   5.634
  168DOPC  C21420422   1.968   7.493   5.601
  168DOPC  H14R20423   2.043   7.424   5.645
  168DOPC  H14S20424   2.002   7.597   5.622
  168DOPC  C21520425   1.963   7.471   5.449
  168DOPC  H15R20426   1.952   7.362   5.430
  168DOPC  H15S20427   2.060   7.503   5.405
  168DOPC  C21620428   1.849   7.545   5.379
  168DOPC  H16R20429   1.852   7.652   5.408
  168DOPC  H16S20430   1.751   7.504   5.412
  168DOPC  C21720431   1.856   7.536   5.226
  168DOPC  H17R20432   1.952   7.580   5.192
  168DOPC  H17S20433   1.774   7.599   5.185
  168DOPC  C21820434   1.843   7.394   5.169
  168DOPC  H18R20435   1.929   7.331   5.201
  168DOPC  H18S20436   1.842   7.397   5.058
  168DOPC  H18T20437   1.750   7.346   5.204
  168DOPC   C3320438   1.676   7.744   6.331
  168DOPC   H3X20439   1.625   7.741   6.429
  168DOPC   H3Y20440   1.605   7.702   6.256
  168DOPC   C3420441   1.706   7.890   6.295
  168DOPC   H4X20442   1.765   7.935   6.378
  168DOPC   H4Y20443   1.611   7.947   6.288
  168DOPC   C3520444   1.784   7.909   6.164
  168DOPC   H5X20445   1.887   7.870   6.177
  168DOPC   H5Y20446   1.794   8.018   6.142
  168DOPC   C3620447   1.722   7.844   6.040
  168DOPC   H6X20448   1.691   7.739   6.060
  168DOPC   H6Y20449   1.632   7.901   6.009
  168DOPC   C3720450   1.823   7.841   5.924
  168DOPC   H7X20451   1.871   7.941   5.915
  168DOPC   H7Y20452   1.903   7.769   5.951
  168DOPC   C3820453   1.762   7.799   5.790
  168DOPC   H8X20454   1.693   7.714   5.807
  168DOPC   H8Y20455   1.844   7.761   5.726
  168DOPC   C3920456   1.691   7.911   5.718
  168DOPC   H9X20457   1.581   7.913   5.727
  168DOPC  C31020458   1.753   8.006   5.646
  168DOPC  H10X20459   1.693   8.084   5.597
  168DOPC  C31120460   1.902   8.018   5.627
  168DOPC  H11X20461   1.957   7.987   5.719
  168DOPC  H11Y20462   1.930   8.124   5.609
  168DOPC  C31220463   1.959   7.934   5.510
  168DOPC  H12X20464   1.941   7.826   5.528
  168DOPC  H12Y20465   2.069   7.950   5.510
  168DOPC  C31320466   1.901   7.974   5.374
  168DOPC  H13X20467   1.795   7.941   5.369
  168DOPC  H13Y20468   1.902   8.085   5.366
  168DOPC  C31420469   1.978   7.918   5.253
  168DOPC  H14X20470   1.970   7.807   5.252
  168DOPC  H14Y20471   1.928   7.955   5.161
  168DOPC  C31520472   2.126   7.958   5.251
  168DOPC  H15X20473   2.181   7.894   5.324
  168DOPC  H15Y20474   2.136   8.063   5.287
  168DOPC  C31620475   2.193   7.945   5.114
  168DOPC  H16X20476   2.302   7.959   5.128
  168DOPC  H16Y20477   2.177   7.842   5.075
  168DOPC  C31720478   2.145   8.047   5.009
  168DOPC  H17X20479   2.203   8.029   4.915
  168DOPC  H17Y20480   2.038   8.028   4.985
  168DOPC  C31820481   2.161   8.194   5.049
  168DOPC  H18X20482   2.267   8.216   5.075
  168DOPC  H18Y20483   2.131   8.261   4.965
  168DOPC  H18Z20484   2.097   8.218   5.136
  169DOPC     N20485   0.533   1.083   7.080
  169DOPC   C1220486   0.512   1.231   7.107
  169DOPC  H12A20487   0.502   1.282   7.012
  169DOPC  H12B20488   0.600   1.270   7.156
  169DOPC   C1320489   0.416   1.030   7.003
  169DOPC  H13A20490   0.427   0.926   6.975
  169DOPC  H13B20491   0.327   1.037   7.064
  169DOPC  H13C20492   0.396   1.090   6.916
  169DOPC   C1420493   0.541   1.006   7.208
  169DOPC  H14A20494   0.547   0.900   7.189
  169DOPC  H14B20495   0.626   1.035   7.267
  169DOPC  H14C20496   0.451   1.022   7.267
  169DOPC   C1520497   0.659   1.061   7.000
  169DOPC  H15A20498   0.655   1.112   6.905
  169DOPC  H15B20499   0.673   0.956   6.979
  169DOPC  H15C20500   0.746   1.095   7.054
  169DOPC   C1120501   0.389   1.275   7.191
  169DOPC  H11A20502   0.391   1.220   7.288
  169DOPC  H11B20503   0.398   1.382   7.216
  169DOPC     P20504   0.222   1.335   6.998
  169DOPC   O1320505   0.265   1.475   7.019
  169DOPC   O1420506   0.080   1.308   6.968
  169DOPC   O1220507   0.264   1.249   7.125
  169DOPC   O1120508   0.313   1.271   6.885
  169DOPC    C120509   0.300   1.314   6.749
  169DOPC    HA20510   0.200   1.356   6.726
  169DOPC    HB20511   0.313   1.226   6.682
  169DOPC    C220512   0.410   1.417   6.713
  169DOPC    HS20513   0.403   1.501   6.785
  169DOPC   O2120514   0.391   1.460   6.577
  169DOPC   C2120515   0.302   1.554   6.559
  169DOPC   O2220516   0.250   1.623   6.645
  169DOPC   C2220517   0.269   1.560   6.410
  169DOPC   H2R20518   0.166   1.601   6.399
  169DOPC   H2S20519   0.269   1.456   6.371
  169DOPC    C320520   0.553   1.356   6.727
  169DOPC    HX20521   0.555   1.299   6.823
  169DOPC    HY20522   0.626   1.438   6.738
  169DOPC   O3120523   0.584   1.265   6.618
  169DOPC   C3120524   0.650   1.322   6.517
  169DOPC   O3220525   0.700   1.433   6.519
  169DOPC   C3220526   0.646   1.233   6.393
  169DOPC   H2X20527   0.554   1.170   6.397
  169DOPC   H2Y20528   0.636   1.302   6.307
  169DOPC   C2320529   0.370   1.646   6.332
  169DOPC   H3R20530   0.473   1.632   6.372
  169DOPC   H3S20531   0.343   1.753   6.346
  169DOPC   C2420532   0.373   1.613   6.182
  169DOPC   H4R20533   0.419   1.699   6.129
  169DOPC   H4S20534   0.270   1.602   6.144
  169DOPC   C2520535   0.457   1.489   6.150
  169DOPC   H5R20536   0.408   1.398   6.190
  169DOPC   H5S20537   0.556   1.499   6.200
  169DOPC   C2620538   0.483   1.471   5.999
  169DOPC   H6R20539   0.558   1.390   5.984
  169DOPC   H6S20540   0.528   1.564   5.960
  169DOPC   C2720541   0.357   1.436   5.919
  169DOPC   H7R20542   0.277   1.510   5.940
  169DOPC   H7S20543   0.320   1.337   5.953
  169DOPC   C2820544   0.381   1.430   5.767
  169DOPC   H8R20545   0.289   1.390   5.718
  169DOPC   H8S20546   0.463   1.357   5.747
  169DOPC   C2920547   0.414   1.565   5.710
  169DOPC   H9R20548   0.360   1.648   5.757
  169DOPC  C21020549   0.503   1.594   5.614
  169DOPC  H10R20550   0.511   1.699   5.582
  169DOPC  C21120551   0.591   1.500   5.536
  169DOPC  H11R20552   0.630   1.553   5.447
  169DOPC  H11S20553   0.532   1.413   5.499
  169DOPC  C21220554   0.711   1.446   5.616
  169DOPC  H12R20555   0.675   1.371   5.690
  169DOPC  H12S20556   0.758   1.529   5.674
  169DOPC  C21320557   0.822   1.381   5.531
  169DOPC  H13R20558   0.887   1.325   5.601
  169DOPC  H13S20559   0.883   1.461   5.484
  169DOPC  C21420560   0.774   1.283   5.422
  169DOPC  H14R20561   0.676   1.241   5.451
  169DOPC  H14S20562   0.845   1.198   5.417
  169DOPC  C21520563   0.765   1.344   5.281
  169DOPC  H15R20564   0.706   1.438   5.285
  169DOPC  H15S20565   0.710   1.274   5.214
  169DOPC  C21620566   0.902   1.371   5.217
  169DOPC  H16R20567   0.953   1.274   5.202
  169DOPC  H16S20568   0.965   1.432   5.286
  169DOPC  C21720569   0.894   1.446   5.083
  169DOPC  H17R20570   0.821   1.395   5.016
  169DOPC  H17S20571   0.994   1.440   5.033
  169DOPC  C21820572   0.858   1.594   5.098
  169DOPC  H18R20573   0.924   1.642   5.173
  169DOPC  H18S20574   0.753   1.605   5.132
  169DOPC  H18T20575   0.870   1.648   5.002
  169DOPC   C3320576   0.773   1.147   6.373
  169DOPC   H3X20577   0.858   1.188   6.431
  169DOPC   H3Y20578   0.803   1.152   6.266
  169DOPC   C3420579   0.755   0.998   6.409
  169DOPC   H4X20580   0.726   0.991   6.516
  169DOPC   H4Y20581   0.854   0.948   6.398
  169DOPC   C3520582   0.653   0.920   6.324
  169DOPC   H5X20583   0.549   0.954   6.347
  169DOPC   H5Y20584   0.661   0.814   6.357
  169DOPC   C3620585   0.676   0.922   6.171
  169DOPC   H6X20586   0.785   0.932   6.153
  169DOPC   H6Y20587   0.645   0.825   6.128
  169DOPC   C3720588   0.601   1.033   6.095
  169DOPC   H7X20589   0.617   1.130   6.148
  169DOPC   H7Y20590   0.646   1.045   5.995
  169DOPC   C3820591   0.450   1.011   6.078
  169DOPC   H8X20592   0.403   1.110   6.060
  169DOPC   H8Y20593   0.406   0.973   6.173
  169DOPC   C3920594   0.417   0.917   5.964
  169DOPC   H9X20595   0.400   0.812   5.992
  169DOPC  C31020596   0.406   0.950   5.834
  169DOPC  H10X20597   0.380   0.872   5.761
  169DOPC  C31120598   0.425   1.087   5.775
  169DOPC  H11X20599   0.458   1.160   5.852
  169DOPC  H11Y20600   0.329   1.126   5.735
  169DOPC  C31220601   0.531   1.090   5.663
  169DOPC  H12X20602   0.629   1.059   5.705
  169DOPC  H12Y20603   0.543   1.195   5.628
  169DOPC  C31320604   0.500   1.003   5.540
  169DOPC  H13X20605   0.580   1.018   5.465
  169DOPC  H13Y20606   0.503   0.896   5.570
  169DOPC  C31420607   0.364   1.031   5.473
  169DOPC  H14X20608   0.352   0.957   5.391
  169DOPC  H14Y20609   0.283   1.012   5.547
  169DOPC  C31520610   0.347   1.171   5.413
  169DOPC  H15X20611   0.379   1.248   5.486
  169DOPC  H15Y20612   0.239   1.187   5.393
  169DOPC  C31620613   0.424   1.187   5.281
  169DOPC  H16X20614   0.531   1.162   5.298
  169DOPC  H16Y20615   0.384   1.113   5.209
  169DOPC  C31720616   0.415   1.326   5.217
  169DOPC  H17X20617   0.461   1.401   5.286
  169DOPC  H17Y20618   0.477   1.326   5.124
  169DOPC  C31820619   0.273   1.372   5.182
  169DOPC  H18X20620   0.224   1.296   5.117
  169DOPC  H18Y20621   0.213   1.384   5.274
  169DOPC  H18Z20622   0.275   1.469   5.128
  170DOPC     N20623   7.009   7.118   6.846
  170DOPC   C1220624   6.992   7.018   6.960
  170DOPC  H12A20625   6.972   7.072   7.051
  170DOPC  H12B20626   7.086   6.967   6.974
  170DOPC   C1320627   7.138   7.192   6.865
  170DOPC  H13A20628   7.157   7.260   6.783
  170DOPC  H13B20629   7.137   7.249   6.957
  170DOPC  H13C20630   7.220   7.122   6.870
  170DOPC   C1420631   6.895   7.215   6.846
  170DOPC  H14A20632   6.803   7.159   6.839
  170DOPC  H14B20633   6.892   7.269   6.939
  170DOPC  H14C20634   6.901   7.285   6.764
  170DOPC   C1520635   7.014   7.045   6.715
  170DOPC  H15A20636   7.024   7.112   6.631
  170DOPC  H15B20637   6.924   6.986   6.703
  170DOPC  H15C20638   7.098   6.977   6.712
  170DOPC   C1120639   6.882   6.910   6.945
  170DOPC  H11A20640   6.907   6.844   6.858
  170DOPC  H11B20641   6.885   6.843   7.034
  170DOPC     P20642   6.668   7.014   7.049
  170DOPC   O1320643   6.732   7.133   7.108
  170DOPC   O1420644   6.640   6.899   7.137
  170DOPC   O1220645   6.753   6.967   6.925
  170DOPC   O1120646   6.531   7.055   6.981
  170DOPC    C120647   6.525   7.163   6.886
  170DOPC    HA20648   6.621   7.218   6.875
  170DOPC    HB20649   6.451   7.237   6.923
  170DOPC    C220650   6.480   7.116   6.745
  170DOPC    HS20651   6.380   7.068   6.756
  170DOPC   O2120652   6.575   7.026   6.686
  170DOPC   C2120653   6.557   6.898   6.716
  170DOPC   O2220654   6.466   6.854   6.784
  170DOPC   C2220655   6.666   6.813   6.652
  170DOPC   H2R20656   6.703   6.743   6.730
  170DOPC   H2S20657   6.751   6.878   6.621
  170DOPC    C320658   6.461   7.238   6.650
  170DOPC    HX20659   6.396   7.312   6.701
  170DOPC    HY20660   6.406   7.204   6.560
  170DOPC   O3120661   6.588   7.300   6.621
  170DOPC   C3120662   6.640   7.268   6.502
  170DOPC   O3220663   6.582   7.213   6.411
  170DOPC   C3220664   6.787   7.308   6.500
  170DOPC   H2X20665   6.841   7.242   6.570
  170DOPC   H2Y20666   6.824   7.287   6.397
  170DOPC   C2320667   6.612   6.731   6.533
  170DOPC   H3R20668   6.521   6.676   6.562
  170DOPC   H3S20669   6.688   6.655   6.505
  170DOPC   C2420670   6.584   6.818   6.409
  170DOPC   H4R20671   6.678   6.867   6.376
  170DOPC   H4S20672   6.511   6.898   6.435
  170DOPC   C2520673   6.527   6.734   6.294
  170DOPC   H5R20674   6.430   6.690   6.325
  170DOPC   H5S20675   6.597   6.650   6.275
  170DOPC   C2620676   6.508   6.811   6.162
  170DOPC   H6R20677   6.460   6.743   6.089
  170DOPC   H6S20678   6.607   6.839   6.122
  170DOPC   C2720679   6.422   6.938   6.175
  170DOPC   H7R20680   6.480   7.016   6.229
  170DOPC   H7S20681   6.333   6.915   6.237
  170DOPC   C2820682   6.374   6.994   6.040
  170DOPC   H8R20683   6.316   7.087   6.059
  170DOPC   H8S20684   6.302   6.921   5.996
  170DOPC   C2920685   6.487   7.017   5.943
  170DOPC   H9R20686   6.524   6.926   5.894
  170DOPC  C21020687   6.545   7.135   5.913
  170DOPC  H10R20688   6.626   7.135   5.838
  170DOPC  C21120689   6.511   7.271   5.969
  170DOPC  H11R20690   6.604   7.324   5.999
  170DOPC  H11S20691   6.449   7.262   6.060
  170DOPC  C21220692   6.435   7.357   5.866
  170DOPC  H12R20693   6.408   7.454   5.913
  170DOPC  H12S20694   6.340   7.305   5.840
  170DOPC  C21320695   6.512   7.386   5.736
  170DOPC  H13R20696   6.440   7.431   5.664
  170DOPC  H13S20697   6.548   7.291   5.690
  170DOPC  C21420698   6.629   7.484   5.753
  170DOPC  H14R20699   6.703   7.445   5.826
  170DOPC  H14S20700   6.589   7.579   5.793
  170DOPC  C21520701   6.699   7.513   5.619
  170DOPC  H15R20702   6.744   7.614   5.622
  170DOPC  H15S20703   6.623   7.512   5.539
  170DOPC  C21620704   6.808   7.411   5.583
  170DOPC  H16R20705   6.774   7.310   5.617
  170DOPC  H16S20706   6.901   7.434   5.640
  170DOPC  C21720707   6.838   7.403   5.432
  170DOPC  H17R20708   6.746   7.369   5.381
  170DOPC  H17S20709   6.915   7.326   5.415
  170DOPC  C21820710   6.884   7.535   5.369
  170DOPC  H18R20711   6.903   7.521   5.260
  170DOPC  H18S20712   6.979   7.570   5.416
  170DOPC  H18T20713   6.807   7.614   5.382
  170DOPC   C3320714   6.811   7.457   6.536
  170DOPC   H3X20715   6.762   7.481   6.633
  170DOPC   H3Y20716   6.763   7.521   6.459
  170DOPC   C3420717   6.960   7.494   6.546
  170DOPC   H4X20718   7.003   7.447   6.637
  170DOPC   H4Y20719   6.967   7.604   6.560
  170DOPC   C3520720   7.044   7.454   6.425
  170DOPC   H5X20721   7.052   7.343   6.421
  170DOPC   H5Y20722   7.148   7.493   6.438
  170DOPC   C3620723   6.990   7.503   6.290
  170DOPC   H6X20724   6.888   7.461   6.274
  170DOPC   H6Y20725   6.980   7.614   6.291
  170DOPC   C3720726   7.081   7.461   6.174
  170DOPC   H7X20727   7.168   7.530   6.172
  170DOPC   H7Y20728   7.120   7.359   6.193
  170DOPC   C3820729   7.014   7.462   6.035
  170DOPC   H8X20730   7.094   7.449   5.959
  170DOPC   H8Y20731   6.970   7.562   6.018
  170DOPC   C3920732   6.908   7.355   6.022
  170DOPC   H9X20733   6.816   7.375   6.078
  170DOPC  C31020734   6.918   7.242   5.951
  170DOPC  H10X20735   6.834   7.171   5.952
  170DOPC  C31120736   7.038   7.198   5.870
  170DOPC  H11X20737   7.127   7.189   5.935
  170DOPC  H11Y20738   7.062   7.274   5.792
  170DOPC  C31220739   7.015   7.063   5.800
  170DOPC  H12X20740   6.988   6.986   5.875
  170DOPC  H12Y20741   7.110   7.031   5.752
  170DOPC  C31320742   6.906   7.068   5.691
  170DOPC  H13X20743   6.812   7.109   5.735
  170DOPC  H13Y20744   6.939   7.138   5.611
  170DOPC  C31420745   6.874   6.931   5.630
  170DOPC  H14X20746   6.964   6.895   5.576
  170DOPC  H14Y20747   6.854   6.858   5.712
  170DOPC  C31520748   6.753   6.930   5.535
  170DOPC  H15X20749   6.660   6.943   5.594
  170DOPC  H15Y20750   6.748   6.831   5.486
  170DOPC  C31620751   6.757   7.040   5.427
  170DOPC  H16X20752   6.748   7.139   5.478
  170DOPC  H16Y20753   6.855   7.038   5.374
  170DOPC  C31720754   6.644   7.031   5.323
  170DOPC  H17X20755   6.547   7.025   5.376
  170DOPC  H17Y20756   6.644   7.125   5.264
  170DOPC  C31820757   6.658   6.912   5.227
  170DOPC  H18X20758   6.577   6.915   5.150
  170DOPC  H18Y20759   6.756   6.916   5.175
  170DOPC  H18Z20760   6.650   6.816   5.281
  171DOPC     N20761   3.949   2.988   2.934
  171DOPC   C1220762   3.835   2.989   3.035
  171DOPC  H12A20763   3.851   3.069   3.106
  171DOPC  H12B20764   3.836   2.896   3.090
  171DOPC   C1320765   3.917   2.898   2.819
  171DOPC  H13A20766   3.901   2.796   2.851
  171DOPC  H13B20767   3.828   2.934   2.769
  171DOPC  H13C20768   3.997   2.897   2.747
  171DOPC   C1420769   4.080   2.947   2.994
  171DOPC  H14A20770   4.083   2.843   3.022
  171DOPC  H14B20771   4.158   2.961   2.920
  171DOPC  H14C20772   4.107   3.011   3.077
  171DOPC   C1520773   3.970   3.126   2.878
  171DOPC  H15A20774   4.050   3.126   2.805
  171DOPC  H15B20775   3.998   3.196   2.956
  171DOPC  H15C20776   3.879   3.164   2.834
  171DOPC   C1120777   3.691   3.011   2.981
  171DOPC  H11A20778   3.664   2.928   2.912
  171DOPC  H11B20779   3.619   3.005   3.065
  171DOPC     P20780   3.668   3.272   2.987
  171DOPC   O1320781   3.528   3.317   2.975
  171DOPC   O1420782   3.776   3.361   2.937
  171DOPC   O1220783   3.680   3.134   2.910
  171DOPC   O1120784   3.699   3.232   3.137
  171DOPC    C120785   3.757   3.327   3.227
  171DOPC    HA20786   3.711   3.315   3.328
  171DOPC    HB20787   3.738   3.432   3.196
  171DOPC    C220788   3.910   3.306   3.242
  171DOPC    HS20789   3.951   3.297   3.139
  171DOPC   O2120790   3.932   3.185   3.319
  171DOPC   C2120791   4.054   3.134   3.304
  171DOPC   O2220792   4.135   3.171   3.222
  171DOPC   C2220793   4.077   3.016   3.398
  171DOPC   H2R20794   4.183   3.024   3.432
  171DOPC   H2S20795   4.067   2.923   3.338
  171DOPC    C320796   3.978   3.429   3.309
  171DOPC    HX20797   3.969   3.513   3.237
  171DOPC    HY20798   4.087   3.411   3.322
  171DOPC   O3120799   3.912   3.468   3.431
  171DOPC   C3120800   3.960   3.416   3.543
  171DOPC   O3220801   4.059   3.345   3.553
  171DOPC   C3220802   3.871   3.459   3.660
  171DOPC   H2X20803   3.924   3.433   3.754
  171DOPC   H2Y20804   3.862   3.570   3.654
  171DOPC   C2320805   3.985   3.010   3.522
  171DOPC   H3R20806   3.881   2.988   3.492
  171DOPC   H3S20807   3.985   3.108   3.574
  171DOPC   C2420808   4.034   2.904   3.623
  171DOPC   H4R20809   4.138   2.928   3.653
  171DOPC   H4S20810   4.035   2.804   3.574
  171DOPC   C2520811   3.946   2.898   3.748
  171DOPC   H5R20812   3.842   2.874   3.719
  171DOPC   H5S20813   3.944   2.999   3.796
  171DOPC   C2620814   3.995   2.794   3.850
  171DOPC   H6R20815   4.097   2.821   3.885
  171DOPC   H6S20816   4.002   2.696   3.799
  171DOPC   C2720817   3.901   2.780   3.971
  171DOPC   H7R20818   3.927   2.687   4.027
  171DOPC   H7S20819   3.798   2.766   3.932
  171DOPC   C2820820   3.902   2.900   4.068
  171DOPC   H8R20821   3.814   2.890   4.135
  171DOPC   H8S20822   3.886   2.994   4.010
  171DOPC   C2920823   4.027   2.907   4.153
  171DOPC   H9R20824   4.038   2.823   4.223
  171DOPC  C21020825   4.121   3.003   4.151
  171DOPC  H10R20826   4.205   2.995   4.221
  171DOPC  C21120827   4.124   3.125   4.063
  171DOPC  H11R20828   4.084   3.102   3.962
  171DOPC  H11S20829   4.229   3.158   4.048
  171DOPC  C21220830   4.044   3.244   4.120
  171DOPC  H12R20831   3.936   3.218   4.120
  171DOPC  H12S20832   4.056   3.331   4.051
  171DOPC  C21320833   4.085   3.287   4.262
  171DOPC  H13R20834   4.195   3.300   4.265
  171DOPC  H13S20835   4.058   3.207   4.334
  171DOPC  C21420836   4.019   3.419   4.306
  171DOPC  H14R20837   3.909   3.411   4.299
  171DOPC  H14S20838   4.051   3.499   4.235
  171DOPC  C21520839   4.058   3.461   4.448
  171DOPC  H15R20840   4.047   3.572   4.458
  171DOPC  H15S20841   4.165   3.438   4.466
  171DOPC  C21620842   3.970   3.396   4.556
  171DOPC  H16R20843   3.971   3.285   4.543
  171DOPC  H16S20844   3.866   3.431   4.540
  171DOPC  C21720845   4.012   3.430   4.700
  171DOPC  H17R20846   3.922   3.425   4.764
  171DOPC  H17S20847   4.048   3.535   4.703
  171DOPC  C21820848   4.118   3.336   4.757
  171DOPC  H18R20849   4.078   3.232   4.763
  171DOPC  H18S20850   4.148   3.368   4.859
  171DOPC  H18T20851   4.208   3.335   4.692
  171DOPC   C3320852   3.731   3.394   3.656
  171DOPC   H3X20853   3.738   3.287   3.685
  171DOPC   H3Y20854   3.692   3.398   3.552
  171DOPC   C3420855   3.627   3.466   3.744
  171DOPC   H4X20856   3.527   3.420   3.727
  171DOPC   H4Y20857   3.621   3.572   3.711
  171DOPC   C3520858   3.656   3.463   3.895
  171DOPC   H5X20859   3.590   3.537   3.944
  171DOPC   H5Y20860   3.761   3.493   3.915
  171DOPC   C3620861   3.627   3.326   3.958
  171DOPC   H6X20862   3.520   3.300   3.942
  171DOPC   H6Y20863   3.689   3.249   3.908
  171DOPC   C3720864   3.657   3.324   4.109
  171DOPC   H7X20865   3.764   3.350   4.121
  171DOPC   H7Y20866   3.598   3.402   4.161
  171DOPC   C3820867   3.627   3.186   4.172
  171DOPC   H8X20868   3.642   3.109   4.094
  171DOPC   H8Y20869   3.519   3.183   4.198
  171DOPC   C3920870   3.714   3.154   4.290
  171DOPC   H9X20871   3.794   3.081   4.271
  171DOPC  C31020872   3.706   3.208   4.413
  171DOPC  H10X20873   3.778   3.175   4.490
  171DOPC  C31120874   3.609   3.313   4.461
  171DOPC  H11X20875   3.523   3.325   4.391
  171DOPC  H11Y20876   3.659   3.412   4.467
  171DOPC  C31220877   3.556   3.276   4.601
  171DOPC  H12X20878   3.642   3.262   4.669
  171DOPC  H12Y20879   3.501   3.180   4.595
  171DOPC  C31320880   3.465   3.385   4.660
  171DOPC  H13X20881   3.524   3.478   4.674
  171DOPC  H13Y20882   3.384   3.407   4.587
  171DOPC  C31420883   3.400   3.346   4.795
  171DOPC  H14X20884   3.347   3.435   4.835
  171DOPC  H14Y20885   3.324   3.268   4.776
  171DOPC  C31520886   3.498   3.293   4.901
  171DOPC  H15X20887   3.545   3.199   4.864
  171DOPC  H15Y20888   3.441   3.267   4.992
  171DOPC  C31620889   3.608   3.393   4.939
  171DOPC  H16X20890   3.669   3.418   4.850
  171DOPC  H16Y20891   3.559   3.487   4.973
  171DOPC  C31720892   3.701   3.342   5.050
  171DOPC  H17X20893   3.764   3.426   5.085
  171DOPC  H17Y20894   3.638   3.310   5.136
  171DOPC  C31820895   3.791   3.226   5.008
  171DOPC  H18X20896   3.854   3.255   4.921
  171DOPC  H18Y20897   3.858   3.196   5.091
  171DOPC  H18Z20898   3.730   3.138   4.978
  172DOPC     N20899   3.130   4.372   2.910
  172DOPC   C1220900   3.082   4.365   3.055
  172DOPC  H12A20901   3.098   4.460   3.104
  172DOPC  H12B20902   3.143   4.294   3.109
  172DOPC   C1320903   3.094   4.246   2.835
  172DOPC  H13A20904   3.140   4.159   2.880
  172DOPC  H13B20905   2.987   4.231   2.834
  172DOPC  H13C20906   3.128   4.251   2.733
  172DOPC   C1420907   3.279   4.388   2.901
  172DOPC  H14A20908   3.330   4.305   2.947
  172DOPC  H14B20909   3.310   4.391   2.798
  172DOPC  H14C20910   3.311   4.480   2.949
  172DOPC   C1520911   3.065   4.487   2.839
  172DOPC  H15A20912   3.097   4.582   2.880
  172DOPC  H15B20913   2.958   4.482   2.852
  172DOPC  H15C20914   3.087   4.486   2.733
  172DOPC   C1120915   2.933   4.328   3.080
  172DOPC  H11A20916   2.912   4.228   3.036
  172DOPC  H11B20917   2.917   4.318   3.189
  172DOPC     P20918   2.810   4.558   3.101
  172DOPC   O1320919   2.694   4.531   3.187
  172DOPC   O1420920   2.794   4.663   2.997
  172DOPC   O1220921   2.845   4.424   3.022
  172DOPC   O1120922   2.942   4.584   3.185
  172DOPC    C120923   2.990   4.718   3.204
  172DOPC    HA20924   2.923   4.773   3.274
  172DOPC    HB20925   2.994   4.774   3.109
  172DOPC    C220926   3.133   4.719   3.264
  172DOPC    HS20927   3.198   4.654   3.200
  172DOPC   O2120928   3.130   4.675   3.400
  172DOPC   C2120929   3.153   4.548   3.423
  172DOPC   O2220930   3.185   4.465   3.339
  172DOPC   C2220931   3.135   4.520   3.573
  172DOPC   H2R20932   3.150   4.411   3.590
  172DOPC   H2S20933   3.030   4.545   3.597
  172DOPC    C320934   3.195   4.862   3.258
  172DOPC    HX20935   3.200   4.892   3.152
  172DOPC    HY20936   3.300   4.858   3.295
  172DOPC   O3120937   3.113   4.957   3.330
  172DOPC   C3120938   3.141   4.966   3.460
  172DOPC   O3220939   3.247   4.935   3.512
  172DOPC   C3220940   3.018   5.013   3.536
  172DOPC   H2X20941   3.043   5.108   3.588
  172DOPC   H2Y20942   2.936   5.032   3.464
  172DOPC   C2320943   3.230   4.603   3.663
  172DOPC   H3R20944   3.237   4.706   3.623
  172DOPC   H3S20945   3.333   4.560   3.662
  172DOPC   C2420946   3.181   4.618   3.809
  172DOPC   H4R20947   3.075   4.651   3.806
  172DOPC   H4S20948   3.238   4.699   3.858
  172DOPC   C2520949   3.190   4.491   3.895
  172DOPC   H5R20950   3.143   4.407   3.841
  172DOPC   H5S20951   3.130   4.507   3.988
  172DOPC   C2620952   3.332   4.450   3.939
  172DOPC   H6R20953   3.393   4.427   3.849
  172DOPC   H6S20954   3.325   4.356   3.998
  172DOPC   C2720955   3.410   4.554   4.024
  172DOPC   H7R20956   3.436   4.640   3.959
  172DOPC   H7S20957   3.506   4.508   4.057
  172DOPC   C2820958   3.336   4.609   4.149
  172DOPC   H8R20959   3.247   4.665   4.113
  172DOPC   H8S20960   3.403   4.685   4.195
  172DOPC   C2920961   3.293   4.504   4.248
  172DOPC   H9R20962   3.231   4.424   4.204
  172DOPC  C21020963   3.318   4.499   4.380
  172DOPC  H10R20964   3.277   4.414   4.437
  172DOPC  C21120965   3.397   4.596   4.465
  172DOPC  H11R20966   3.447   4.673   4.402
  172DOPC  H11S20967   3.478   4.542   4.518
  172DOPC  C21220968   3.313   4.672   4.570
  172DOPC  H12R20969   3.236   4.732   4.517
  172DOPC  H12S20970   3.379   4.744   4.623
  172DOPC  C21320971   3.242   4.583   4.675
  172DOPC  H13R20972   3.180   4.508   4.622
  172DOPC  H13S20973   3.173   4.647   4.734
  172DOPC  C21420974   3.335   4.510   4.773
  172DOPC  H14R20975   3.418   4.462   4.716
  172DOPC  H14S20976   3.277   4.429   4.823
  172DOPC  C21520977   3.395   4.598   4.884
  172DOPC  H15R20978   3.440   4.690   4.841
  172DOPC  H15S20979   3.477   4.541   4.933
  172DOPC  C21620980   3.294   4.636   4.993
  172DOPC  H16R20981   3.242   4.545   5.028
  172DOPC  H16S20982   3.216   4.704   4.951
  172DOPC  C21720983   3.359   4.705   5.115
  172DOPC  H17R20984   3.406   4.799   5.081
  172DOPC  H17S20985   3.439   4.639   5.153
  172DOPC  C21820986   3.260   4.734   5.228
  172DOPC  H18R20987   3.213   4.641   5.264
  172DOPC  H18S20988   3.179   4.802   5.193
  172DOPC  H18T20989   3.311   4.784   5.313
  172DOPC   C3320990   2.974   4.907   3.640
  172DOPC   H3X20991   3.046   4.905   3.724
  172DOPC   H3Y20992   2.974   4.806   3.593
  172DOPC   C3420993   2.832   4.934   3.693
  172DOPC   H4X20994   2.762   4.934   3.606
  172DOPC   H4Y20995   2.828   5.035   3.739
  172DOPC   C3520996   2.785   4.829   3.794
  172DOPC   H5X20997   2.803   4.727   3.752
  172DOPC   H5Y20998   2.675   4.840   3.808
  172DOPC   C3620999   2.852   4.839   3.931
  172DOPC   H6X21000   2.959   4.813   3.919
  172DOPC   H6Y21001   2.848   4.945   3.967
  172DOPC   C3721002   2.788   4.748   4.037
  172DOPC   H7X21003   2.722   4.808   4.103
  172DOPC   H7Y21004   2.723   4.674   3.986
  172DOPC   C3821005   2.889   4.670   4.123
  172DOPC   H8X21006   2.944   4.601   4.055
  172DOPC   H8Y21007   2.832   4.606   4.193
  172DOPC   C3921008   2.986   4.761   4.194
  172DOPC   H9X21009   3.044   4.826   4.128
  172DOPC  C31021010   3.010   4.768   4.326
  172DOPC  H10X21011   3.087   4.838   4.362
  172DOPC  C31121012   2.945   4.687   4.435
  172DOPC  H11X21013   3.012   4.604   4.465
  172DOPC  H11Y21014   2.849   4.641   4.403
  172DOPC  C31221015   2.917   4.773   4.560
  172DOPC  H12X21016   2.838   4.848   4.536
  172DOPC  H12Y21017   3.009   4.828   4.588
  172DOPC  C31321018   2.872   4.688   4.679
  172DOPC  H13X21019   2.780   4.632   4.651
  172DOPC  H13Y21020   2.950   4.612   4.701
  172DOPC  C31421021   2.844   4.768   4.807
  172DOPC  H14X21022   2.756   4.834   4.792
  172DOPC  H14Y21023   2.819   4.695   4.887
  172DOPC  C31521024   2.962   4.854   4.856
  172DOPC  H15X21025   2.958   4.955   4.809
  172DOPC  H15Y21026   3.057   4.806   4.822
  172DOPC  C31621027   2.969   4.866   5.009
  172DOPC  H16X21028   2.972   4.763   5.050
  172DOPC  H16Y21029   3.064   4.916   5.038
  172DOPC  C31721030   2.852   4.942   5.073
  172DOPC  H17X21031   2.757   4.912   5.025
  172DOPC  H17Y21032   2.845   4.911   5.180
  172DOPC  C31821033   2.868   5.094   5.068
  172DOPC  H18X21034   2.780   5.144   5.112
  172DOPC  H18Y21035   2.958   5.125   5.125
  172DOPC  H18Z21036   2.880   5.129   4.963
  173DOPC     N21037   2.217   3.027   2.900
  173DOPC   C1221038   2.321   3.093   2.990
  173DOPC  H12A21039   2.380   3.162   2.930
  173DOPC  H12B21040   2.392   3.018   3.023
  173DOPC   C1321041   2.282   2.934   2.801
  173DOPC  H13A21042   2.209   2.885   2.739
  173DOPC  H13B21043   2.352   2.987   2.738
  173DOPC  H13C21044   2.338   2.856   2.850
  173DOPC   C1421045   2.144   3.134   2.826
  173DOPC  H14A21046   2.106   3.205   2.898
  173DOPC  H14B21047   2.210   3.188   2.760
  173DOPC  H14C21048   2.061   3.094   2.768
  173DOPC   C1521049   2.119   2.950   2.983
  173DOPC  H15A21050   2.073   3.017   3.054
  173DOPC  H15B21051   2.169   2.871   3.039
  173DOPC  H15C21052   2.043   2.905   2.922
  173DOPC   C1121053   2.268   3.170   3.115
  173DOPC  H11A21054   2.231   3.096   3.189
  173DOPC  H11B21055   2.355   3.222   3.161
  173DOPC     P21056   2.107   3.358   3.193
  173DOPC   O1321057   1.992   3.430   3.133
  173DOPC   O1421058   2.216   3.445   3.242
  173DOPC   O1221059   2.166   3.263   3.081
  173DOPC   O1121060   2.060   3.259   3.305
  173DOPC    C121061   1.954   3.164   3.288
  173DOPC    HA21062   1.969   3.084   3.363
  173DOPC    HB21063   1.956   3.116   3.188
  173DOPC    C221064   1.812   3.225   3.313
  173DOPC    HS21065   1.781   3.270   3.216
  173DOPC   O2121066   1.822   3.326   3.414
  173DOPC   C2121067   1.727   3.416   3.416
  173DOPC   O2221068   1.636   3.426   3.334
  173DOPC   C2221069   1.749   3.514   3.531
  173DOPC   H2R21070   1.701   3.472   3.622
  173DOPC   H2S21071   1.695   3.607   3.503
  173DOPC    C321072   1.708   3.116   3.353
  173DOPC    HX21073   1.696   3.047   3.267
  173DOPC    HY21074   1.608   3.163   3.369
  173DOPC   O3121075   1.751   3.039   3.468
  173DOPC   C3121076   1.724   3.091   3.588
  173DOPC   O3221077   1.660   3.192   3.608
  173DOPC   C3221078   1.785   3.001   3.696
  173DOPC   H2X21079   1.768   2.895   3.667
  173DOPC   H2Y21080   1.894   3.020   3.696
  173DOPC   C2321081   1.898   3.546   3.560
  173DOPC   H3R21082   1.905   3.648   3.603
  173DOPC   H3S21083   1.959   3.545   3.467
  173DOPC   C2421084   1.959   3.450   3.663
  173DOPC   H4R21085   1.952   3.346   3.627
  173DOPC   H4S21086   1.900   3.457   3.756
  173DOPC   C2521087   2.107   3.481   3.694
  173DOPC   H5R21088   2.121   3.590   3.707
  173DOPC   H5S21089   2.168   3.450   3.606
  173DOPC   C2621090   2.158   3.408   3.820
  173DOPC   H6R21091   2.269   3.410   3.821
  173DOPC   H6S21092   2.125   3.302   3.814
  173DOPC   C2721093   2.107   3.474   3.949
  173DOPC   H7R21094   1.997   3.488   3.944
  173DOPC   H7S21095   2.153   3.574   3.958
  173DOPC   C2821096   2.140   3.399   4.080
  173DOPC   H8R21097   2.095   3.459   4.163
  173DOPC   H8S21098   2.249   3.402   4.097
  173DOPC   C2921099   2.088   3.258   4.085
  173DOPC   H9R21100   2.156   3.183   4.041
  173DOPC  C21021101   1.970   3.218   4.135
  173DOPC  H10R21102   1.948   3.110   4.133
  173DOPC  C21121103   1.862   3.303   4.197
  173DOPC  H11R21104   1.768   3.289   4.141
  173DOPC  H11S21105   1.886   3.412   4.191
  173DOPC  C21221106   1.835   3.267   4.345
  173DOPC  H12R21107   1.752   3.330   4.382
  173DOPC  H12S21108   1.925   3.292   4.406
  173DOPC  C21321109   1.800   3.119   4.364
  173DOPC  H13R21110   1.889   3.058   4.339
  173DOPC  H13S21111   1.718   3.091   4.294
  173DOPC  C21421112   1.759   3.081   4.507
  173DOPC  H14R21113   1.661   3.127   4.532
  173DOPC  H14S21114   1.834   3.122   4.578
  173DOPC  C21521115   1.752   2.928   4.521
  173DOPC  H15R21116   1.854   2.889   4.500
  173DOPC  H15S21117   1.685   2.888   4.442
  173DOPC  C21621118   1.706   2.875   4.657
  173DOPC  H16R21119   1.722   2.765   4.658
  173DOPC  H16S21120   1.597   2.892   4.668
  173DOPC  C21721121   1.779   2.935   4.778
  173DOPC  H17R21122   1.740   2.887   4.870
  173DOPC  H17S21123   1.752   3.043   4.785
  173DOPC  C21821124   1.931   2.921   4.775
  173DOPC  H18R21125   1.974   2.981   4.692
  173DOPC  H18S21126   1.960   2.815   4.761
  173DOPC  H18T21127   1.975   2.957   4.870
  173DOPC   C3321128   1.727   3.028   3.837
  173DOPC   H3X21129   1.621   2.995   3.843
  173DOPC   H3Y21130   1.730   3.137   3.856
  173DOPC   C3421131   1.809   2.961   3.950
  173DOPC   H4X21132   1.775   3.002   4.048
  173DOPC   H4Y21133   1.915   2.989   3.936
  173DOPC   C3521134   1.797   2.808   3.956
  173DOPC   H5X21135   1.803   2.768   3.853
  173DOPC   H5Y21136   1.698   2.779   3.998
  173DOPC   C3621137   1.910   2.742   4.037
  173DOPC   H6X21138   1.906   2.633   4.020
  173DOPC   H6Y21139   2.008   2.779   3.997
  173DOPC   C3721140   1.909   2.768   4.189
  173DOPC   H7X21141   1.915   2.877   4.208
  173DOPC   H7Y21142   1.813   2.730   4.231
  173DOPC   C3821143   2.028   2.697   4.257
  173DOPC   H8X21144   2.122   2.737   4.212
  173DOPC   H8Y21145   2.023   2.590   4.229
  173DOPC   C3921146   2.032   2.706   4.408
  173DOPC   H9X21147   1.955   2.647   4.459
  173DOPC  C31021148   2.118   2.778   4.484
  173DOPC  H10X21149   2.108   2.772   4.593
  173DOPC  C31121150   2.229   2.868   4.436
  173DOPC  H11X21151   2.219   2.890   4.327
  173DOPC  H11Y21152   2.328   2.818   4.450
  173DOPC  C31221153   2.231   3.003   4.511
  173DOPC  H12X21154   2.130   3.048   4.510
  173DOPC  H12Y21155   2.298   3.072   4.455
  173DOPC  C31321156   2.284   2.994   4.655
  173DOPC  H13X21157   2.222   2.923   4.714
  173DOPC  H13Y21158   2.388   2.953   4.652
  173DOPC  C31421159   2.286   3.130   4.726
  173DOPC  H14X21160   2.337   3.203   4.658
  173DOPC  H14Y21161   2.182   3.166   4.741
  173DOPC  C31521162   2.363   3.130   4.859
  173DOPC  H15X21163   2.379   3.235   4.891
  173DOPC  H15Y21164   2.463   3.086   4.842
  173DOPC  C31621165   2.294   3.054   4.974
  173DOPC  H16X21166   2.272   2.950   4.940
  173DOPC  H16Y21167   2.364   3.047   5.059
  173DOPC  C31721168   2.164   3.119   5.024
  173DOPC  H17X21169   2.093   3.129   4.940
  173DOPC  H17Y21170   2.116   3.049   5.097
  173DOPC  C31821171   2.182   3.255   5.092
  173DOPC  H18X21172   2.252   3.247   5.177
  173DOPC  H18Y21173   2.221   3.330   5.020
  173DOPC  H18Z21174   2.084   3.292   5.131
  174DOPC     N21175   4.912   2.394   2.945
  174DOPC   C1221176   4.980   2.269   2.887
  174DOPC  H12A21177   5.067   2.300   2.831
  174DOPC  H12B21178   4.915   2.221   2.816
  174DOPC   C1321179   4.836   2.466   2.839
  174DOPC  H13A21180   4.801   2.563   2.874
  174DOPC  H13B21181   4.901   2.488   2.755
  174DOPC  H13C21182   4.752   2.408   2.802
  174DOPC   C1421183   5.017   2.487   2.996
  174DOPC  H14A21184   5.087   2.434   3.060
  174DOPC  H14B21185   5.075   2.528   2.915
  174DOPC  H14C21186   4.976   2.570   3.051
  174DOPC   C1521187   4.822   2.352   3.057
  174DOPC  H15A21188   4.882   2.298   3.128
  174DOPC  H15B21189   4.745   2.286   3.022
  174DOPC  H15C21190   4.778   2.438   3.106
  174DOPC   C1121191   5.025   2.160   2.989
  174DOPC  H11A21192   4.935   2.106   3.025
  174DOPC  H11B21193   5.086   2.084   2.936
  174DOPC     P21194   5.250   2.230   3.109
  174DOPC   O1321195   5.281   2.373   3.086
  174DOPC   O1421196   5.313   2.135   3.016
  174DOPC   O1221197   5.093   2.215   3.101
  174DOPC   O1121198   5.281   2.194   3.260
  174DOPC    C121199   5.174   2.172   3.353
  174DOPC    HA21200   5.215   2.133   3.448
  174DOPC    HB21201   5.105   2.094   3.314
  174DOPC    C221202   5.093   2.302   3.386
  174DOPC    HS21203   5.086   2.362   3.293
  174DOPC   O2121204   5.163   2.376   3.487
  174DOPC   C2121205   5.124   2.501   3.501
  174DOPC   O2221206   5.039   2.558   3.435
  174DOPC   C2221207   5.204   2.565   3.615
  174DOPC   H2R21208   5.245   2.661   3.577
  174DOPC   H2S21209   5.288   2.498   3.642
  174DOPC    C321210   4.946   2.268   3.427
  174DOPC    HX21211   4.904   2.212   3.341
  174DOPC    HY21212   4.888   2.362   3.437
  174DOPC   O3121213   4.940   2.192   3.549
  174DOPC   C3121214   4.824   2.130   3.567
  174DOPC   O3221215   4.731   2.131   3.487
  174DOPC   C3221216   4.820   2.058   3.702
  174DOPC   H2X21217   4.745   2.111   3.765
  174DOPC   H2Y21218   4.782   1.955   3.683
  174DOPC   C2321219   5.115   2.590   3.739
  174DOPC   H3R21220   5.035   2.664   3.714
  174DOPC   H3S21221   5.178   2.636   3.818
  174DOPC   C2421222   5.051   2.462   3.794
  174DOPC   H4R21223   5.127   2.382   3.804
  174DOPC   H4S21224   4.975   2.426   3.721
  174DOPC   C2521225   4.983   2.485   3.929
  174DOPC   H5R21226   4.898   2.414   3.942
  174DOPC   H5S21227   4.941   2.588   3.931
  174DOPC   C2621228   5.078   2.466   4.048
  174DOPC   H6R21229   5.179   2.504   4.022
  174DOPC   H6S21230   5.088   2.358   4.070
  174DOPC   C2721231   5.029   2.542   4.173
  174DOPC   H7R21232   4.919   2.527   4.184
  174DOPC   H7S21233   5.045   2.650   4.154
  174DOPC   C2821234   5.100   2.502   4.303
  174DOPC   H8R21235   5.090   2.587   4.374
  174DOPC   H8S21236   5.209   2.491   4.284
  174DOPC   C2921237   5.043   2.375   4.360
  174DOPC   H9R21238   5.072   2.283   4.307
  174DOPC  C21021239   4.960   2.364   4.466
  174DOPC  H10R21240   4.924   2.264   4.493
  174DOPC  C21121241   4.906   2.475   4.553
  174DOPC  H11R21242   4.798   2.490   4.533
  174DOPC  H11S21243   4.955   2.573   4.531
  174DOPC  C21221244   4.925   2.449   4.705
  174DOPC  H12R21245   4.881   2.534   4.760
  174DOPC  H12S21246   5.033   2.447   4.728
  174DOPC  C21321247   4.861   2.319   4.757
  174DOPC  H13R21248   4.884   2.309   4.865
  174DOPC  H13S21249   4.907   2.232   4.706
  174DOPC  C21421250   4.708   2.312   4.739
  174DOPC  H14R21251   4.681   2.335   4.634
  174DOPC  H14S21252   4.661   2.391   4.802
  174DOPC  C21521253   4.647   2.176   4.776
  174DOPC  H15R21254   4.538   2.189   4.794
  174DOPC  H15S21255   4.693   2.139   4.870
  174DOPC  C21621256   4.665   2.074   4.663
  174DOPC  H16R21257   4.774   2.059   4.644
  174DOPC  H16S21258   4.620   2.116   4.570
  174DOPC  C21721259   4.601   1.937   4.690
  174DOPC  H17R21260   4.598   1.880   4.595
  174DOPC  H17S21261   4.496   1.954   4.722
  174DOPC  C21821262   4.675   1.854   4.795
  174DOPC  H18R21263   4.619   1.760   4.817
  174DOPC  H18S21264   4.687   1.910   4.889
  174DOPC  H18T21265   4.776   1.826   4.758
  174DOPC   C3321266   4.955   2.053   3.776
  174DOPC   H3X21267   4.993   2.156   3.793
  174DOPC   H3Y21268   5.030   2.001   3.712
  174DOPC   C3421269   4.944   1.979   3.910
  174DOPC   H4X21270   4.888   1.885   3.894
  174DOPC   H4Y21271   4.887   2.042   3.982
  174DOPC   C3521272   5.081   1.943   3.970
  174DOPC   H5X21273   5.138   1.883   3.896
  174DOPC   H5Y21274   5.066   1.880   4.060
  174DOPC   C3621275   5.165   2.066   4.008
  174DOPC   H6X21276   5.174   2.135   3.922
  174DOPC   H6Y21277   5.113   2.121   4.090
  174DOPC   C3721278   5.306   2.028   4.055
  174DOPC   H7X21279   5.298   1.954   4.137
  174DOPC   H7Y21280   5.359   1.978   3.971
  174DOPC   C3821281   5.386   2.151   4.102
  174DOPC   H8X21282   5.328   2.201   4.182
  174DOPC   H8Y21283   5.392   2.223   4.018
  174DOPC   C3921284   5.524   2.114   4.150
  174DOPC   H9X21285   5.604   2.123   4.076
  174DOPC  C31021286   5.553   2.071   4.274
  174DOPC  H10X21287   5.657   2.048   4.300
  174DOPC  C31121288   5.453   2.052   4.385
  174DOPC  H11X21289   5.483   1.967   4.451
  174DOPC  H11Y21290   5.353   2.025   4.344
  174DOPC  C31221291   5.434   2.178   4.472
  174DOPC  H12X21292   5.415   2.266   4.407
  174DOPC  H12Y21293   5.526   2.198   4.531
  174DOPC  C31321294   5.314   2.162   4.566
  174DOPC  H13X21295   5.228   2.129   4.504
  174DOPC  H13Y21296   5.334   2.083   4.641
  174DOPC  C31421297   5.272   2.292   4.636
  174DOPC  H14X21298   5.252   2.370   4.559
  174DOPC  H14Y21299   5.177   2.274   4.691
  174DOPC  C31521300   5.374   2.348   4.736
  174DOPC  H15X21301   5.337   2.446   4.773
  174DOPC  H15Y21302   5.471   2.367   4.684
  174DOPC  C31621303   5.398   2.257   4.857
  174DOPC  H16X21304   5.300   2.228   4.901
  174DOPC  H16Y21305   5.448   2.163   4.823
  174DOPC  C31721306   5.483   2.325   4.964
  174DOPC  H17X21307   5.581   2.354   4.918
  174DOPC  H17Y21308   5.433   2.418   4.996
  174DOPC  C31821309   5.509   2.237   5.087
  174DOPC  H18X21310   5.562   2.144   5.058
  174DOPC  H18Y21311   5.570   2.291   5.162
  174DOPC  H18Z21312   5.412   2.209   5.134
  175DOPC     N21313   3.176   5.764   2.975
  175DOPC   C1221314   3.181   5.917   2.972
  175DOPC  H12A21315   3.111   5.951   2.898
  175DOPC  H12B21316   3.279   5.948   2.939
  175DOPC   C1321317   3.213   5.711   2.840
  175DOPC  H13A21318   3.146   5.748   2.764
  175DOPC  H13B21319   3.313   5.740   2.812
  175DOPC  H13C21320   3.205   5.603   2.838
  175DOPC   C1421321   3.037   5.719   3.007
  175DOPC  H14A21322   3.028   5.612   3.002
  175DOPC  H14B21323   3.008   5.757   3.103
  175DOPC  H14C21324   2.968   5.764   2.937
  175DOPC   C1521325   3.271   5.709   3.077
  175DOPC  H15A21326   3.372   5.740   3.055
  175DOPC  H15B21327   3.267   5.601   3.078
  175DOPC  H15C21328   3.244   5.746   3.175
  175DOPC   C1121329   3.144   5.993   3.102
  175DOPC  H11A21330   3.206   5.956   3.187
  175DOPC  H11B21331   3.169   6.101   3.090
  175DOPC     P21332   2.896   6.049   3.047
  175DOPC   O1321333   2.899   5.984   2.913
  175DOPC   O1421334   2.918   6.195   3.049
  175DOPC   O1221335   3.006   5.977   3.136
  175DOPC   O1121336   2.759   6.014   3.116
  175DOPC    C121337   2.716   5.880   3.141
  175DOPC    HA21338   2.781   5.804   3.092
  175DOPC    HB21339   2.614   5.867   3.100
  175DOPC    C221340   2.710   5.848   3.293
  175DOPC    HS21341   2.636   5.919   3.336
  175DOPC   O2121342   2.841   5.867   3.350
  175DOPC   C2121343   2.842   5.894   3.479
  175DOPC   O2221344   2.744   5.914   3.549
  175DOPC   C2221345   2.987   5.891   3.526
  175DOPC   H2R21346   3.048   5.951   3.455
  175DOPC   H2S21347   3.020   5.785   3.519
  175DOPC    C321348   2.661   5.702   3.319
  175DOPC    HX21349   2.567   5.688   3.263
  175DOPC    HY21350   2.635   5.691   3.426
  175DOPC   O3121351   2.759   5.605   3.272
  175DOPC   C3121352   2.842   5.560   3.367
  175DOPC   O3221353   2.834   5.586   3.485
  175DOPC   C3221354   2.953   5.475   3.303
  175DOPC   H2X21355   2.914   5.435   3.207
  175DOPC   H2Y21356   3.039   5.542   3.281
  175DOPC   C2321357   3.008   5.940   3.671
  175DOPC   H3R21358   3.110   5.908   3.703
  175DOPC   H3S21359   2.935   5.893   3.740
  175DOPC   C2421360   3.003   6.093   3.683
  175DOPC   H4R21361   2.897   6.127   3.675
  175DOPC   H4S21362   3.059   6.138   3.598
  175DOPC   C2521363   3.066   6.145   3.813
  175DOPC   H5R21364   3.067   6.256   3.810
  175DOPC   H5S21365   3.171   6.110   3.816
  175DOPC   C2621366   2.996   6.100   3.942
  175DOPC   H6R21367   3.057   6.133   4.028
  175DOPC   H6S21368   2.990   5.989   3.945
  175DOPC   C2721369   2.855   6.161   3.956
  175DOPC   H7R21370   2.839   6.232   3.872
  175DOPC   H7S21371   2.850   6.221   4.049
  175DOPC   C2821372   2.742   6.057   3.953
  175DOPC   H8R21373   2.755   5.992   3.864
  175DOPC   H8S21374   2.646   6.111   3.938
  175DOPC   C2921375   2.737   5.980   4.082
  175DOPC   H9R21376   2.756   6.041   4.172
  175DOPC  C21021377   2.713   5.849   4.098
  175DOPC  H10R21378   2.712   5.809   4.200
  175DOPC  C21121379   2.684   5.746   3.992
  175DOPC  H11R21380   2.678   5.790   3.890
  175DOPC  H11S21381   2.584   5.701   4.011
  175DOPC  C21221382   2.788   5.631   3.989
  175DOPC  H12R21383   2.883   5.671   3.947
  175DOPC  H12S21384   2.751   5.553   3.919
  175DOPC  C21321385   2.818   5.566   4.126
  175DOPC  H13R21386   2.871   5.640   4.189
  175DOPC  H13S21387   2.887   5.481   4.110
  175DOPC  C21421388   2.694   5.515   4.201
  175DOPC  H14R21389   2.644   5.438   4.138
  175DOPC  H14S21390   2.620   5.598   4.215
  175DOPC  C21521391   2.727   5.455   4.338
  175DOPC  H15R21392   2.810   5.382   4.326
  175DOPC  H15S21393   2.638   5.399   4.375
  175DOPC  C21621394   2.766   5.559   4.444
  175DOPC  H16R21395   2.686   5.635   4.450
  175DOPC  H16S21396   2.859   5.611   4.411
  175DOPC  C21721397   2.788   5.500   4.584
  175DOPC  H17R21398   2.696   5.446   4.615
  175DOPC  H17S21399   2.803   5.585   4.654
  175DOPC  C21821400   2.909   5.406   4.594
  175DOPC  H18R21401   3.001   5.458   4.562
  175DOPC  H18S21402   2.895   5.316   4.530
  175DOPC  H18T21403   2.923   5.372   4.699
  175DOPC   C3321404   2.998   5.357   3.393
  175DOPC   H3X21405   3.055   5.284   3.331
  175DOPC   H3Y21406   2.909   5.303   3.432
  175DOPC   C3421407   3.086   5.399   3.511
  175DOPC   H4X21408   3.072   5.326   3.595
  175DOPC   H4Y21409   3.054   5.498   3.550
  175DOPC   C3521410   3.236   5.402   3.477
  175DOPC   H5X21411   3.252   5.469   3.390
  175DOPC   H5Y21412   3.267   5.299   3.446
  175DOPC   C3621413   3.325   5.448   3.593
  175DOPC   H6X21414   3.313   5.380   3.680
  175DOPC   H6Y21415   3.431   5.442   3.560
  175DOPC   C3721416   3.296   5.592   3.637
  175DOPC   H7X21417   3.291   5.655   3.546
  175DOPC   H7Y21418   3.197   5.597   3.687
  175DOPC   C3821419   3.403   5.649   3.732
  175DOPC   H8X21420   3.502   5.638   3.683
  175DOPC   H8Y21421   3.405   5.588   3.825
  175DOPC   C3921422   3.375   5.794   3.759
  175DOPC   H9X21423   3.364   5.855   3.668
  175DOPC  C31021424   3.361   5.856   3.877
  175DOPC  H10X21425   3.336   5.963   3.877
  175DOPC  C31121426   3.371   5.798   4.016
  175DOPC  H11X21427   3.469   5.824   4.061
  175DOPC  H11Y21428   3.362   5.687   4.016
  175DOPC  C31221429   3.260   5.856   4.107
  175DOPC  H12X21430   3.161   5.822   4.071
  175DOPC  H12Y21431   3.262   5.967   4.101
  175DOPC  C31321432   3.278   5.817   4.254
  175DOPC  H13X21433   3.269   5.707   4.264
  175DOPC  H13Y21434   3.381   5.845   4.286
  175DOPC  C31421435   3.178   5.886   4.349
  175DOPC  H14X21436   3.205   5.860   4.453
  175DOPC  H14Y21437   3.187   5.996   4.337
  175DOPC  C31521438   3.032   5.844   4.323
  175DOPC  H15X21439   3.026   5.733   4.328
  175DOPC  H15Y21440   3.004   5.874   4.219
  175DOPC  C31621441   2.930   5.905   4.420
  175DOPC  H16X21442   2.936   6.016   4.416
  175DOPC  H16Y21443   2.829   5.876   4.386
  175DOPC  C31721444   2.946   5.858   4.565
  175DOPC  H17X21445   2.963   5.748   4.566
  175DOPC  H17Y21446   3.037   5.905   4.609
  175DOPC  C31821447   2.824   5.890   4.652
  175DOPC  H18X21448   2.838   5.849   4.755
  175DOPC  H18Y21449   2.809   6.000   4.660
  175DOPC  H18Z21450   2.733   5.845   4.609
  176DOPC     N21451   3.007   1.925   3.031
  176DOPC   C1221452   2.953   1.851   3.154
  176DOPC  H12A21453   2.847   1.836   3.140
  176DOPC  H12B21454   2.963   1.916   3.240
  176DOPC   C1321455   3.152   1.896   3.012
  176DOPC  H13A21456   3.165   1.789   3.008
  176DOPC  H13B21457   3.191   1.938   2.921
  176DOPC  H13C21458   3.211   1.934   3.094
  176DOPC   C1421459   2.985   2.073   3.049
  176DOPC  H14A21460   2.880   2.097   3.046
  176DOPC  H14B21461   3.026   2.108   3.143
  176DOPC  H14C21462   3.035   2.132   2.973
  176DOPC   C1521463   2.930   1.876   2.912
  176DOPC  H15A21464   2.978   1.900   2.818
  176DOPC  H15B21465   2.829   1.914   2.913
  176DOPC  H15C21466   2.921   1.769   2.916
  176DOPC   C1121467   3.016   1.714   3.192
  176DOPC  H11A21468   3.122   1.731   3.221
  176DOPC  H11B21469   2.967   1.675   3.283
  176DOPC     P21470   2.883   1.536   3.052
  176DOPC   O1321471   2.926   1.401   3.007
  176DOPC   O1421472   2.800   1.617   2.961
  176DOPC   O1221473   3.013   1.619   3.085
  176DOPC   O1121474   2.808   1.524   3.191
  176DOPC    C121475   2.670   1.482   3.187
  176DOPC    HA21476   2.662   1.377   3.152
  176DOPC    HB21477   2.612   1.545   3.116
  176DOPC    C221478   2.595   1.493   3.324
  176DOPC    HS21479   2.495   1.537   3.305
  176DOPC   O2121480   2.667   1.572   3.420
  176DOPC   C2121481   2.688   1.698   3.387
  176DOPC   O2221482   2.649   1.755   3.286
  176DOPC   C2221483   2.768   1.768   3.498
  176DOPC   H2R21484   2.779   1.874   3.465
  176DOPC   H2S21485   2.869   1.722   3.503
  176DOPC    C321486   2.571   1.351   3.384
  176DOPC    HX21487   2.507   1.295   3.314
  176DOPC    HY21488   2.514   1.362   3.479
  176DOPC   O3121489   2.696   1.280   3.398
  176DOPC   C3121490   2.747   1.276   3.521
  176DOPC   O3221491   2.684   1.291   3.624
  176DOPC   C3221492   2.897   1.255   3.513
  176DOPC   H2X21493   2.930   1.223   3.614
  176DOPC   H2Y21494   2.921   1.175   3.440
  176DOPC   C2321495   2.699   1.765   3.636
  176DOPC   H3R21496   2.589   1.758   3.626
  176DOPC   H3S21497   2.720   1.861   3.689
  176DOPC   C2421498   2.749   1.652   3.727
  176DOPC   H4R21499   2.854   1.673   3.757
  176DOPC   H4S21500   2.748   1.556   3.671
  176DOPC   C2521501   2.663   1.636   3.853
  176DOPC   H5R21502   2.565   1.594   3.823
  176DOPC   H5S21503   2.645   1.735   3.899
  176DOPC   C2621504   2.727   1.545   3.959
  176DOPC   H6R21505   2.811   1.599   4.008
  176DOPC   H6S21506   2.770   1.455   3.909
  176DOPC   C2721507   2.625   1.498   4.064
  176DOPC   H7R21508   2.553   1.431   4.012
  176DOPC   H7S21509   2.568   1.585   4.102
  176DOPC   C2821510   2.689   1.421   4.181
  176DOPC   H8R21511   2.763   1.349   4.140
  176DOPC   H8S21512   2.610   1.360   4.229
  176DOPC   C2921513   2.754   1.512   4.282
  176DOPC   H9R21514   2.857   1.542   4.258
  176DOPC  C21021515   2.698   1.560   4.395
  176DOPC  H10R21516   2.757   1.625   4.460
  176DOPC  C21121517   2.557   1.533   4.442
  176DOPC  H11R21518   2.494   1.487   4.363
  176DOPC  H11S21519   2.510   1.631   4.467
  176DOPC  C21221520   2.546   1.446   4.569
  176DOPC  H12R21521   2.438   1.439   4.596
  176DOPC  H12S21522   2.598   1.495   4.653
  176DOPC  C21321523   2.600   1.303   4.551
  176DOPC  H13R21524   2.710   1.307   4.544
  176DOPC  H13S21525   2.562   1.262   4.455
  176DOPC  C21421526   2.558   1.207   4.665
  176DOPC  H14R21527   2.609   1.110   4.649
  176DOPC  H14S21528   2.449   1.188   4.658
  176DOPC  C21521529   2.590   1.258   4.807
  176DOPC  H15R21530   2.556   1.182   4.879
  176DOPC  H15S21531   2.532   1.351   4.827
  176DOPC  C21621532   2.739   1.286   4.827
  176DOPC  H16R21533   2.773   1.361   4.752
  176DOPC  H16S21534   2.794   1.191   4.807
  176DOPC  C21721535   2.778   1.337   4.966
  176DOPC  H17R21536   2.726   1.433   4.984
  176DOPC  H17S21537   2.887   1.358   4.966
  176DOPC  C21821538   2.748   1.238   5.079
  176DOPC  H18R21539   2.639   1.218   5.085
  176DOPC  H18S21540   2.781   1.279   5.177
  176DOPC  H18T21541   2.801   1.142   5.061
  176DOPC   C3321542   2.967   1.388   3.476
  176DOPC   H3X21543   2.921   1.470   3.534
  176DOPC   H3Y21544   2.949   1.411   3.368
  176DOPC   C3421545   3.118   1.387   3.504
  176DOPC   H4X21546   3.168   1.321   3.430
  176DOPC   H4Y21547   3.138   1.344   3.605
  176DOPC   C3521548   3.179   1.528   3.499
  176DOPC   H5X21549   3.141   1.579   3.408
  176DOPC   H5Y21550   3.289   1.521   3.491
  176DOPC   C3621551   3.147   1.611   3.624
  176DOPC   H6X21552   3.041   1.597   3.652
  176DOPC   H6Y21553   3.208   1.576   3.709
  176DOPC   C3721554   3.170   1.761   3.601
  176DOPC   H7X21555   3.277   1.780   3.577
  176DOPC   H7Y21556   3.110   1.792   3.513
  176DOPC   C3821557   3.126   1.847   3.721
  176DOPC   H8X21558   3.024   1.815   3.753
  176DOPC   H8Y21559   3.116   1.951   3.685
  176DOPC   C3921560   3.224   1.844   3.836
  176DOPC   H9X21561   3.318   1.897   3.815
  176DOPC  C31021562   3.209   1.785   3.956
  176DOPC  H10X21563   3.291   1.793   4.029
  176DOPC  C31121564   3.089   1.707   4.004
  176DOPC  H11X21565   3.046   1.647   3.921
  176DOPC  H11Y21566   3.009   1.775   4.040
  176DOPC  C31221567   3.123   1.609   4.120
  176DOPC  H12X21568   3.210   1.546   4.091
  176DOPC  H12Y21569   3.037   1.541   4.135
  176DOPC  C31321570   3.153   1.680   4.253
  176DOPC  H13X21571   3.236   1.752   4.238
  176DOPC  H13Y21572   3.064   1.739   4.284
  176DOPC  C31421573   3.195   1.585   4.367
  176DOPC  H14X21574   3.218   1.485   4.323
  176DOPC  H14Y21575   3.289   1.623   4.413
  176DOPC  C31521576   3.092   1.568   4.480
  176DOPC  H15X21577   3.129   1.489   4.549
  176DOPC  H15Y21578   2.996   1.532   4.437
  176DOPC  C31621579   3.066   1.694   4.563
  176DOPC  H16X21580   3.163   1.734   4.600
  176DOPC  H16Y21581   3.020   1.771   4.497
  176DOPC  C31721582   2.973   1.672   4.683
  176DOPC  H17X21583   2.940   1.771   4.720
  176DOPC  H17Y21584   2.882   1.618   4.649
  176DOPC  C31821585   3.037   1.596   4.800
  176DOPC  H18X21586   3.068   1.494   4.768
  176DOPC  H18Y21587   3.127   1.650   4.837
  176DOPC  H18Z21588   2.965   1.586   4.884
  177DOPC     N21589   4.945   5.969   2.913
  177DOPC   C1221590   4.964   5.943   3.062
  177DOPC  H12A21591   5.066   5.912   3.079
  177DOPC  H12B21592   4.902   5.860   3.092
  177DOPC   C1321593   4.807   6.023   2.889
  177DOPC  H13A21594   4.793   6.115   2.943
  177DOPC  H13B21595   4.785   6.036   2.784
  177DOPC  H13C21596   4.733   5.956   2.930
  177DOPC   C1421597   4.958   5.840   2.838
  177DOPC  H14A21598   5.049   5.788   2.863
  177DOPC  H14B21599   4.876   5.774   2.864
  177DOPC  H14C21600   4.955   5.857   2.731
  177DOPC   C1521601   5.046   6.067   2.864
  177DOPC  H15A21602   5.147   6.031   2.878
  177DOPC  H15B21603   5.037   6.162   2.915
  177DOPC  H15C21604   5.036   6.085   2.757
  177DOPC   C1121605   4.931   6.058   3.161
  177DOPC  H11A21606   4.974   6.034   3.261
  177DOPC  H11B21607   4.980   6.152   3.128
  177DOPC     P21608   4.696   5.962   3.219
  177DOPC   O1321609   4.635   5.904   3.098
  177DOPC   O1421610   4.597   6.011   3.318
  177DOPC   O1221611   4.790   6.081   3.173
  177DOPC   O1121612   4.795   5.857   3.280
  177DOPC    C121613   4.751   5.736   3.342
  177DOPC    HA21614   4.775   5.650   3.275
  177DOPC    HB21615   4.641   5.733   3.360
  177DOPC    C221616   4.825   5.715   3.477
  177DOPC    HS21617   4.793   5.619   3.522
  177DOPC   O2121618   4.801   5.823   3.567
  177DOPC   C2121619   4.679   5.831   3.616
  177DOPC   O2221620   4.588   5.752   3.599
  177DOPC   C2221621   4.672   5.955   3.705
  177DOPC   H2R21622   4.566   5.969   3.737
  177DOPC   H2S21623   4.702   6.041   3.642
  177DOPC    C321624   4.979   5.706   3.454
  177DOPC    HX21625   5.012   5.798   3.401
  177DOPC    HY21626   4.999   5.620   3.386
  177DOPC   O3121627   5.048   5.683   3.579
  177DOPC   C3121628   5.103   5.789   3.637
  177DOPC   O3221629   5.118   5.899   3.587
  177DOPC   C3221630   5.141   5.751   3.780
  177DOPC   H2X21631   5.047   5.753   3.840
  177DOPC   H2Y21632   5.178   5.646   3.779
  177DOPC   C2321633   4.765   5.943   3.828
  177DOPC   H3R21634   4.864   5.903   3.797
  177DOPC   H3S21635   4.721   5.871   3.901
  177DOPC   C2421636   4.789   6.077   3.897
  177DOPC   H4R21637   4.692   6.126   3.918
  177DOPC   H4S21638   4.846   6.143   3.827
  177DOPC   C2521639   4.867   6.063   4.028
  177DOPC   H5R21640   4.962   6.007   4.010
  177DOPC   H5S21641   4.806   6.002   4.098
  177DOPC   C2621642   4.900   6.199   4.091
  177DOPC   H6R21643   4.810   6.264   4.085
  177DOPC   H6S21644   4.979   6.248   4.031
  177DOPC   C2721645   4.946   6.191   4.238
  177DOPC   H7R21646   4.971   6.294   4.271
  177DOPC   H7S21647   5.039   6.131   4.244
  177DOPC   C2821648   4.844   6.130   4.337
  177DOPC   H8R21649   4.883   6.143   4.440
  177DOPC   H8S21650   4.840   6.020   4.320
  177DOPC   C2921651   4.704   6.187   4.324
  177DOPC   H9R21652   4.660   6.172   4.224
  177DOPC  C21021653   4.630   6.249   4.417
  177DOPC  H10R21654   4.529   6.283   4.388
  177DOPC  C21121655   4.666   6.280   4.560
  177DOPC  H11R21656   4.635   6.384   4.584
  177DOPC  H11S21657   4.775   6.273   4.579
  177DOPC  C21221658   4.594   6.185   4.658
  177DOPC  H12R21659   4.490   6.167   4.624
  177DOPC  H12S21660   4.588   6.233   4.758
  177DOPC  C21321661   4.668   6.051   4.674
  177DOPC  H13R21662   4.757   6.068   4.738
  177DOPC  H13S21663   4.706   6.017   4.575
  177DOPC  C21421664   4.581   5.941   4.736
  177DOPC  H14R21665   4.532   5.982   4.827
  177DOPC  H14S21666   4.647   5.858   4.769
  177DOPC  C21521667   4.474   5.882   4.642
  177DOPC  H15R21668   4.395   5.959   4.626
  177DOPC  H15S21669   4.425   5.797   4.695
  177DOPC  C21621670   4.524   5.834   4.504
  177DOPC  H16R21671   4.551   5.923   4.444
  177DOPC  H16S21672   4.439   5.784   4.452
  177DOPC  C21721673   4.644   5.738   4.506
  177DOPC  H17R21674   4.734   5.793   4.541
  177DOPC  H17S21675   4.663   5.706   4.402
  177DOPC  C21821676   4.625   5.613   4.593
  177DOPC  H18R21677   4.622   5.641   4.701
  177DOPC  H18S21678   4.710   5.543   4.579
  177DOPC  H18T21679   4.531   5.561   4.567
  177DOPC   C3321680   5.248   5.841   3.846
  177DOPC   H3X21681   5.214   5.947   3.847
  177DOPC   H3Y21682   5.342   5.836   3.787
  177DOPC   C3421683   5.275   5.794   3.989
  177DOPC   H4X21684   5.289   5.684   3.987
  177DOPC   H4Y21685   5.185   5.815   4.052
  177DOPC   C3521686   5.400   5.855   4.055
  177DOPC   H5X21687   5.390   5.966   4.061
  177DOPC   H5Y21688   5.487   5.833   3.989
  177DOPC   C3621689   5.427   5.796   4.194
  177DOPC   H6X21690   5.410   5.687   4.190
  177DOPC   H6Y21691   5.533   5.813   4.222
  177DOPC   C3721692   5.339   5.857   4.304
  177DOPC   H7X21693   5.386   5.950   4.343
  177DOPC   H7Y21694   5.241   5.887   4.260
  177DOPC   C3821695   5.307   5.761   4.422
  177DOPC   H8X21696   5.249   5.676   4.382
  177DOPC   H8Y21697   5.240   5.815   4.491
  177DOPC   C3921698   5.428   5.709   4.495
  177DOPC   H9X21699   5.472   5.617   4.454
  177DOPC  C31021700   5.485   5.764   4.604
  177DOPC  H10X21701   5.572   5.714   4.650
  177DOPC  C31121702   5.440   5.891   4.673
  177DOPC  H11X21703   5.403   5.963   4.597
  177DOPC  H11Y21704   5.527   5.940   4.722
  177DOPC  C31221705   5.329   5.872   4.777
  177DOPC  H12X21706   5.242   5.821   4.730
  177DOPC  H12Y21707   5.294   5.973   4.808
  177DOPC  C31321708   5.371   5.795   4.903
  177DOPC  H13X21709   5.404   5.693   4.873
  177DOPC  H13Y21710   5.456   5.846   4.952
  177DOPC  C31421711   5.253   5.784   5.002
  177DOPC  H14X21712   5.222   5.887   5.031
  177DOPC  H14Y21713   5.168   5.738   4.948
  177DOPC  C31521714   5.280   5.703   5.131
  177DOPC  H15X21715   5.184   5.692   5.186
  177DOPC  H15Y21716   5.347   5.763   5.196
  177DOPC  C31621717   5.341   5.564   5.109
  177DOPC  H16X21718   5.437   5.575   5.055
  177DOPC  H16Y21719   5.365   5.519   5.208
  177DOPC  C31721720   5.250   5.468   5.032
  177DOPC  H17X21721   5.182   5.524   4.965
  177DOPC  H17Y21722   5.314   5.406   4.966
  177DOPC  C31821723   5.167   5.375   5.121
  177DOPC  H18X21724   5.109   5.303   5.060
  177DOPC  H18Y21725   5.232   5.317   5.191
  177DOPC  H18Z21726   5.096   5.435   5.183
  178DOPC     N21727   2.192   5.764   2.821
  178DOPC   C1221728   2.077   5.782   2.921
  178DOPC  H12A21729   2.083   5.704   2.995
  178DOPC  H12B21730   1.983   5.769   2.869
  178DOPC   C1321731   2.322   5.752   2.894
  178DOPC  H13A21732   2.336   5.838   2.957
  178DOPC  H13B21733   2.323   5.667   2.961
  178DOPC  H13C21734   2.406   5.746   2.826
  178DOPC   C1421735   2.202   5.882   2.730
  178DOPC  H14A21736   2.275   5.865   2.653
  178DOPC  H14B21737   2.107   5.902   2.682
  178DOPC  H14C21738   2.231   5.969   2.786
  178DOPC   C1521739   2.169   5.640   2.740
  178DOPC  H15A21740   2.251   5.623   2.671
  178DOPC  H15B21741   2.079   5.647   2.681
  178DOPC  H15C21742   2.161   5.553   2.802
  178DOPC   C1121743   2.069   5.914   3.002
  178DOPC  H11A21744   2.058   6.000   2.932
  178DOPC  H11B21745   1.977   5.913   3.064
  178DOPC     P21746   2.209   5.838   3.207
  178DOPC   O1321747   2.355   5.809   3.209
  178DOPC   O1421748   2.119   5.721   3.194
  178DOPC   O1221749   2.185   5.934   3.083
  178DOPC   O1121750   2.168   5.928   3.330
  178DOPC    C121751   2.261   5.952   3.437
  178DOPC    HA21752   2.223   6.034   3.501
  178DOPC    HB21753   2.360   5.986   3.398
  178DOPC    C221754   2.281   5.827   3.527
  178DOPC    HS21755   2.308   5.744   3.459
  178DOPC   O2121756   2.157   5.801   3.597
  178DOPC   C2121757   2.137   5.674   3.625
  178DOPC   O2221758   2.213   5.582   3.599
  178DOPC   C2221759   2.000   5.655   3.689
  178DOPC   H2R21760   1.937   5.603   3.614
  178DOPC   H2S21761   1.954   5.754   3.710
  178DOPC    C321762   2.401   5.843   3.626
  178DOPC    HX21763   2.491   5.864   3.564
  178DOPC    HY21764   2.419   5.744   3.674
  178DOPC   O3121765   2.383   5.953   3.719
  178DOPC   C3121766   2.370   5.919   3.847
  178DOPC   O3221767   2.370   5.806   3.891
  178DOPC   C3221768   2.357   6.045   3.933
  178DOPC   H2X21769   2.437   6.040   4.009
  178DOPC   H2Y21770   2.372   6.134   3.869
  178DOPC   C2321771   2.009   5.570   3.818
  178DOPC   H3R21772   2.074   5.482   3.803
  178DOPC   H3S21773   1.907   5.531   3.841
  178DOPC   C2421774   2.057   5.652   3.938
  178DOPC   H4R21775   1.997   5.744   3.947
  178DOPC   H4S21776   2.163   5.682   3.922
  178DOPC   C2521777   2.047   5.574   4.070
  178DOPC   H5R21778   2.109   5.482   4.064
  178DOPC   H5S21779   1.942   5.543   4.084
  178DOPC   C2621780   2.090   5.657   4.193
  178DOPC   H6R21781   2.048   5.610   4.284
  178DOPC   H6S21782   2.046   5.758   4.185
  178DOPC   C2721783   2.242   5.668   4.212
  178DOPC   H7R21784   2.288   5.715   4.122
  178DOPC   H7S21785   2.285   5.566   4.221
  178DOPC   C2821786   2.277   5.751   4.337
  178DOPC   H8R21787   2.217   5.711   4.422
  178DOPC   H8S21788   2.241   5.854   4.318
  178DOPC   C2921789   2.423   5.749   4.375
  178DOPC   H9R21790   2.463   5.649   4.393
  178DOPC  C21021791   2.506   5.855   4.387
  178DOPC  H10R21792   2.610   5.837   4.417
  178DOPC  C21121793   2.472   6.001   4.365
  178DOPC  H11R21794   2.371   6.014   4.321
  178DOPC  H11S21795   2.543   6.044   4.291
  178DOPC  C21221796   2.479   6.086   4.494
  178DOPC  H12R21797   2.453   6.190   4.466
  178DOPC  H12S21798   2.583   6.087   4.533
  178DOPC  C21321799   2.383   6.039   4.605
  178DOPC  H13R21800   2.427   5.951   4.656
  178DOPC  H13S21801   2.288   6.007   4.557
  178DOPC  C21421802   2.350   6.149   4.707
  178DOPC  H14R21803   2.278   6.109   4.781
  178DOPC  H14S21804   2.300   6.233   4.653
  178DOPC  C21521805   2.473   6.205   4.782
  178DOPC  H15R21806   2.549   6.235   4.707
  178DOPC  H15S21807   2.517   6.125   4.845
  178DOPC  C21621808   2.440   6.329   4.867
  178DOPC  H16R21809   2.391   6.404   4.801
  178DOPC  H16S21810   2.535   6.374   4.903
  178DOPC  C21721811   2.350   6.304   4.988
  178DOPC  H17R21812   2.258   6.251   4.955
  178DOPC  H17S21813   2.318   6.402   5.029
  178DOPC  C21821814   2.418   6.224   5.101
  178DOPC  H18R21815   2.509   6.277   5.135
  178DOPC  H18S21816   2.447   6.123   5.065
  178DOPC  H18T21817   2.349   6.213   5.187
  178DOPC   C3321818   2.220   6.051   4.004
  178DOPC   H3X21819   2.204   5.959   4.064
  178DOPC   H3Y21820   2.139   6.055   3.927
  178DOPC   C3421821   2.206   6.174   4.095
  178DOPC   H4X21822   2.240   6.264   4.037
  178DOPC   H4Y21823   2.274   6.164   4.182
  178DOPC   C3521824   2.062   6.200   4.142
  178DOPC   H5X21825   2.000   6.214   4.050
  178DOPC   H5Y21826   2.058   6.294   4.200
  178DOPC   C3621827   1.999   6.087   4.225
  178DOPC   H6X21828   1.890   6.105   4.231
  178DOPC   H6Y21829   2.013   5.989   4.173
  178DOPC   C3721830   2.055   6.077   4.368
  178DOPC   H7X21831   2.166   6.069   4.362
  178DOPC   H7Y21832   2.033   6.170   4.423
  178DOPC   C3821833   2.004   5.955   4.447
  178DOPC   H8X21834   2.055   5.953   4.546
  178DOPC   H8Y21835   2.034   5.863   4.393
  178DOPC   C3921836   1.855   5.953   4.467
  178DOPC   H9X21837   1.800   6.039   4.425
  178DOPC  C31021838   1.785   5.855   4.527
  178DOPC  H10X21839   1.676   5.866   4.535
  178DOPC  C31121840   1.842   5.728   4.586
  178DOPC  H11X21841   1.946   5.710   4.553
  178DOPC  H11Y21842   1.782   5.642   4.550
  178DOPC  C31221843   1.840   5.726   4.741
  178DOPC  H12X21844   1.856   5.620   4.772
  178DOPC  H12Y21845   1.740   5.757   4.779
  178DOPC  C31321846   1.950   5.811   4.805
  178DOPC  H13X21847   2.048   5.777   4.764
  178DOPC  H13Y21848   1.937   5.917   4.776
  178DOPC  C31421849   1.953   5.799   4.958
  178DOPC  H14X21850   1.866   5.851   5.002
  178DOPC  H14Y21851   1.943   5.692   4.985
  178DOPC  C31521852   2.084   5.852   5.020
  178DOPC  H15X21853   2.170   5.805   4.969
  178DOPC  H15Y21854   2.087   5.819   5.126
  178DOPC  C31621855   2.099   6.004   5.018
  178DOPC  H16X21856   2.196   6.030   5.067
  178DOPC  H16Y21857   2.103   6.041   4.913
  178DOPC  C31721858   1.986   6.077   5.092
  178DOPC  H17X21859   1.894   6.074   5.030
  178DOPC  H17Y21860   1.964   6.021   5.186
  178DOPC  C31821861   2.018   6.222   5.128
  178DOPC  H18X21862   1.934   6.268   5.184
  178DOPC  H18Y21863   2.109   6.227   5.192
  178DOPC  H18Z21864   2.036   6.282   5.036
  179DOPC     N21865   5.927   5.205   2.863
  179DOPC   C1221866   5.930   5.101   2.974
  179DOPC  H12A21867   5.984   5.015   2.939
  179DOPC  H12B21868   5.829   5.069   2.996
  179DOPC   C1321869   6.067   5.236   2.821
  179DOPC  H13A21870   6.071   5.317   2.751
  179DOPC  H13B21871   6.124   5.264   2.909
  179DOPC  H13C21872   6.117   5.150   2.780
  179DOPC   C1421873   5.866   5.332   2.912
  179DOPC  H14A21874   5.918   5.363   3.001
  179DOPC  H14B21875   5.876   5.411   2.840
  179DOPC  H14C21876   5.763   5.318   2.941
  179DOPC   C1521877   5.851   5.152   2.744
  179DOPC  H15A21878   5.748   5.133   2.769
  179DOPC  H15B21879   5.893   5.059   2.711
  179DOPC  H15C21880   5.855   5.222   2.662
  179DOPC   C1121881   5.994   5.144   3.109
  179DOPC  H11A21882   5.933   5.227   3.152
  179DOPC  H11B21883   5.988   5.059   3.180
  179DOPC     P21884   6.206   5.252   3.213
  179DOPC   O1321885   6.328   5.313   3.155
  179DOPC   O1421886   6.224   5.150   3.318
  179DOPC   O1221887   6.130   5.183   3.092
  179DOPC   O1121888   6.104   5.364   3.260
  179DOPC    C121889   6.106   5.493   3.196
  179DOPC    HA21890   6.099   5.483   3.085
  179DOPC    HB21891   6.202   5.543   3.220
  179DOPC    C221892   5.992   5.591   3.243
  179DOPC    HS21893   6.028   5.694   3.224
  179DOPC   O2121894   5.961   5.570   3.382
  179DOPC   C2121895   6.049   5.623   3.465
  179DOPC   O2221896   6.138   5.700   3.435
  179DOPC   C2221897   6.015   5.578   3.608
  179DOPC   H2R21898   5.907   5.552   3.611
  179DOPC   H2S21899   6.033   5.663   3.676
  179DOPC    C321900   5.860   5.577   3.162
  179DOPC    HX21901   5.885   5.591   3.055
  179DOPC    HY21902   5.793   5.662   3.189
  179DOPC   O3121903   5.796   5.449   3.179
  179DOPC   C3121904   5.704   5.443   3.276
  179DOPC   O3221905   5.655   5.538   3.333
  179DOPC   C3221906   5.665   5.297   3.298
  179DOPC   H2X21907   5.567   5.281   3.247
  179DOPC   H2Y21908   5.741   5.231   3.250
  179DOPC   C2321909   6.099   5.455   3.652
  179DOPC   H3R21910   6.101   5.380   3.570
  179DOPC   H3S21911   6.051   5.407   3.740
  179DOPC   C2421912   6.241   5.498   3.688
  179DOPC   H4R21913   6.240   5.556   3.783
  179DOPC   H4S21914   6.277   5.565   3.608
  179DOPC   C2521915   6.342   5.382   3.699
  179DOPC   H5R21916   6.444   5.425   3.699
  179DOPC   H5S21917   6.332   5.317   3.610
  179DOPC   C2621918   6.328   5.299   3.827
  179DOPC   H6R21919   6.230   5.247   3.826
  179DOPC   H6S21920   6.330   5.366   3.915
  179DOPC   C2721921   6.443   5.197   3.839
  179DOPC   H7R21922   6.539   5.253   3.839
  179DOPC   H7S21923   6.443   5.132   3.749
  179DOPC   C2821924   6.437   5.111   3.966
  179DOPC   H8R21925   6.444   5.178   4.054
  179DOPC   H8S21926   6.525   5.044   3.968
  179DOPC   C2921927   6.311   5.029   3.968
  179DOPC   H9R21928   6.281   4.989   3.869
  179DOPC  C21021929   6.233   5.003   4.074
  179DOPC  H10R21930   6.142   4.943   4.059
  179DOPC  C21121931   6.255   5.049   4.216
  179DOPC  H11R21932   6.359   5.086   4.232
  179DOPC  H11S21933   6.240   4.964   4.286
  179DOPC  C21221934   6.157   5.161   4.253
  179DOPC  H12R21935   6.178   5.252   4.193
  179DOPC  H12S21936   6.177   5.187   4.360
  179DOPC  C21321937   6.009   5.121   4.235
  179DOPC  H13R21938   6.000   5.013   4.259
  179DOPC  H13S21939   5.981   5.132   4.129
  179DOPC  C21421940   5.907   5.198   4.322
  179DOPC  H14R21941   5.808   5.149   4.311
  179DOPC  H14S21942   5.897   5.301   4.282
  179DOPC  C21521943   5.940   5.208   4.473
  179DOPC  H15R21944   5.854   5.249   4.528
  179DOPC  H15S21945   6.023   5.281   4.484
  179DOPC  C21621946   5.986   5.076   4.538
  179DOPC  H16R21947   6.029   5.007   4.463
  179DOPC  H16S21948   5.898   5.024   4.583
  179DOPC  C21721949   6.096   5.099   4.642
  179DOPC  H17R21950   6.055   5.158   4.727
  179DOPC  H17S21951   6.176   5.160   4.595
  179DOPC  C21821952   6.158   4.968   4.692
  179DOPC  H18R21953   6.240   4.988   4.764
  179DOPC  H18S21954   6.199   4.912   4.606
  179DOPC  H18T21955   6.081   4.905   4.742
  179DOPC   C3321956   5.652   5.260   3.447
  179DOPC   H3X21957   5.611   5.157   3.454
  179DOPC   H3Y21958   5.581   5.328   3.498
  179DOPC   C3421959   5.787   5.263   3.522
  179DOPC   H4X21960   5.814   5.369   3.543
  179DOPC   H4Y21961   5.866   5.222   3.456
  179DOPC   C3521962   5.785   5.181   3.652
  179DOPC   H5X21963   5.884   5.189   3.702
  179DOPC   H5Y21964   5.769   5.075   3.624
  179DOPC   C3621965   5.673   5.219   3.751
  179DOPC   H6X21966   5.576   5.224   3.697
  179DOPC   H6Y21967   5.662   5.137   3.826
  179DOPC   C3721968   5.697   5.351   3.826
  179DOPC   H7X21969   5.747   5.424   3.759
  179DOPC   H7Y21970   5.598   5.392   3.853
  179DOPC   C3821971   5.779   5.331   3.955
  179DOPC   H8X21972   5.882   5.298   3.928
  179DOPC   H8Y21973   5.733   5.249   4.014
  179DOPC   C3921974   5.780   5.457   4.039
  179DOPC   H9X21975   5.680   5.498   4.061
  179DOPC  C31021976   5.888   5.521   4.086
  179DOPC  H10X21977   5.872   5.612   4.146
  179DOPC  C31121978   6.032   5.482   4.067
  179DOPC  H11X21979   6.066   5.511   3.965
  179DOPC  H11Y21980   6.043   5.371   4.074
  179DOPC  C31221981   6.127   5.548   4.169
  179DOPC  H12X21982   6.128   5.658   4.154
  179DOPC  H12Y21983   6.231   5.513   4.150
  179DOPC  C31321984   6.093   5.520   4.316
  179DOPC  H13X21985   5.985   5.541   4.335
  179DOPC  H13Y21986   6.110   5.412   4.337
  179DOPC  C31421987   6.175   5.603   4.416
  179DOPC  H14X21988   6.283   5.583   4.403
  179DOPC  H14Y21989   6.157   5.710   4.395
  179DOPC  C31521990   6.134   5.572   4.561
  179DOPC  H15X21991   6.171   5.471   4.590
  179DOPC  H15Y21992   6.023   5.570   4.566
  179DOPC  C31621993   6.186   5.678   4.660
  179DOPC  H16X21994   6.296   5.687   4.649
  179DOPC  H16Y21995   6.141   5.775   4.632
  179DOPC  C31721996   6.153   5.650   4.808
  179DOPC  H17X21997   6.217   5.566   4.843
  179DOPC  H17Y21998   6.183   5.738   4.868
  179DOPC  C31821999   6.007   5.616   4.837
  179DOPC  H18X22000   5.941   5.699   4.805
  179DOPC  H18Y22001   5.976   5.523   4.783
  179DOPC  H18Z22002   5.991   5.598   4.945
  180DOPC     N22003   6.465   3.156   2.887
  180DOPC   C1222004   6.328   3.223   2.901
  180DOPC  H12A22005   6.257   3.152   2.939
  180DOPC  H12B22006   6.292   3.254   2.804
  180DOPC   C1322007   6.510   3.102   3.019
  180DOPC  H13A22008   6.509   3.181   3.093
  180DOPC  H13B22009   6.442   3.028   3.059
  180DOPC  H13C22010   6.609   3.059   3.016
  180DOPC   C1422011   6.567   3.255   2.841
  180DOPC  H14A22012   6.665   3.209   2.835
  180DOPC  H14B22013   6.542   3.296   2.744
  180DOPC  H14C22014   6.573   3.336   2.913
  180DOPC   C1522015   6.459   3.043   2.789
  180DOPC  H15A22016   6.389   2.967   2.820
  180DOPC  H15B22017   6.556   2.994   2.783
  180DOPC  H15C22018   6.432   3.076   2.690
  180DOPC   C1122019   6.317   3.345   2.997
  180DOPC  H11A22020   6.388   3.424   2.964
  180DOPC  H11B22021   6.215   3.390   2.988
  180DOPC     P22022   6.246   3.216   3.212
  180DOPC   O1322023   6.327   3.110   3.274
  180DOPC   O1422024   6.137   3.172   3.121
  180DOPC   O1222025   6.345   3.310   3.132
  180DOPC   O1122026   6.190   3.315   3.321
  180DOPC    C122027   6.275   3.373   3.421
  180DOPC    HA22028   6.263   3.483   3.418
  180DOPC    HB22029   6.383   3.353   3.405
  180DOPC    C222030   6.232   3.325   3.563
  180DOPC    HS22031   6.279   3.390   3.640
  180DOPC   O2122032   6.269   3.188   3.584
  180DOPC   C2122033   6.399   3.168   3.601
  180DOPC   O2222034   6.482   3.255   3.622
  180DOPC   C2222035   6.428   3.018   3.586
  180DOPC   H2R22036   6.423   2.999   3.476
  180DOPC   H2S22037   6.347   2.960   3.635
  180DOPC    C322038   6.077   3.340   3.577
  180DOPC    HX22039   6.032   3.268   3.506
  180DOPC    HY22040   6.052   3.443   3.543
  180DOPC   O3122041   6.030   3.317   3.712
  180DOPC   C3122042   5.897   3.324   3.720
  180DOPC   O3222043   5.823   3.357   3.629
  180DOPC   C3222044   5.848   3.282   3.858
  180DOPC   H2X22045   5.934   3.279   3.927
  180DOPC   H2Y22046   5.776   3.360   3.892
  180DOPC   C2322047   6.566   2.971   3.637
  180DOPC   H3R22048   6.646   3.047   3.620
  180DOPC   H3S22049   6.591   2.882   3.575
  180DOPC   C2422050   6.567   2.923   3.784
  180DOPC   H4R22051   6.649   2.849   3.794
  180DOPC   H4S22052   6.472   2.870   3.807
  180DOPC   C2522053   6.593   3.033   3.887
  180DOPC   H5R22054   6.507   3.105   3.889
  180DOPC   H5S22055   6.683   3.090   3.856
  180DOPC   C2622056   6.617   2.975   4.028
  180DOPC   H6R22057   6.689   2.892   4.018
  180DOPC   H6S22058   6.523   2.933   4.068
  180DOPC   C2722059   6.677   3.076   4.127
  180DOPC   H7R22060   6.765   3.125   4.080
  180DOPC   H7S22061   6.714   3.020   4.216
  180DOPC   C2822062   6.576   3.183   4.175
  180DOPC   H8R22063   6.491   3.131   4.224
  180DOPC   H8S22064   6.536   3.234   4.085
  180DOPC   C2922065   6.640   3.280   4.271
  180DOPC   H9R22066   6.723   3.239   4.331
  180DOPC  C21022067   6.603   3.408   4.289
  180DOPC  H10R22068   6.657   3.470   4.363
  180DOPC  C21122069   6.491   3.480   4.217
  180DOPC  H11R22070   6.428   3.409   4.159
  180DOPC  H11S22071   6.533   3.552   4.144
  180DOPC  C21222072   6.398   3.556   4.313
  180DOPC  H12R22073   6.314   3.597   4.253
  180DOPC  H12S22074   6.451   3.642   4.359
  180DOPC  C21322075   6.339   3.468   4.426
  180DOPC  H13R22076   6.415   3.457   4.507
  180DOPC  H13S22077   6.319   3.366   4.387
  180DOPC  C21422078   6.209   3.526   4.483
  180DOPC  H14R22079   6.132   3.524   4.404
  180DOPC  H14S22080   6.226   3.633   4.511
  180DOPC  C21522081   6.158   3.450   4.606
  180DOPC  H15R22082   6.230   3.466   4.690
  180DOPC  H15S22083   6.155   3.342   4.584
  180DOPC  C21622084   6.017   3.496   4.647
  180DOPC  H16R22085   5.950   3.476   4.561
  180DOPC  H16S22086   6.017   3.605   4.666
  180DOPC  C21722087   5.961   3.425   4.771
  180DOPC  H17R22088   5.962   3.315   4.754
  180DOPC  H17S22089   5.855   3.455   4.783
  180DOPC  C21822090   6.036   3.457   4.901
  180DOPC  H18R22091   6.035   3.567   4.920
  180DOPC  H18S22092   6.141   3.423   4.895
  180DOPC  H18T22093   5.987   3.406   4.987
  180DOPC   C3322094   5.777   3.145   3.859
  180DOPC   H3X22095   5.851   3.067   3.830
  180DOPC   H3Y22096   5.695   3.141   3.784
  180DOPC   C3422097   5.721   3.110   3.997
  180DOPC   H4X22098   5.621   3.158   4.006
  180DOPC   H4Y22099   5.785   3.153   4.076
  180DOPC   C3522100   5.706   2.959   4.022
  180DOPC   H5X22101   5.668   2.910   3.929
  180DOPC   H5Y22102   5.631   2.942   4.102
  180DOPC   C3622103   5.836   2.891   4.067
  180DOPC   H6X22104   5.918   2.917   3.996
  180DOPC   H6Y22105   5.865   2.929   4.167
  180DOPC   C3722106   5.823   2.738   4.074
  180DOPC   H7X22107   5.739   2.713   4.143
  180DOPC   H7Y22108   5.794   2.703   3.972
  180DOPC   C3822109   5.950   2.661   4.117
  180DOPC   H8X22110   6.033   2.688   4.048
  180DOPC   H8Y22111   5.929   2.553   4.098
  180DOPC   C3922112   5.988   2.678   4.262
  180DOPC   H9X22113   5.904   2.670   4.332
  180DOPC  C31022114   6.111   2.703   4.311
  180DOPC  H10X22115   6.122   2.715   4.420
  180DOPC  C31122116   6.239   2.719   4.233
  180DOPC  H11X22117   6.256   2.826   4.208
  180DOPC  H11Y22118   6.233   2.666   4.136
  180DOPC  C31222119   6.366   2.669   4.306
  180DOPC  H12X22120   6.451   2.671   4.234
  180DOPC  H12Y22121   6.351   2.563   4.335
  180DOPC  C31322122   6.407   2.751   4.430
  180DOPC  H13X22123   6.323   2.759   4.501
  180DOPC  H13Y22124   6.489   2.696   4.481
  180DOPC  C31422125   6.461   2.892   4.397
  180DOPC  H14X22126   6.533   2.882   4.314
  180DOPC  H14Y22127   6.378   2.956   4.361
  180DOPC  C31522128   6.533   2.960   4.515
  180DOPC  H15X22129   6.582   3.052   4.476
  180DOPC  H15Y22130   6.612   2.893   4.553
  180DOPC  C31622131   6.440   3.000   4.630
  180DOPC  H16X22132   6.363   3.071   4.591
  180DOPC  H16Y22133   6.387   2.910   4.668
  180DOPC  C31722134   6.511   3.069   4.749
  180DOPC  H17X22135   6.437   3.082   4.830
  180DOPC  H17Y22136   6.591   3.002   4.786
  180DOPC  C31822137   6.570   3.206   4.715
  180DOPC  H18X22138   6.650   3.197   4.639
  180DOPC  H18Y22139   6.491   3.274   4.675
  180DOPC  H18Z22140   6.613   3.253   4.806
  181DOPC     N22141   0.784   3.824   2.990
  181DOPC   C1222142   0.926   3.875   2.968
  181DOPC  H12A22143   0.966   3.910   3.062
  181DOPC  H12B22144   0.922   3.960   2.901
  181DOPC   C1322145   0.777   3.743   3.116
  181DOPC  H13A22146   0.851   3.665   3.114
  181DOPC  H13B22147   0.802   3.803   3.203
  181DOPC  H13C22148   0.680   3.697   3.130
  181DOPC   C1422149   0.743   3.737   2.875
  181DOPC  H14A22150   0.646   3.692   2.892
  181DOPC  H14B22151   0.741   3.793   2.783
  181DOPC  H14C22152   0.814   3.657   2.864
  181DOPC   C1522153   0.688   3.939   2.999
  181DOPC  H15A22154   0.587   3.904   3.019
  181DOPC  H15B22155   0.683   3.992   2.906
  181DOPC  H15C22156   0.716   4.008   3.077
  181DOPC   C1122157   1.032   3.777   2.910
  181DOPC  H11A22158   1.000   3.745   2.808
  181DOPC  H11B22159   1.126   3.834   2.895
  181DOPC     P22160   1.125   3.680   3.132
  181DOPC   O1322161   1.135   3.825   3.161
  181DOPC   O1422162   1.247   3.596   3.135
  181DOPC   O1222163   1.055   3.661   2.991
  181DOPC   O1122164   1.017   3.614   3.227
  181DOPC    C122165   0.986   3.474   3.215
  181DOPC    HA22166   1.075   3.412   3.193
  181DOPC    HB22167   0.913   3.461   3.132
  181DOPC    C222168   0.920   3.418   3.345
  181DOPC    HS22169   0.877   3.319   3.318
  181DOPC   O2122170   0.815   3.507   3.386
  181DOPC   C2122171   0.734   3.457   3.478
  181DOPC   O2222172   0.733   3.342   3.516
  181DOPC   C2222173   0.640   3.566   3.528
  181DOPC   H2R22174   0.589   3.527   3.619
  181DOPC   H2S22175   0.562   3.581   3.450
  181DOPC    C322176   1.026   3.391   3.458
  181DOPC    HX22177   1.090   3.309   3.420
  181DOPC    HY22178   0.974   3.354   3.549
  181DOPC   O3122179   1.107   3.506   3.490
  181DOPC   C3122180   1.204   3.478   3.576
  181DOPC   O3222181   1.222   3.368   3.627
  181DOPC   C3222182   1.294   3.599   3.605
  181DOPC   H2X22183   1.263   3.643   3.702
  181DOPC   H2Y22184   1.396   3.558   3.617
  181DOPC   C2322185   0.712   3.699   3.559
  181DOPC   H3R22186   0.638   3.772   3.597
  181DOPC   H3S22187   0.755   3.741   3.466
  181DOPC   C2422188   0.824   3.687   3.663
  181DOPC   H4R22189   0.867   3.788   3.681
  181DOPC   H4S22190   0.905   3.624   3.622
  181DOPC   C2522191   0.777   3.630   3.798
  181DOPC   H5R22192   0.744   3.525   3.785
  181DOPC   H5S22193   0.690   3.689   3.834
  181DOPC   C2622194   0.887   3.634   3.905
  181DOPC   H6R22195   0.845   3.594   4.001
  181DOPC   H6S22196   0.918   3.739   3.923
  181DOPC   C2722197   1.010   3.551   3.867
  181DOPC   H7R22198   1.056   3.596   3.776
  181DOPC   H7S22199   0.977   3.448   3.842
  181DOPC   C2822200   1.115   3.547   3.979
  181DOPC   H8R22201   1.062   3.516   4.072
  181DOPC   H8S22202   1.152   3.650   3.997
  181DOPC   C2922203   1.227   3.451   3.950
  181DOPC   H9R22204   1.199   3.364   3.889
  181DOPC  C21022205   1.355   3.462   3.991
  181DOPC  H10R22206   1.426   3.383   3.963
  181DOPC  C21122207   1.414   3.574   4.074
  181DOPC  H11R22208   1.363   3.671   4.054
  181DOPC  H11S22209   1.520   3.589   4.045
  181DOPC  C21222210   1.409   3.549   4.226
  181DOPC  H12R22211   1.477   3.622   4.274
  181DOPC  H12S22212   1.448   3.447   4.250
  181DOPC  C21322213   1.268   3.565   4.286
  181DOPC  H13R22214   1.203   3.491   4.235
  181DOPC  H13S22215   1.228   3.666   4.262
  181DOPC  C21422216   1.255   3.538   4.437
  181DOPC  H14R22217   1.313   3.447   4.464
  181DOPC  H14S22218   1.148   3.514   4.455
  181DOPC  C21522219   1.289   3.657   4.528
  181DOPC  H15R22220   1.248   3.634   4.629
  181DOPC  H15S22221   1.238   3.748   4.491
  181DOPC  C21622222   1.439   3.687   4.547
  181DOPC  H16R22223   1.448   3.768   4.621
  181DOPC  H16S22224   1.482   3.725   4.452
  181DOPC  C21722225   1.521   3.567   4.596
  181DOPC  H17R22226   1.520   3.488   4.518
  181DOPC  H17S22227   1.473   3.524   4.687
  181DOPC  C21822228   1.666   3.603   4.627
  181DOPC  H18R22229   1.723   3.513   4.657
  181DOPC  H18S22230   1.670   3.677   4.710
  181DOPC  H18T22231   1.714   3.648   4.538
  181DOPC   C3322232   1.297   3.706   3.494
  181DOPC   H3X22233   1.301   3.658   3.393
  181DOPC   H3Y22234   1.390   3.766   3.504
  181DOPC   C3422235   1.180   3.807   3.497
  181DOPC   H4X22236   1.083   3.753   3.490
  181DOPC   H4Y22237   1.189   3.869   3.406
  181DOPC   C3522238   1.181   3.901   3.618
  181DOPC   H5X22239   1.283   3.942   3.631
  181DOPC   H5Y22240   1.154   3.845   3.711
  181DOPC   C3622241   1.084   4.019   3.598
  181DOPC   H6X22242   1.109   4.067   3.501
  181DOPC   H6Y22243   0.980   3.981   3.591
  181DOPC   C3722244   1.093   4.127   3.707
  181DOPC   H7X22245   1.199   4.160   3.718
  181DOPC   H7Y22246   1.034   4.215   3.673
  181DOPC   C3822247   1.039   4.080   3.844
  181DOPC   H8X22248   1.103   3.997   3.880
  181DOPC   H8Y22249   0.937   4.038   3.828
  181DOPC   C3922250   1.031   4.194   3.943
  181DOPC   H9X22251   0.976   4.282   3.907
  181DOPC  C31022252   1.084   4.198   4.067
  181DOPC  H10X22253   1.068   4.288   4.127
  181DOPC  C31122254   1.163   4.089   4.135
  181DOPC  H11X22255   1.244   4.136   4.195
  181DOPC  H11Y22256   1.213   4.021   4.063
  181DOPC  C31222257   1.077   4.003   4.231
  181DOPC  H12X22258   1.013   4.068   4.293
  181DOPC  H12Y22259   1.145   3.948   4.299
  181DOPC  C31322260   0.989   3.899   4.158
  181DOPC  H13X22261   0.937   3.949   4.073
  181DOPC  H13Y22262   1.054   3.820   4.115
  181DOPC  C31422263   0.881   3.835   4.247
  181DOPC  H14X22264   0.811   3.915   4.279
  181DOPC  H14Y22265   0.823   3.762   4.187
  181DOPC  C31522266   0.937   3.766   4.372
  181DOPC  H15X22267   1.000   3.838   4.428
  181DOPC  H15Y22268   1.002   3.681   4.341
  181DOPC  C31622269   0.826   3.715   4.465
  181DOPC  H16X22270   0.759   3.800   4.491
  181DOPC  H16Y22271   0.765   3.640   4.410
  181DOPC  C31722272   0.879   3.652   4.595
  181DOPC  H17X22273   0.791   3.614   4.652
  181DOPC  H17Y22274   0.942   3.565   4.570
  181DOPC  C31822275   0.958   3.748   4.684
  181DOPC  H18X22276   1.051   3.782   4.633
  181DOPC  H18Y22277   0.898   3.838   4.708
  181DOPC  H18Z22278   0.987   3.699   4.779
  182DOPC     N22279   2.521   0.871   3.122
  182DOPC   C1222280   2.500   0.987   3.025
  182DOPC  H12A22281   2.479   0.948   2.926
  182DOPC  H12B22282   2.593   1.042   3.017
  182DOPC   C1322283   2.561   0.923   3.256
  182DOPC  H13A22284   2.581   0.842   3.325
  182DOPC  H13B22285   2.651   0.982   3.247
  182DOPC  H13C22286   2.483   0.986   3.297
  182DOPC   C1422287   2.631   0.782   3.072
  182DOPC  H14A22288   2.725   0.836   3.069
  182DOPC  H14B22289   2.646   0.697   3.137
  182DOPC  H14C22290   2.612   0.746   2.972
  182DOPC   C1522291   2.394   0.792   3.134
  182DOPC  H15A22292   2.312   0.860   3.154
  182DOPC  H15B22293   2.399   0.718   3.212
  182DOPC  H15C22294   2.370   0.742   3.041
  182DOPC   C1122295   2.387   1.088   3.059
  182DOPC  H11A22296   2.397   1.120   3.164
  182DOPC  H11B22297   2.402   1.179   2.997
  182DOPC     P22298   2.180   1.054   2.905
  182DOPC   O1322299   2.262   1.013   2.790
  182DOPC   O1422300   2.128   1.193   2.902
  182DOPC   O1222301   2.258   1.029   3.039
  182DOPC   O1122302   2.055   0.956   2.906
  182DOPC    C122303   2.004   0.893   3.023
  182DOPC    HA22304   2.082   0.836   3.077
  182DOPC    HB22305   1.927   0.819   2.992
  182DOPC    C222306   1.934   0.990   3.123
  182DOPC    HS22307   1.885   1.071   3.065
  182DOPC   O2122308   2.037   1.037   3.213
  182DOPC   C2122309   2.032   1.165   3.245
  182DOPC   O2222310   1.949   1.246   3.206
  182DOPC   C2222311   2.154   1.200   3.331
  182DOPC   H2R22312   2.216   1.268   3.269
  182DOPC   H2S22313   2.212   1.108   3.352
  182DOPC    C322314   1.824   0.915   3.204
  182DOPC    HX22315   1.739   0.897   3.136
  182DOPC    HY22316   1.785   0.980   3.285
  182DOPC   O3122317   1.875   0.787   3.249
  182DOPC   C3122318   1.930   0.791   3.369
  182DOPC   O3222319   1.919   0.882   3.450
  182DOPC   C3222320   2.029   0.676   3.385
  182DOPC   H2X22321   1.974   0.585   3.416
  182DOPC   H2Y22322   2.076   0.657   3.286
  182DOPC   C2322323   2.115   1.271   3.462
  182DOPC   H3R22324   2.040   1.350   3.440
  182DOPC   H3S22325   2.204   1.321   3.506
  182DOPC   C2422326   2.057   1.175   3.567
  182DOPC   H4R22327   1.987   1.106   3.517
  182DOPC   H4S22328   1.997   1.232   3.641
  182DOPC   C2522329   2.164   1.094   3.642
  182DOPC   H5R22330   2.260   1.093   3.585
  182DOPC   H5S22331   2.129   0.989   3.649
  182DOPC   C2622332   2.188   1.146   3.785
  182DOPC   H6R22333   2.090   1.151   3.837
  182DOPC   H6S22334   2.230   1.249   3.781
  182DOPC   C2722335   2.281   1.054   3.865
  182DOPC   H7R22336   2.385   1.062   3.826
  182DOPC   H7S22337   2.247   0.950   3.848
  182DOPC   C2822338   2.279   1.079   4.017
  182DOPC   H8R22339   2.335   0.996   4.067
  182DOPC   H8S22340   2.173   1.071   4.051
  182DOPC   C2922341   2.337   1.211   4.059
  182DOPC   H9R22342   2.377   1.273   3.977
  182DOPC  C21022343   2.342   1.256   4.185
  182DOPC  H10R22344   2.387   1.355   4.203
  182DOPC  C21122345   2.293   1.187   4.310
  182DOPC  H11R22346   2.378   1.175   4.381
  182DOPC  H11S22347   2.256   1.084   4.289
  182DOPC  C21222348   2.182   1.266   4.381
  182DOPC  H12R22349   2.085   1.245   4.331
  182DOPC  H12S22350   2.200   1.375   4.371
  182DOPC  C21322351   2.170   1.237   4.532
  182DOPC  H13R22352   2.086   1.297   4.572
  182DOPC  H13S22353   2.263   1.272   4.582
  182DOPC  C21422354   2.147   1.089   4.567
  182DOPC  H14R22355   2.236   1.029   4.539
  182DOPC  H14S22356   2.061   1.051   4.507
  182DOPC  C21522357   2.117   1.070   4.716
  182DOPC  H15R22358   2.039   1.143   4.748
  182DOPC  H15S22359   2.209   1.092   4.774
  182DOPC  C21622360   2.068   0.928   4.750
  182DOPC  H16R22361   2.137   0.855   4.702
  182DOPC  H16S22362   1.967   0.914   4.706
  182DOPC  C21722363   2.062   0.898   4.901
  182DOPC  H17R22364   2.164   0.907   4.944
  182DOPC  H17S22365   2.030   0.793   4.914
  182DOPC  C21822366   1.967   0.988   4.980
  182DOPC  H18R22367   1.998   1.095   4.972
  182DOPC  H18S22368   1.966   0.960   5.087
  182DOPC  H18T22369   1.864   0.979   4.940
  182DOPC   C3322370   2.136   0.716   3.489
  182DOPC   H3X22371   2.090   0.713   3.591
  182DOPC   H3Y22372   2.167   0.821   3.471
  182DOPC   C3422373   2.263   0.631   3.485
  182DOPC   H4X22374   2.299   0.626   3.381
  182DOPC   H4Y22375   2.240   0.527   3.517
  182DOPC   C3522376   2.373   0.691   3.575
  182DOPC   H5X22377   2.389   0.797   3.548
  182DOPC   H5Y22378   2.468   0.637   3.555
  182DOPC   C3622379   2.339   0.681   3.724
  182DOPC   H6X22380   2.244   0.736   3.745
  182DOPC   H6Y22381   2.320   0.574   3.747
  182DOPC   C3722382   2.449   0.736   3.816
  182DOPC   H7X22383   2.546   0.688   3.794
  182DOPC   H7Y22384   2.462   0.844   3.794
  182DOPC   C3822385   2.417   0.719   3.966
  182DOPC   H8X22386   2.330   0.785   3.988
  182DOPC   H8Y22387   2.503   0.758   4.025
  182DOPC   C3922388   2.388   0.576   4.005
  182DOPC   H9X22389   2.444   0.500   3.949
  182DOPC  C31022390   2.301   0.536   4.100
  182DOPC  H10X22391   2.291   0.428   4.120
  182DOPC  C31122392   2.215   0.625   4.186
  182DOPC  H11X22393   2.111   0.586   4.189
  182DOPC  H11Y22394   2.208   0.729   4.146
  182DOPC  C31222395   2.268   0.634   4.331
  182DOPC  H12X22396   2.272   0.532   4.374
  182DOPC  H12Y22397   2.196   0.694   4.391
  182DOPC  C31322398   2.408   0.698   4.343
  182DOPC  H13X22399   2.477   0.647   4.273
  182DOPC  H13Y22400   2.404   0.805   4.313
  182DOPC  C31422401   2.468   0.684   4.484
  182DOPC  H14X22402   2.449   0.581   4.520
  182DOPC  H14Y22403   2.578   0.698   4.477
  182DOPC  C31522404   2.416   0.786   4.586
  182DOPC  H15X22405   2.305   0.794   4.577
  182DOPC  H15Y22406   2.459   0.885   4.564
  182DOPC  C31622407   2.451   0.745   4.730
  182DOPC  H16X22408   2.385   0.661   4.761
  182DOPC  H16Y22409   2.556   0.706   4.732
  182DOPC  C31722410   2.439   0.860   4.831
  182DOPC  H17X22411   2.521   0.933   4.811
  182DOPC  H17Y22412   2.343   0.913   4.812
  182DOPC  C31822413   2.444   0.814   4.977
  182DOPC  H18X22414   2.437   0.902   5.045
  182DOPC  H18Y22415   2.360   0.746   4.999
  182DOPC  H18Z22416   2.539   0.760   4.998
  183DOPC     N22417   6.668   5.203   3.057
  183DOPC   C1222418   6.671   5.305   2.944
  183DOPC  H12A22419   6.578   5.361   2.944
  183DOPC  H12B22420   6.675   5.254   2.849
  183DOPC   C1322421   6.634   5.274   3.185
  183DOPC  H13A22422   6.532   5.311   3.181
  183DOPC  H13B22423   6.642   5.210   3.271
  183DOPC  H13C22424   6.698   5.359   3.200
  183DOPC   C1422425   6.802   5.137   3.070
  183DOPC  H14A22426   6.828   5.085   2.979
  183DOPC  H14B22427   6.878   5.212   3.087
  183DOPC  H14C22428   6.804   5.068   3.153
  183DOPC   C1522429   6.564   5.100   3.030
  183DOPC  H15A22430   6.586   5.044   2.941
  183DOPC  H15B22431   6.467   5.147   3.020
  183DOPC  H15C22432   6.557   5.030   3.113
  183DOPC   C1122433   6.789   5.404   2.946
  183DOPC  H11A22434   6.750   5.505   2.924
  183DOPC  H11B22435   6.833   5.411   3.047
  183DOPC     P22436   7.034   5.335   2.872
  183DOPC   O1322437   7.111   5.453   2.828
  183DOPC   O1422438   7.069   5.207   2.805
  183DOPC   O1222439   6.881   5.364   2.845
  183DOPC   O1122440   7.046   5.316   3.028
  183DOPC    C122441   7.172   5.338   3.092
  183DOPC    HA22442   7.226   5.425   3.049
  183DOPC    HB22443   7.238   5.249   3.080
  183DOPC    C222444   7.155   5.374   3.243
  183DOPC    HS22445   7.253   5.409   3.282
  183DOPC   O2122446   7.109   5.262   3.321
  183DOPC   C2122447   7.194   5.164   3.343
  183DOPC   O2222448   7.302   5.146   3.288
  183DOPC   C2222449   7.138   5.075   3.455
  183DOPC   H2R22450   7.151   4.970   3.423
  183DOPC   H2S22451   7.030   5.096   3.467
  183DOPC    C322452   7.053   5.490   3.260
  183DOPC    HX22453   6.954   5.455   3.224
  183DOPC    HY22454   7.085   5.572   3.191
  183DOPC   O3122455   7.050   5.544   3.394
  183DOPC   C3122456   6.948   5.505   3.471
  183DOPC   O3222457   6.865   5.420   3.443
  183DOPC   C3222458   6.948   5.587   3.599
  183DOPC   H2X22459   6.986   5.689   3.577
  183DOPC   H2Y22460   6.842   5.597   3.631
  183DOPC   C2322461   7.212   5.098   3.589
  183DOPC   H3R22462   7.202   5.204   3.622
  183DOPC   H3S22463   7.320   5.077   3.575
  183DOPC   C2422464   7.159   5.007   3.701
  183DOPC   H4R22465   7.235   4.998   3.782
  183DOPC   H4S22466   7.144   4.905   3.659
  183DOPC   C2522467   7.027   5.055   3.765
  183DOPC   H5R22468   6.974   4.966   3.804
  183DOPC   H5S22469   6.963   5.102   3.688
  183DOPC   C2622470   7.048   5.151   3.883
  183DOPC   H6R22471   7.114   5.234   3.850
  183DOPC   H6S22472   7.101   5.097   3.964
  183DOPC   C2722473   6.917   5.211   3.938
  183DOPC   H7R22474   6.875   5.280   3.861
  183DOPC   H7S22475   6.941   5.272   4.027
  183DOPC   C2822476   6.808   5.109   3.973
  183DOPC   H8R22477   6.776   5.055   3.881
  183DOPC   H8S22478   6.719   5.167   4.005
  183DOPC   C2922479   6.848   5.010   4.080
  183DOPC   H9R22480   6.896   4.918   4.043
  183DOPC  C21022481   6.831   5.026   4.212
  183DOPC  H10R22482   6.865   4.946   4.280
  183DOPC  C21122483   6.770   5.146   4.280
  183DOPC  H11R22484   6.668   5.122   4.318
  183DOPC  H11S22485   6.759   5.231   4.210
  183DOPC  C21222486   6.856   5.193   4.399
  183DOPC  H12R22487   6.962   5.202   4.367
  183DOPC  H12S22488   6.851   5.118   4.480
  183DOPC  C21322489   6.810   5.330   4.451
  183DOPC  H13R22490   6.701   5.328   4.470
  183DOPC  H13S22491   6.828   5.405   4.370
  183DOPC  C21422492   6.884   5.377   4.577
  183DOPC  H14R22493   6.855   5.482   4.598
  183DOPC  H14S22494   6.994   5.378   4.557
  183DOPC  C21522495   6.855   5.294   4.703
  183DOPC  H15R22496   6.912   5.339   4.787
  183DOPC  H15S22497   6.892   5.190   4.689
  183DOPC  C21622498   6.707   5.291   4.742
  183DOPC  H16R22499   6.650   5.230   4.669
  183DOPC  H16S22500   6.667   5.395   4.737
  183DOPC  C21722501   6.682   5.236   4.884
  183DOPC  H17R22502   6.576   5.252   4.910
  183DOPC  H17S22503   6.743   5.294   4.956
  183DOPC  C21822504   6.714   5.087   4.899
  183DOPC  H18R22505   6.821   5.067   4.878
  183DOPC  H18S22506   6.653   5.027   4.828
  183DOPC  H18T22507   6.691   5.053   5.002
  183DOPC   C3322508   7.030   5.523   3.713
  183DOPC   H3X22509   7.137   5.518   3.683
  183DOPC   H3Y22510   6.995   5.419   3.730
  183DOPC   C3422511   7.018   5.601   3.845
  183DOPC   H4X22512   6.914   5.595   3.882
  183DOPC   H4Y22513   7.041   5.708   3.826
  183DOPC   C3522514   7.114   5.548   3.953
  183DOPC   H5X22515   7.218   5.557   3.917
  183DOPC   H5Y22516   7.093   5.439   3.968
  183DOPC   C3622517   7.100   5.619   4.088
  183DOPC   H6X22518   7.125   5.726   4.078
  183DOPC   H6Y22519   6.995   5.611   4.123
  183DOPC   C3722520   7.191   5.555   4.195
  183DOPC   H7X22521   7.174   5.445   4.192
  183DOPC   H7Y22522   7.297   5.573   4.166
  183DOPC   C3822523   7.166   5.607   4.337
  183DOPC   H8X22524   7.059   5.590   4.363
  183DOPC   H8Y22525   7.184   5.716   4.339
  183DOPC   C3922526   7.255   5.533   4.435
  183DOPC   H9X22527   7.256   5.424   4.421
  183DOPC  C31022528   7.327   5.587   4.535
  183DOPC  H10X22529   7.389   5.520   4.597
  183DOPC  C31122530   7.334   5.733   4.572
  183DOPC  H11X22531   7.231   5.776   4.574
  183DOPC  H11Y22532   7.391   5.789   4.496
  183DOPC  C31222533   7.398   5.756   4.709
  183DOPC  H12X22534   7.397   5.865   4.729
  183DOPC  H12Y22535   7.505   5.724   4.708
  183DOPC  C31322536   7.327   5.683   4.824
  183DOPC  H13X22537   7.219   5.709   4.822
  183DOPC  H13Y22538   7.335   5.574   4.805
  183DOPC  C31422539   7.385   5.709   4.964
  183DOPC  H14X22540   7.327   5.649   5.037
  183DOPC  H14Y22541   7.490   5.672   4.966
  183DOPC  C31522542   7.384   5.856   5.009
  183DOPC  H15X22543   7.462   5.911   4.952
  183DOPC  H15Y22544   7.411   5.861   5.117
  183DOPC  C31622545   7.250   5.929   4.988
  183DOPC  H16X22546   7.260   6.033   5.027
  183DOPC  H16Y22547   7.230   5.936   4.879
  183DOPC  C31722548   7.130   5.862   5.056
  183DOPC  H17X22549   7.124   5.755   5.025
  183DOPC  H17Y22550   7.144   5.864   5.166
  183DOPC  C31822551   6.997   5.929   5.019
  183DOPC  H18X22552   6.911   5.876   5.065
  183DOPC  H18Y22553   6.996   6.035   5.054
  183DOPC  H18Z22554   6.984   5.929   4.909
  184DOPC     N22555   4.673   0.525   3.067
  184DOPC   C1222556   4.679   0.610   2.940
  184DOPC  H12A22557   4.591   0.672   2.934
  184DOPC  H12B22558   4.674   0.543   2.855
  184DOPC   C1322559   4.771   0.412   3.053
  184DOPC  H13A22560   4.751   0.354   2.964
  184DOPC  H13B22561   4.870   0.452   3.040
  184DOPC  H13C22562   4.772   0.348   3.140
  184DOPC   C1422563   4.536   0.469   3.085
  184DOPC  H14A22564   4.464   0.548   3.099
  184DOPC  H14B22565   4.508   0.414   2.996
  184DOPC  H14C22566   4.532   0.403   3.170
  184DOPC   C1522567   4.713   0.607   3.186
  184DOPC  H15A22568   4.648   0.692   3.199
  184DOPC  H15B22569   4.813   0.646   3.171
  184DOPC  H15C22570   4.715   0.549   3.277
  184DOPC   C1122571   4.802   0.701   2.916
  184DOPC  H11A22572   4.789   0.750   2.817
  184DOPC  H11B22573   4.802   0.783   2.991
  184DOPC     P22574   5.044   0.644   3.010
  184DOPC   O1322575   5.163   0.687   2.934
  184DOPC   O1422576   5.055   0.520   3.091
  184DOPC   O1222577   4.922   0.625   2.913
  184DOPC   O1122578   4.998   0.761   3.105
  184DOPC    C122579   5.084   0.812   3.207
  184DOPC    HA22580   5.106   0.919   3.185
  184DOPC    HB22581   5.181   0.760   3.214
  184DOPC    C222582   5.012   0.805   3.344
  184DOPC    HS22583   5.079   0.846   3.423
  184DOPC   O2122584   4.973   0.669   3.374
  184DOPC   C2122585   5.076   0.591   3.405
  184DOPC   O2222586   5.190   0.629   3.424
  184DOPC   C2222587   5.030   0.446   3.416
  184DOPC   H2R22588   5.094   0.388   3.347
  184DOPC   H2S22589   4.924   0.437   3.382
  184DOPC    C322590   4.885   0.894   3.341
  184DOPC    HX22591   4.816   0.853   3.265
  184DOPC    HY22592   4.913   0.995   3.304
  184DOPC   O3122593   4.816   0.899   3.469
  184DOPC   C3122594   4.865   0.990   3.553
  184DOPC   O3222595   4.955   1.068   3.528
  184DOPC   C3222596   4.790   0.981   3.685
  184DOPC   H2X22597   4.682   0.997   3.666
  184DOPC   H2Y22598   4.805   0.879   3.726
  184DOPC   C2322599   5.046   0.393   3.561
  184DOPC   H3R22600   5.150   0.413   3.595
  184DOPC   H3S22601   5.031   0.283   3.561
  184DOPC   C2422602   4.944   0.455   3.658
  184DOPC   H4R22603   4.842   0.430   3.623
  184DOPC   H4S22604   4.954   0.566   3.656
  184DOPC   C2522605   4.960   0.408   3.804
  184DOPC   H5R22606   4.953   0.297   3.808
  184DOPC   H5S22607   4.876   0.449   3.863
  184DOPC   C2622608   5.092   0.453   3.868
  184DOPC   H6R22609   5.101   0.563   3.859
  184DOPC   H6S22610   5.177   0.408   3.812
  184DOPC   C2722611   5.106   0.411   4.016
  184DOPC   H7R22612   5.210   0.433   4.049
  184DOPC   H7S22613   5.092   0.301   4.023
  184DOPC   C2822614   5.009   0.480   4.114
  184DOPC   H8R22615   5.030   0.441   4.215
  184DOPC   H8S22616   4.905   0.449   4.089
  184DOPC   C2922617   5.023   0.630   4.116
  184DOPC   H9R22618   5.127   0.666   4.118
  184DOPC  C21022619   4.924   0.721   4.117
  184DOPC  H10R22620   4.949   0.828   4.121
  184DOPC  C21122621   4.776   0.690   4.115
  184DOPC  H11R22622   4.755   0.600   4.054
  184DOPC  H11S22623   4.720   0.773   4.068
  184DOPC  C21222624   4.719   0.667   4.257
  184DOPC  H12R22625   4.771   0.582   4.305
  184DOPC  H12S22626   4.612   0.638   4.247
  184DOPC  C21322627   4.727   0.791   4.347
  184DOPC  H13R22628   4.685   0.877   4.291
  184DOPC  H13S22629   4.833   0.814   4.371
  184DOPC  C21422630   4.647   0.776   4.478
  184DOPC  H14R22631   4.542   0.749   4.452
  184DOPC  H14S22632   4.645   0.875   4.529
  184DOPC  C21522633   4.704   0.673   4.576
  184DOPC  H15R22634   4.808   0.702   4.603
  184DOPC  H15S22635   4.708   0.573   4.528
  184DOPC  C21622636   4.620   0.663   4.704
  184DOPC  H16R22637   4.522   0.616   4.679
  184DOPC  H16S22638   4.599   0.765   4.742
  184DOPC  C21722639   4.688   0.582   4.815
  184DOPC  H17R22640   4.778   0.638   4.849
  184DOPC  H17S22641   4.724   0.486   4.772
  184DOPC  C21822642   4.596   0.554   4.934
  184DOPC  H18R22643   4.510   0.491   4.903
  184DOPC  H18S22644   4.556   0.649   4.975
  184DOPC  H18T22645   4.651   0.500   5.014
  184DOPC   C3322646   4.842   1.086   3.786
  184DOPC   H3X22647   4.826   1.188   3.746
  184DOPC   H3Y22648   4.951   1.073   3.800
  184DOPC   C3422649   4.774   1.075   3.924
  184DOPC   H4X22650   4.787   0.972   3.963
  184DOPC   H4Y22651   4.665   1.094   3.914
  184DOPC   C3522652   4.835   1.174   4.023
  184DOPC   H5X22653   4.817   1.278   3.989
  184DOPC   H5Y22654   4.945   1.158   4.023
  184DOPC   C3622655   4.786   1.159   4.168
  184DOPC   H6X22656   4.800   1.054   4.201
  184DOPC   H6Y22657   4.852   1.222   4.231
  184DOPC   C3722658   4.641   1.203   4.190
  184DOPC   H7X22659   4.627   1.306   4.150
  184DOPC   H7Y22660   4.574   1.136   4.132
  184DOPC   C3822661   4.597   1.199   4.338
  184DOPC   H8X22662   4.612   1.095   4.375
  184DOPC   H8Y22663   4.488   1.218   4.343
  184DOPC   C3922664   4.670   1.300   4.424
  184DOPC   H9X22665   4.627   1.401   4.422
  184DOPC  C31022666   4.781   1.278   4.498
  184DOPC  H10X22667   4.824   1.362   4.554
  184DOPC  C31122668   4.856   1.148   4.512
  184DOPC  H11X22669   4.949   1.151   4.451
  184DOPC  H11Y22670   4.796   1.062   4.474
  184DOPC  C31222671   4.896   1.118   4.657
  184DOPC  H12X22672   4.806   1.120   4.722
  184DOPC  H12Y22673   4.966   1.195   4.694
  184DOPC  C31322674   4.961   0.979   4.671
  184DOPC  H13X22675   4.883   0.903   4.649
  184DOPC  H13Y22676   5.041   0.968   4.594
  184DOPC  C31422677   5.021   0.950   4.809
  184DOPC  H14X22678   5.046   0.842   4.813
  184DOPC  H14Y22679   5.116   1.007   4.822
  184DOPC  C31522680   4.929   0.985   4.927
  184DOPC  H15X22681   4.826   0.947   4.907
  184DOPC  H15Y22682   4.923   1.095   4.936
  184DOPC  C31622683   4.978   0.926   5.060
  184DOPC  H16X22684   5.085   0.951   5.076
  184DOPC  H16Y22685   4.921   0.973   5.143
  184DOPC  C31722686   4.958   0.774   5.067
  184DOPC  H17X22687   4.856   0.751   5.031
  184DOPC  H17Y22688   5.029   0.723   4.999
  184DOPC  C31822689   4.973   0.715   5.208
  184DOPC  H18X22690   5.080   0.715   5.240
  184DOPC  H18Y22691   4.914   0.773   5.282
  184DOPC  H18Z22692   4.937   0.610   5.209
  185DOPC     N22693   6.321   6.052   3.106
  185DOPC   C1222694   6.381   5.915   3.137
  185DOPC  H12A22695   6.352   5.886   3.237
  185DOPC  H12B22696   6.488   5.923   3.136
  185DOPC   C1322697   6.172   6.044   3.098
  185DOPC  H13A22698   6.143   5.976   3.019
  185DOPC  H13B22699   6.130   6.008   3.191
  185DOPC  H13C22700   6.129   6.141   3.076
  185DOPC   C1422701   6.374   6.101   2.975
  185DOPC  H14A22702   6.479   6.127   2.985
  185DOPC  H14B22703   6.366   6.023   2.901
  185DOPC  H14C22704   6.323   6.189   2.940
  185DOPC   C1522705   6.362   6.155   3.208
  185DOPC  H15A22706   6.468   6.174   3.200
  185DOPC  H15B22707   6.337   6.125   3.309
  185DOPC  H15C22708   6.315   6.250   3.188
  185DOPC   C1122709   6.346   5.798   3.040
  185DOPC  H11A22710   6.383   5.702   3.083
  185DOPC  H11B22711   6.236   5.787   3.034
  185DOPC     P22712   6.552   5.799   2.879
  185DOPC   O1322713   6.595   5.916   2.799
  185DOPC   O1422714   6.574   5.667   2.815
  185DOPC   O1222715   6.398   5.818   2.909
  185DOPC   O1122716   6.618   5.801   3.021
  185DOPC    C122717   6.733   5.881   3.054
  185DOPC    HA22718   6.700   5.985   3.072
  185DOPC    HB22719   6.807   5.882   2.971
  185DOPC    C222720   6.804   5.829   3.183
  185DOPC    HS22721   6.875   5.749   3.152
  185DOPC   O2122722   6.705   5.781   3.276
  185DOPC   C2122723   6.672   5.653   3.258
  185DOPC   O2222724   6.735   5.572   3.194
  185DOPC   C2222725   6.539   5.621   3.326
  185DOPC   H2R22726   6.509   5.521   3.289
  185DOPC   H2S22727   6.462   5.694   3.292
  185DOPC    C322728   6.891   5.939   3.250
  185DOPC    HX22729   6.965   5.974   3.175
  185DOPC    HY22730   6.949   5.894   3.333
  185DOPC   O3122731   6.807   6.050   3.290
  185DOPC   C3122732   6.770   6.051   3.417
  185DOPC   O3222733   6.823   5.990   3.509
  185DOPC   C3222734   6.642   6.134   3.428
  185DOPC   H2X22735   6.651   6.223   3.362
  185DOPC   H2Y22736   6.561   6.069   3.390
  185DOPC   C2322737   6.548   5.619   3.479
  185DOPC   H3R22738   6.645   5.579   3.514
  185DOPC   H3S22739   6.470   5.548   3.514
  185DOPC   C2422740   6.517   5.755   3.542
  185DOPC   H4R22741   6.420   5.791   3.502
  185DOPC   H4S22742   6.596   5.829   3.514
  185DOPC   C2522743   6.506   5.747   3.695
  185DOPC   H5R22744   6.606   5.726   3.738
  185DOPC   H5S22745   6.440   5.662   3.721
  185DOPC   C2622746   6.447   5.874   3.757
  185DOPC   H6R22747   6.367   5.914   3.690
  185DOPC   H6S22748   6.527   5.951   3.764
  185DOPC   C2722749   6.384   5.851   3.896
  185DOPC   H7R22750   6.286   5.800   3.882
  185DOPC   H7S22751   6.362   5.950   3.942
  185DOPC   C2822752   6.467   5.766   3.993
  185DOPC   H8R22753   6.468   5.661   3.956
  185DOPC   H8S22754   6.415   5.764   4.091
  185DOPC   C2922755   6.608   5.816   4.011
  185DOPC   H9R22756   6.630   5.916   3.970
  185DOPC  C21022757   6.706   5.747   4.073
  185DOPC  H10R22758   6.806   5.792   4.082
  185DOPC  C21122759   6.690   5.611   4.135
  185DOPC  H11R22760   6.785   5.554   4.132
  185DOPC  H11S22761   6.616   5.549   4.078
  185DOPC  C21222762   6.641   5.621   4.280
  185DOPC  H12R22763   6.622   5.518   4.319
  185DOPC  H12S22764   6.544   5.675   4.283
  185DOPC  C21322765   6.740   5.691   4.374
  185DOPC  H13R22766   6.761   5.794   4.337
  185DOPC  H13S22767   6.836   5.635   4.375
  185DOPC  C21422768   6.686   5.701   4.518
  185DOPC  H14R22769   6.663   5.599   4.554
  185DOPC  H14S22770   6.591   5.759   4.516
  185DOPC  C21522771   6.784   5.770   4.614
  185DOPC  H15R22772   6.818   5.865   4.568
  185DOPC  H15S22773   6.874   5.706   4.626
  185DOPC  C21622774   6.724   5.801   4.751
  185DOPC  H16R22775   6.634   5.866   4.740
  185DOPC  H16S22776   6.799   5.860   4.808
  185DOPC  C21722777   6.687   5.677   4.835
  185DOPC  H17R22778   6.707   5.701   4.941
  185DOPC  H17S22779   6.755   5.594   4.808
  185DOPC  C21822780   6.541   5.633   4.822
  185DOPC  H18R22781   6.518   5.599   4.719
  185DOPC  H18S22782   6.472   5.716   4.848
  185DOPC  H18T22783   6.520   5.548   4.891
  185DOPC   C3322784   6.607   6.178   3.572
  185DOPC   H3X22785   6.668   6.266   3.600
  185DOPC   H3Y22786   6.631   6.098   3.645
  185DOPC   C3422787   6.457   6.212   3.586
  185DOPC   H4X22788   6.399   6.117   3.589
  185DOPC   H4Y22789   6.425   6.268   3.495
  185DOPC   C3522790   6.420   6.299   3.707
  185DOPC   H5X22791   6.310   6.310   3.711
  185DOPC   H5Y22792   6.463   6.400   3.692
  185DOPC   C3622793   6.470   6.248   3.844
  185DOPC   H6X22794   6.423   6.150   3.866
  185DOPC   H6Y22795   6.580   6.233   3.840
  185DOPC   C3722796   6.436   6.347   3.956
  185DOPC   H7X22797   6.481   6.446   3.933
  185DOPC   H7Y22798   6.326   6.362   3.956
  185DOPC   C3822799   6.479   6.302   4.097
  185DOPC   H8X22800   6.428   6.205   4.118
  185DOPC   H8Y22801   6.439   6.375   4.170
  185DOPC   C3922802   6.628   6.290   4.113
  185DOPC   H9X22803   6.687   6.363   4.055
  185DOPC  C31022804   6.692   6.201   4.191
  185DOPC  H10X22805   6.802   6.202   4.195
  185DOPC  C31122806   6.626   6.097   4.277
  185DOPC  H11X22807   6.619   6.001   4.222
  185DOPC  H11Y22808   6.522   6.126   4.304
  185DOPC  C31222809   6.702   6.069   4.409
  185DOPC  H12X22810   6.803   6.030   4.387
  185DOPC  H12Y22811   6.647   5.989   4.463
  185DOPC  C31322812   6.712   6.191   4.502
  185DOPC  H13X22813   6.790   6.260   4.463
  185DOPC  H13Y22814   6.615   6.246   4.501
  185DOPC  C31422815   6.744   6.153   4.647
  185DOPC  H14X22816   6.655   6.101   4.691
  185DOPC  H14Y22817   6.829   6.081   4.650
  185DOPC  C31522818   6.780   6.275   4.732
  185DOPC  H15X22819   6.696   6.347   4.728
  185DOPC  H15Y22820   6.869   6.324   4.687
  185DOPC  C31622821   6.810   6.243   4.880
  185DOPC  H16X22822   6.890   6.166   4.886
  185DOPC  H16Y22823   6.849   6.336   4.928
  185DOPC  C31722824   6.687   6.197   4.958
  185DOPC  H17X22825   6.603   6.267   4.939
  185DOPC  H17Y22826   6.655   6.097   4.921
  185DOPC  C31822827   6.711   6.189   5.109
  185DOPC  H18X22828   6.790   6.114   5.133
  185DOPC  H18Y22829   6.745   6.287   5.148
  185DOPC  H18Z22830   6.618   6.160   5.163
  186DOPC     N22831   0.471   2.979   2.963
  186DOPC   C1222832   0.415   3.078   2.862
  186DOPC  H12A22833   0.353   3.024   2.793
  186DOPC  H12B22834   0.498   3.122   2.808
  186DOPC   C1322835   0.356   2.910   3.028
  186DOPC  H13A22836   0.386   2.841   3.106
  186DOPC  H13B22837   0.291   2.984   3.074
  186DOPC  H13C22838   0.295   2.859   2.955
  186DOPC   C1422839   0.550   3.051   3.068
  186DOPC  H14A22840   0.634   3.103   3.024
  186DOPC  H14B22841   0.487   3.124   3.116
  186DOPC  H14C22842   0.584   2.984   3.146
  186DOPC   C1522843   0.557   2.877   2.894
  186DOPC  H15A22844   0.599   2.806   2.964
  186DOPC  H15B22845   0.639   2.924   2.843
  186DOPC  H15C22846   0.499   2.820   2.822
  186DOPC   C1122847   0.328   3.194   2.917
  186DOPC  H11A22848   0.388   3.252   2.990
  186DOPC  H11B22849   0.305   3.262   2.832
  186DOPC     P22850   0.139   3.198   3.102
  186DOPC   O1322851  -0.005   3.214   3.074
  186DOPC   O1422852   0.213   3.319   3.144
  186DOPC   O1222853   0.205   3.145   2.970
  186DOPC   O1122854   0.166   3.079   3.201
  186DOPC    C122855   0.082   2.963   3.202
  186DOPC    HA22856   0.144   2.875   3.230
  186DOPC    HB22857   0.039   2.940   3.102
  186DOPC    C222858  -0.036   2.972   3.304
  186DOPC    HS22859  -0.116   3.030   3.252
  186DOPC   O2122860   0.009   3.042   3.422
  186DOPC   C2122861  -0.089   3.102   3.489
  186DOPC   O2222862  -0.207   3.097   3.459
  186DOPC   C2222863  -0.037   3.176   3.614
  186DOPC   H2R22864  -0.068   3.113   3.700
  186DOPC   H2S22865  -0.094   3.271   3.621
  186DOPC    C322866  -0.092   2.830   3.337
  186DOPC    HX22867  -0.148   2.794   3.248
  186DOPC    HY22868  -0.164   2.838   3.422
  186DOPC   O3122869   0.014   2.737   3.367
  186DOPC   C3122870  -0.023   2.617   3.410
  186DOPC   O3222871  -0.137   2.585   3.440
  186DOPC   C3222872   0.098   2.522   3.410
  186DOPC   H2X22873   0.068   2.429   3.357
  186DOPC   H2Y22874   0.177   2.571   3.349
  186DOPC   C2322875   0.116   3.204   3.625
  186DOPC   H3R22876   0.140   3.303   3.581
  186DOPC   H3S22877   0.175   3.130   3.567
  186DOPC   C2422878   0.163   3.198   3.772
  186DOPC   H4R22879   0.140   3.097   3.812
  186DOPC   H4S22880   0.104   3.271   3.832
  186DOPC   C2522881   0.313   3.224   3.790
  186DOPC   H5R22882   0.336   3.327   3.757
  186DOPC   H5S22883   0.370   3.154   3.725
  186DOPC   C2622884   0.361   3.205   3.935
  186DOPC   H6R22885   0.471   3.220   3.939
  186DOPC   H6S22886   0.340   3.101   3.967
  186DOPC   C2722887   0.296   3.302   4.035
  186DOPC   H7R22888   0.186   3.283   4.036
  186DOPC   H7S22889   0.312   3.406   3.997
  186DOPC   C2822890   0.351   3.293   4.178
  186DOPC   H8R22891   0.458   3.321   4.177
  186DOPC   H8S22892   0.346   3.187   4.211
  186DOPC   C2922893   0.272   3.385   4.269
  186DOPC   H9R22894   0.263   3.487   4.231
  186DOPC  C21022895   0.212   3.354   4.385
  186DOPC  H10R22896   0.157   3.434   4.437
  186DOPC  C21122897   0.209   3.221   4.456
  186DOPC  H11R22898   0.295   3.159   4.425
  186DOPC  H11S22899   0.117   3.165   4.429
  186DOPC  C21222900   0.216   3.234   4.610
  186DOPC  H12R22901   0.307   3.292   4.637
  186DOPC  H12S22902   0.230   3.132   4.652
  186DOPC  C21322903   0.094   3.299   4.678
  186DOPC  H13R22904   0.079   3.401   4.638
  186DOPC  H13S22905   0.117   3.310   4.786
  186DOPC  C21422906  -0.039   3.222   4.666
  186DOPC  H14R22907  -0.071   3.221   4.559
  186DOPC  H14S22908  -0.117   3.279   4.722
  186DOPC  C21522909  -0.037   3.078   4.719
  186DOPC  H15R22910   0.022   3.017   4.646
  186DOPC  H15S22911  -0.140   3.038   4.720
  186DOPC  C21622912   0.026   3.059   4.858
  186DOPC  H16R22913   0.133   3.089   4.853
  186DOPC  H16S22914   0.024   2.951   4.885
  186DOPC  C21722915  -0.040   3.139   4.971
  186DOPC  H17R22916  -0.143   3.101   4.988
  186DOPC  H17S22917  -0.048   3.246   4.942
  186DOPC  C21822918   0.041   3.130   5.101
  186DOPC  H18R22919  -0.003   3.192   5.181
  186DOPC  H18S22920   0.145   3.166   5.083
  186DOPC  H18T22921   0.046   3.025   5.136
  186DOPC   C3322922   0.159   2.487   3.549
  186DOPC   H3X22923   0.116   2.391   3.586
  186DOPC   H3Y22924   0.135   2.565   3.624
  186DOPC   C3422925   0.312   2.477   3.538
  186DOPC   H4X22926   0.351   2.577   3.508
  186DOPC   H4Y22927   0.335   2.409   3.453
  186DOPC   C3522928   0.394   2.429   3.658
  186DOPC   H5X22929   0.501   2.444   3.630
  186DOPC   H5Y22930   0.381   2.319   3.672
  186DOPC   C3622931   0.371   2.500   3.793
  186DOPC   H6X22932   0.463   2.490   3.854
  186DOPC   H6Y22933   0.354   2.608   3.776
  186DOPC   C3722934   0.256   2.440   3.874
  186DOPC   H7X22935   0.164   2.445   3.812
  186DOPC   H7Y22936   0.277   2.332   3.893
  186DOPC   C3822937   0.233   2.511   4.009
  186DOPC   H8X22938   0.243   2.620   3.993
  186DOPC   H8Y22939   0.313   2.480   4.079
  186DOPC   C3922940   0.095   2.481   4.061
  186DOPC   H9X22941   0.014   2.493   3.988
  186DOPC  C31022942   0.063   2.443   4.186
  186DOPC  H10X22943  -0.043   2.426   4.210
  186DOPC  C31122944   0.158   2.423   4.300
  186DOPC  H11X22945   0.243   2.495   4.297
  186DOPC  H11Y22946   0.203   2.321   4.293
  186DOPC  C31222947   0.087   2.434   4.436
  186DOPC  H12X22948   0.156   2.393   4.513
  186DOPC  H12Y22949  -0.006   2.374   4.439
  186DOPC  C31322950   0.053   2.578   4.476
  186DOPC  H13X22951   0.142   2.641   4.453
  186DOPC  H13Y22952  -0.030   2.617   4.414
  186DOPC  C31422953   0.018   2.590   4.625
  186DOPC  H14X22954  -0.092   2.587   4.638
  186DOPC  H14Y22955   0.060   2.502   4.679
  186DOPC  C31522956   0.075   2.716   4.693
  186DOPC  H15X22957   0.039   2.720   4.798
  186DOPC  H15Y22958   0.037   2.806   4.640
  186DOPC  C31622959   0.229   2.718   4.694
  186DOPC  H16X22960   0.265   2.620   4.731
  186DOPC  H16Y22961   0.267   2.731   4.590
  186DOPC  C31722962   0.291   2.828   4.780
  186DOPC  H17X22963   0.252   2.927   4.747
  186DOPC  H17Y22964   0.259   2.813   4.885
  186DOPC  C31822965   0.444   2.829   4.771
  186DOPC  H18X22966   0.484   2.726   4.785
  186DOPC  H18Y22967   0.477   2.865   4.671
  186DOPC  H18Z22968   0.488   2.894   4.849
  187DOPC     N22969   5.695   1.162   2.898
  187DOPC   C1222970   5.825   1.161   2.978
  187DOPC  H12A22971   5.881   1.251   2.960
  187DOPC  H12B22972   5.887   1.080   2.942
  187DOPC   C1322973   5.616   1.285   2.930
  187DOPC  H13A22974   5.668   1.375   2.900
  187DOPC  H13B22975   5.521   1.282   2.877
  187DOPC  H13C22976   5.593   1.288   3.035
  187DOPC   C1422977   5.612   1.042   2.935
  187DOPC  H14A22978   5.659   0.951   2.900
  187DOPC  H14B22979   5.608   1.033   3.043
  187DOPC  H14C22980   5.512   1.048   2.895
  187DOPC   C1522981   5.720   1.155   2.751
  187DOPC  H15A22982   5.783   1.236   2.717
  187DOPC  H15B22983   5.626   1.159   2.697
  187DOPC  H15C22984   5.767   1.061   2.726
  187DOPC   C1122985   5.813   1.136   3.130
  187DOPC  H11A22986   5.907   1.169   3.181
  187DOPC  H11B22987   5.731   1.198   3.173
  187DOPC     P22988   5.907   0.896   3.141
  187DOPC   O1322989   5.989   0.940   3.026
  187DOPC   O1422990   5.851   0.759   3.130
  187DOPC   O1222991   5.786   0.998   3.156
  187DOPC   O1122992   5.981   0.915   3.279
  187DOPC    C122993   5.925   0.851   3.395
  187DOPC    HA22994   5.921   0.741   3.380
  187DOPC    HB22995   5.822   0.887   3.415
  187DOPC    C222996   6.014   0.873   3.522
  187DOPC    HS22997   5.988   0.793   3.595
  187DOPC   O2122998   5.992   1.003   3.580
  187DOPC   C2122999   5.882   1.014   3.651
  187DOPC   O2223000   5.798   0.928   3.667
  187DOPC   C2223001   5.882   1.153   3.718
  187DOPC   H2R23002   5.909   1.226   3.639
  187DOPC   H2S23003   5.963   1.154   3.794
  187DOPC    C323004   6.165   0.857   3.491
  187DOPC    HX23005   6.195   0.933   3.415
  187DOPC    HY23006   6.179   0.757   3.444
  187DOPC   O3123007   6.241   0.863   3.614
  187DOPC   C3123008   6.312   0.974   3.634
  187DOPC   O3223009   6.340   1.059   3.552
  187DOPC   C3223010   6.347   0.983   3.783
  187DOPC   H2X23011   6.348   1.092   3.808
  187DOPC   H2Y23012   6.266   0.934   3.841
  187DOPC   C2323013   5.747   1.193   3.780
  187DOPC   H3R23014   5.666   1.182   3.705
  187DOPC   H3S23015   5.752   1.301   3.807
  187DOPC   C2423016   5.707   1.116   3.908
  187DOPC   H4R23017   5.694   1.008   3.884
  187DOPC   H4S23018   5.608   1.155   3.939
  187DOPC   C2523019   5.804   1.132   4.026
  187DOPC   H5R23020   5.831   1.239   4.033
  187DOPC   H5S23021   5.897   1.074   4.007
  187DOPC   C2623022   5.741   1.090   4.161
  187DOPC   H6R23023   5.637   1.129   4.163
  187DOPC   H6S23024   5.796   1.140   4.244
  187DOPC   C2723025   5.738   0.938   4.186
  187DOPC   H7R23026   5.715   0.888   4.090
  187DOPC   H7S23027   5.654   0.915   4.256
  187DOPC   C2823028   5.867   0.876   4.246
  187DOPC   H8R23029   5.952   0.903   4.179
  187DOPC   H8S23030   5.857   0.766   4.241
  187DOPC   C2923031   5.895   0.923   4.387
  187DOPC   H9R23032   5.906   1.032   4.395
  187DOPC  C21023033   5.906   0.851   4.500
  187DOPC  H10R23034   5.924   0.906   4.593
  187DOPC  C21123035   5.894   0.701   4.519
  187DOPC  H11R23036   5.874   0.649   4.424
  187DOPC  H11S23037   5.808   0.681   4.586
  187DOPC  C21223038   6.018   0.636   4.585
  187DOPC  H12R23039   6.102   0.636   4.512
  187DOPC  H12S23040   5.994   0.530   4.606
  187DOPC  C21323041   6.063   0.703   4.715
  187DOPC  H13R23042   5.979   0.705   4.788
  187DOPC  H13S23043   6.090   0.809   4.693
  187DOPC  C21423044   6.185   0.635   4.781
  187DOPC  H14R23045   6.261   0.613   4.702
  187DOPC  H14S23046   6.152   0.538   4.824
  187DOPC  C21523047   6.251   0.721   4.890
  187DOPC  H15R23048   6.321   0.658   4.949
  187DOPC  H15S23049   6.174   0.760   4.959
  187DOPC  C21623050   6.332   0.838   4.830
  187DOPC  H16R23051   6.267   0.898   4.764
  187DOPC  H16S23052   6.414   0.796   4.768
  187DOPC  C21723053   6.393   0.932   4.934
  187DOPC  H17R23054   6.463   0.875   4.998
  187DOPC  H17S23055   6.312   0.971   4.999
  187DOPC  C21823056   6.468   1.049   4.869
  187DOPC  H18R23057   6.511   1.117   4.947
  187DOPC  H18S23058   6.399   1.109   4.806
  187DOPC  H18T23059   6.551   1.012   4.806
  187DOPC   C3323060   6.483   0.921   3.821
  187DOPC   H3X23061   6.565   0.976   3.771
  187DOPC   H3Y23062   6.486   0.816   3.786
  187DOPC   C3423063   6.508   0.920   3.973
  187DOPC   H4X23064   6.603   0.867   3.995
  187DOPC   H4Y23065   6.428   0.863   4.024
  187DOPC   C3523066   6.515   1.060   4.037
  187DOPC   H5X23067   6.542   1.135   3.960
  187DOPC   H5Y23068   6.594   1.061   4.115
  187DOPC   C3623069   6.381   1.095   4.104
  187DOPC   H6X23070   6.300   1.078   4.030
  187DOPC   H6Y23071   6.363   1.025   4.188
  187DOPC   C3723072   6.373   1.239   4.154
  187DOPC   H7X23073   6.382   1.241   4.265
  187DOPC   H7Y23074   6.458   1.298   4.114
  187DOPC   C3823075   6.242   1.308   4.109
  187DOPC   H8X23076   6.237   1.306   3.998
  187DOPC   H8Y23077   6.247   1.415   4.138
  187DOPC   C3923078   6.120   1.242   4.168
  187DOPC   H9X23079   6.071   1.168   4.102
  187DOPC  C31023080   6.070   1.262   4.291
  187DOPC  H10X23081   5.980   1.208   4.322
  187DOPC  C31123082   6.127   1.354   4.396
  187DOPC  H11X23083   6.058   1.440   4.413
  187DOPC  H11Y23084   6.224   1.397   4.362
  187DOPC  C31223085   6.153   1.284   4.531
  187DOPC  H12X23086   6.214   1.353   4.593
  187DOPC  H12Y23087   6.214   1.192   4.515
  187DOPC  C31323088   6.026   1.250   4.610
  187DOPC  H13X23089   5.961   1.340   4.615
  187DOPC  H13Y23090   5.970   1.172   4.555
  187DOPC  C31423091   6.055   1.201   4.752
  187DOPC  H14X23092   5.962   1.155   4.792
  187DOPC  H14Y23093   6.133   1.122   4.749
  187DOPC  C31523094   6.098   1.313   4.849
  187DOPC  H15X23095   6.014   1.385   4.858
  187DOPC  H15Y23096   6.185   1.368   4.807
  187DOPC  C31623097   6.136   1.259   4.988
  187DOPC  H16X23098   6.057   1.191   5.025
  187DOPC  H16Y23099   6.229   1.199   4.977
  187DOPC  C31723100   6.159   1.369   5.092
  187DOPC  H17X23101   6.210   1.324   5.180
  187DOPC  H17Y23102   6.227   1.446   5.050
  187DOPC  C31823103   6.030   1.437   5.140
  187DOPC  H18X23104   6.052   1.512   5.219
  187DOPC  H18Y23105   5.980   1.489   5.055
  187DOPC  H18Z23106   5.959   1.362   5.181
  188DOPC     N23107   1.432   0.839   2.872
  188DOPC   C1223108   1.340   0.793   2.985
  188DOPC  H12A23109   1.360   0.690   3.009
  188DOPC  H12B23110   1.237   0.799   2.951
  188DOPC   C1323111   1.570   0.860   2.928
  188DOPC  H13A23112   1.609   0.771   2.974
  188DOPC  H13B23113   1.638   0.897   2.853
  188DOPC  H13C23114   1.564   0.935   3.006
  188DOPC   C1423115   1.385   0.971   2.821
  188DOPC  H14A23116   1.293   0.963   2.764
  188DOPC  H14B23117   1.365   1.035   2.906
  188DOPC  H14C23118   1.458   1.020   2.759
  188DOPC   C1523119   1.436   0.740   2.760
  188DOPC  H15A23120   1.469   0.643   2.793
  188DOPC  H15B23121   1.505   0.773   2.683
  188DOPC  H15C23122   1.339   0.729   2.715
  188DOPC   C1123123   1.348   0.873   3.117
  188DOPC  H11A23124   1.270   0.835   3.187
  188DOPC  H11B23125   1.446   0.852   3.166
  188DOPC     P23126   1.413   1.122   3.168
  188DOPC   O1323127   1.373   1.253   3.111
  188DOPC   O1423128   1.555   1.083   3.150
  188DOPC   O1223129   1.327   1.012   3.094
  188DOPC   O1123130   1.367   1.106   3.319
  188DOPC    C123131   1.227   1.090   3.348
  188DOPC    HA23132   1.178   1.013   3.283
  188DOPC    HB23133   1.174   1.185   3.330
  188DOPC    C223134   1.197   1.046   3.496
  188DOPC    HS23135   1.087   1.056   3.511
  188DOPC   O2123136   1.270   1.127   3.588
  188DOPC   C2123137   1.232   1.252   3.598
  188DOPC   O2223138   1.129   1.300   3.552
  188DOPC   C2223139   1.336   1.331   3.677
  188DOPC   H2R23140   1.302   1.437   3.677
  188DOPC   H2S23141   1.433   1.326   3.622
  188DOPC    C323142   1.231   0.896   3.525
  188DOPC    HX23143   1.218   0.835   3.433
  188DOPC    HY23144   1.156   0.861   3.599
  188DOPC   O3123145   1.361   0.882   3.587
  188DOPC   C3123146   1.461   0.854   3.504
  188DOPC   O3223147   1.453   0.786   3.403
  188DOPC   C3223148   1.586   0.928   3.554
  188DOPC   H2X23149   1.654   0.939   3.467
  188DOPC   H2Y23150   1.554   1.029   3.586
  188DOPC   C2323151   1.354   1.282   3.823
  188DOPC   H3R23152   1.257   1.250   3.866
  188DOPC   H3S23153   1.391   1.367   3.884
  188DOPC   C2423154   1.457   1.169   3.834
  188DOPC   H4R23155   1.553   1.205   3.792
  188DOPC   H4S23156   1.426   1.082   3.772
  188DOPC   C2523157   1.482   1.123   3.979
  188DOPC   H5R23158   1.491   1.212   4.045
  188DOPC   H5S23159   1.579   1.069   3.982
  188DOPC   C2623160   1.374   1.028   4.035
  188DOPC   H6R23161   1.276   1.079   4.037
  188DOPC   H6S23162   1.402   1.006   4.140
  188DOPC   C2723163   1.363   0.896   3.957
  188DOPC   H7R23164   1.447   0.888   3.885
  188DOPC   H7S23165   1.270   0.900   3.895
  188DOPC   C2823166   1.360   0.770   4.045
  188DOPC   H8R23167   1.323   0.685   3.983
  188DOPC   H8S23168   1.286   0.784   4.127
  188DOPC   C2923169   1.496   0.734   4.100
  188DOPC   H9R23170   1.565   0.692   4.026
  188DOPC  C21023171   1.539   0.750   4.226
  188DOPC  H10R23172   1.641   0.719   4.251
  188DOPC  C21123173   1.462   0.808   4.343
  188DOPC  H11R23174   1.374   0.867   4.311
  188DOPC  H11S23175   1.528   0.880   4.397
  188DOPC  C21223176   1.414   0.701   4.443
  188DOPC  H12R23177   1.475   0.609   4.435
  188DOPC  H12S23178   1.309   0.676   4.418
  188DOPC  C21323179   1.419   0.749   4.589
  188DOPC  H13R23180   1.354   0.838   4.599
  188DOPC  H13S23181   1.523   0.779   4.615
  188DOPC  C21423182   1.373   0.642   4.689
  188DOPC  H14R23183   1.440   0.553   4.685
  188DOPC  H14S23184   1.272   0.608   4.658
  188DOPC  C21523185   1.366   0.696   4.833
  188DOPC  H15R23186   1.328   0.800   4.827
  188DOPC  H15S23187   1.468   0.701   4.878
  188DOPC  C21623188   1.270   0.617   4.924
  188DOPC  H16R23189   1.180   0.591   4.865
  188DOPC  H16S23190   1.238   0.683   5.007
  188DOPC  C21723191   1.328   0.489   4.984
  188DOPC  H17R23192   1.409   0.516   5.055
  188DOPC  H17S23193   1.374   0.428   4.904
  188DOPC  C21823194   1.221   0.407   5.056
  188DOPC  H18R23195   1.264   0.315   5.100
  188DOPC  H18S23196   1.141   0.378   4.985
  188DOPC  H18T23197   1.174   0.467   5.137
  188DOPC   C3323198   1.661   0.856   3.669
  188DOPC   H3X23199   1.712   0.768   3.625
  188DOPC   H3Y23200   1.591   0.820   3.748
  188DOPC   C3423201   1.770   0.944   3.734
  188DOPC   H4X23202   1.725   1.018   3.803
  188DOPC   H4Y23203   1.818   1.001   3.651
  188DOPC   C3523204   1.881   0.862   3.803
  188DOPC   H5X23205   1.978   0.914   3.787
  188DOPC   H5Y23206   1.890   0.764   3.752
  188DOPC   C3623207   1.865   0.842   3.954
  188DOPC   H6X23208   1.765   0.799   3.978
  188DOPC   H6Y23209   1.941   0.768   3.986
  188DOPC   C3723210   1.887   0.971   4.035
  188DOPC   H7X23211   1.951   1.039   3.973
  188DOPC   H7Y23212   1.791   1.024   4.050
  188DOPC   C3823213   1.962   0.951   4.168
  188DOPC   H8X23214   1.998   1.050   4.202
  188DOPC   H8Y23215   2.053   0.891   4.149
  188DOPC   C3923216   1.879   0.885   4.275
  188DOPC   H9X23217   1.880   0.775   4.273
  188DOPC  C31023218   1.804   0.947   4.368
  188DOPC  H10X23219   1.749   0.886   4.441
  188DOPC  C31123220   1.788   1.097   4.385
  188DOPC  H11X23221   1.688   1.128   4.346
  188DOPC  H11Y23222   1.863   1.151   4.324
  188DOPC  C31223223   1.802   1.149   4.529
  188DOPC  H12X23224   1.867   1.239   4.527
  188DOPC  H12Y23225   1.853   1.074   4.593
  188DOPC  C31323226   1.670   1.189   4.596
  188DOPC  H13X23227   1.694   1.226   4.698
  188DOPC  H13Y23228   1.624   1.273   4.540
  188DOPC  C31423229   1.569   1.074   4.607
  188DOPC  H14X23230   1.495   1.083   4.525
  188DOPC  H14Y23231   1.622   0.977   4.592
  188DOPC  C31523232   1.498   1.068   4.743
  188DOPC  H15X23233   1.404   1.010   4.733
  188DOPC  H15Y23234   1.471   1.171   4.775
  188DOPC  C31623235   1.586   1.001   4.849
  188DOPC  H16X23236   1.611   0.898   4.815
  188DOPC  H16Y23237   1.682   1.057   4.857
  188DOPC  C31723238   1.520   0.993   4.986
  188DOPC  H17X23239   1.506   1.097   5.023
  188DOPC  H17Y23240   1.420   0.947   4.977
  188DOPC  C31823241   1.603   0.913   5.088
  188DOPC  H18X23242   1.552   0.909   5.186
  188DOPC  H18Y23243   1.619   0.809   5.052
  188DOPC  H18Z23244   1.702   0.961   5.103
  189DOPC     N23245   3.680   0.254   2.975
  189DOPC   C1223246   3.609   0.169   3.078
  189DOPC  H12A23247   3.681   0.127   3.146
  189DOPC  H12B23248   3.560   0.087   3.030
  189DOPC   C1323249   3.776   0.171   2.896
  189DOPC  H13A23250   3.725   0.094   2.840
  189DOPC  H13B23251   3.831   0.232   2.825
  189DOPC  H13C23252   3.850   0.123   2.958
  189DOPC   C1423253   3.753   0.368   3.039
  189DOPC  H14A23254   3.684   0.431   3.094
  189DOPC  H14B23255   3.830   0.333   3.107
  189DOPC  H14C23256   3.801   0.431   2.966
  189DOPC   C1523257   3.578   0.313   2.882
  189DOPC  H15A23258   3.527   0.236   2.826
  189DOPC  H15B23259   3.621   0.384   2.813
  189DOPC  H15C23260   3.500   0.361   2.940
  189DOPC   C1123261   3.498   0.240   3.160
  189DOPC  H11A23262   3.478   0.178   3.250
  189DOPC  H11B23263   3.532   0.339   3.197
  189DOPC     P23264   3.274   0.140   3.076
  189DOPC   O1323265   3.349   0.017   3.041
  189DOPC   O1423266   3.164   0.177   2.985
  189DOPC   O1223267   3.381   0.257   3.080
  189DOPC   O1123268   3.225   0.137   3.227
  189DOPC    C123269   3.187   0.261   3.290
  189DOPC    HA23270   3.085   0.290   3.258
  189DOPC    HB23271   3.255   0.345   3.264
  189DOPC    C223272   3.186   0.250   3.446
  189DOPC    HS23273   3.166   0.350   3.489
  189DOPC   O2123274   3.311   0.198   3.497
  189DOPC   C2123275   3.412   0.281   3.492
  189DOPC   O2223276   3.412   0.395   3.451
  189DOPC   C2223277   3.536   0.205   3.542
  189DOPC   H2R23278   3.560   0.129   3.465
  189DOPC   H2S23279   3.507   0.150   3.635
  189DOPC    C323280   3.072   0.155   3.492
  189DOPC    HX23281   3.081   0.063   3.430
  189DOPC    HY23282   2.974   0.201   3.467
  189DOPC   O3123283   3.080   0.117   3.632
  189DOPC   C3123284   3.054   0.214   3.718
  189DOPC   O3223285   3.018   0.327   3.690
  189DOPC   C3223286   3.077   0.164   3.860
  189DOPC   H2X23287   3.177   0.116   3.865
  189DOPC   H2Y23288   3.077   0.254   3.926
  189DOPC   C2323289   3.658   0.296   3.567
  189DOPC   H3R23290   3.672   0.364   3.480
  189DOPC   H3S23291   3.749   0.233   3.574
  189DOPC   C2423292   3.647   0.379   3.696
  189DOPC   H4R23293   3.553   0.438   3.695
  189DOPC   H4S23294   3.732   0.451   3.697
  189DOPC   C2523295   3.655   0.295   3.824
  189DOPC   H5R23296   3.743   0.227   3.816
  189DOPC   H5S23297   3.565   0.230   3.834
  189DOPC   C2623298   3.672   0.381   3.950
  189DOPC   H6R23299   3.744   0.462   3.928
  189DOPC   H6S23300   3.717   0.319   4.031
  189DOPC   C2723301   3.541   0.443   4.001
  189DOPC   H7R23302   3.488   0.489   3.914
  189DOPC   H7S23303   3.565   0.525   4.072
  189DOPC   C2823304   3.444   0.345   4.070
  189DOPC   H8R23305   3.416   0.265   3.998
  189DOPC   H8S23306   3.351   0.400   4.093
  189DOPC   C2923307   3.504   0.283   4.194
  189DOPC   H9R23308   3.574   0.201   4.175
  189DOPC  C21023309   3.479   0.320   4.321
  189DOPC  H10R23310   3.528   0.266   4.403
  189DOPC  C21123311   3.387   0.432   4.365
  189DOPC  H11R23312   3.378   0.509   4.286
  189DOPC  H11S23313   3.431   0.483   4.453
  189DOPC  C21223314   3.245   0.383   4.400
  189DOPC  H12R23315   3.196   0.341   4.310
  189DOPC  H12S23316   3.186   0.472   4.431
  189DOPC  C21323317   3.240   0.279   4.514
  189DOPC  H13R23318   3.304   0.313   4.598
  189DOPC  H13S23319   3.280   0.183   4.477
  189DOPC  C21423320   3.097   0.260   4.567
  189DOPC  H14R23321   3.029   0.233   4.483
  189DOPC  H14S23322   3.062   0.357   4.608
  189DOPC  C21523323   3.086   0.152   4.676
  189DOPC  H15R23324   2.988   0.164   4.727
  189DOPC  H15S23325   3.165   0.168   4.752
  189DOPC  C21623326   3.095   0.009   4.621
  189DOPC  H16R23327   3.194  -0.007   4.573
  189DOPC  H16S23328   3.017  -0.003   4.543
  189DOPC  C21723329   3.073  -0.097   4.729
  189DOPC  H17R23330   2.980  -0.073   4.785
  189DOPC  H17S23331   3.158  -0.093   4.801
  189DOPC  C21823332   3.062  -0.239   4.672
  189DOPC  H18R23333   3.157  -0.269   4.623
  189DOPC  H18S23334   2.980  -0.244   4.597
  189DOPC  H18T23335   3.040  -0.312   4.753
  189DOPC   C3323336   2.967   0.066   3.908
  189DOPC   H3X23337   2.974  -0.030   3.852
  189DOPC   H3Y23338   2.867   0.110   3.886
  189DOPC   C3423339   2.974   0.038   4.059
  189DOPC   H4X23340   2.880  -0.012   4.091
  189DOPC   H4Y23341   2.980   0.135   4.113
  189DOPC   C3523342   3.092  -0.051   4.100
  189DOPC   H5X23343   3.186  -0.009   4.059
  189DOPC   H5Y23344   3.077  -0.152   4.056
  189DOPC   C3623345   3.107  -0.064   4.253
  189DOPC   H6X23346   3.142   0.033   4.294
  189DOPC   H6Y23347   3.007  -0.085   4.297
  189DOPC   C3723348   3.202  -0.177   4.297
  189DOPC   H7X23349   3.210  -0.178   4.407
  189DOPC   H7Y23350   3.156  -0.274   4.266
  189DOPC   C3823351   3.343  -0.171   4.235
  189DOPC   H8X23352   3.333  -0.166   4.125
  189DOPC   H8Y23353   3.393  -0.268   4.257
  189DOPC   C3923354   3.427  -0.055   4.279
  189DOPC   H9X23355   3.383   0.044   4.256
  189DOPC  C31023356   3.545  -0.061   4.345
  189DOPC  H10X23357   3.594   0.033   4.373
  189DOPC  C31123358   3.617  -0.186   4.388
  189DOPC  H11X23359   3.726  -0.166   4.395
  189DOPC  H11Y23360   3.604  -0.268   4.315
  189DOPC  C31223361   3.566  -0.234   4.525
  189DOPC  H12X23362   3.621  -0.326   4.555
  189DOPC  H12Y23363   3.458  -0.261   4.516
  189DOPC  C31323364   3.580  -0.129   4.636
  189DOPC  H13X23365   3.687  -0.109   4.656
  189DOPC  H13Y23366   3.535  -0.034   4.601
  189DOPC  C31423367   3.507  -0.164   4.766
  189DOPC  H14X23368   3.408  -0.209   4.743
  189DOPC  H14Y23369   3.566  -0.239   4.823
  189DOPC  C31523370   3.485  -0.038   4.849
  189DOPC  H15X23371   3.421   0.032   4.792
  189DOPC  H15Y23372   3.583   0.012   4.864
  189DOPC  C31623373   3.422  -0.063   4.986
  189DOPC  H16X23374   3.320  -0.105   4.973
  189DOPC  H16Y23375   3.483  -0.138   5.040
  189DOPC  C31723376   3.415   0.066   5.070
  189DOPC  H17X23377   3.387   0.038   5.174
  189DOPC  H17Y23378   3.516   0.111   5.075
  189DOPC  C31823379   3.314   0.169   5.019
  189DOPC  H18X23380   3.212   0.125   5.013
  189DOPC  H18Y23381   3.311   0.257   5.086
  189DOPC  H18Z23382   3.343   0.204   4.917
  190DOPC     N23383   2.120   7.076   3.143
  190DOPC   C1223384   2.242   7.091   3.052
  190DOPC  H12A23385   2.301   7.000   3.060
  190DOPC  H12B23386   2.303   7.172   3.089
  190DOPC   C1323387   2.033   6.962   3.098
  190DOPC  H13A23388   1.952   6.943   3.167
  190DOPC  H13B23389   1.987   6.985   3.003
  190DOPC  H13C23390   2.088   6.870   3.090
  190DOPC   C1423391   2.037   7.200   3.139
  190DOPC  H14A23392   2.094   7.287   3.169
  190DOPC  H14B23393   2.005   7.218   3.037
  190DOPC  H14C23394   1.948   7.193   3.198
  190DOPC   C1523395   2.162   7.052   3.285
  190DOPC  H15A23396   2.222   6.963   3.293
  190DOPC  H15B23397   2.074   7.040   3.346
  190DOPC  H15C23398   2.217   7.137   3.323
  190DOPC   C1123399   2.217   7.120   2.902
  190DOPC  H11A23400   2.312   7.105   2.846
  190DOPC  H11B23401   2.146   7.045   2.862
  190DOPC     P23402   2.255   7.379   2.902
  190DOPC   O1323403   2.218   7.483   2.803
  190DOPC   O1423404   2.398   7.338   2.904
  190DOPC   O1223405   2.164   7.251   2.878
  190DOPC   O1123406   2.211   7.422   3.046
  190DOPC    C123407   2.165   7.555   3.071
  190DOPC    HA23408   2.070   7.576   3.016
  190DOPC    HB23409   2.240   7.630   3.037
  190DOPC    C223410   2.140   7.581   3.223
  190DOPC    HS23411   2.134   7.691   3.239
  190DOPC   O2123412   2.246   7.524   3.302
  190DOPC   C2123413   2.353   7.600   3.312
  190DOPC   O2223414   2.389   7.687   3.235
  190DOPC   C2223415   2.420   7.565   3.445
  190DOPC   H2R23416   2.434   7.455   3.449
  190DOPC   H2S23417   2.349   7.594   3.525
  190DOPC    C323418   2.002   7.523   3.271
  190DOPC    HX23419   1.965   7.454   3.192
  190DOPC    HY23420   1.928   7.606   3.276
  190DOPC   O3123421   2.007   7.450   3.396
  190DOPC   C3123422   2.037   7.524   3.503
  190DOPC   O3223423   2.064   7.642   3.503
  190DOPC   C3223424   2.034   7.435   3.627
  190DOPC   H2X23425   1.929   7.405   3.642
  190DOPC   H2Y23426   2.095   7.344   3.608
  190DOPC   C2323427   2.555   7.637   3.467
  190DOPC   H3R23428   2.541   7.747   3.461
  190DOPC   H3S23429   2.626   7.607   3.387
  190DOPC   C2423430   2.615   7.601   3.603
  190DOPC   H4R23431   2.724   7.624   3.602
  190DOPC   H4S23432   2.604   7.492   3.620
  190DOPC   C2523433   2.551   7.678   3.719
  190DOPC   H5R23434   2.440   7.678   3.710
  190DOPC   H5S23435   2.585   7.784   3.712
  190DOPC   C2623436   2.590   7.619   3.855
  190DOPC   H6R23437   2.697   7.590   3.850
  190DOPC   H6S23438   2.530   7.528   3.873
  190DOPC   C2723439   2.575   7.718   3.971
  190DOPC   H7R23440   2.647   7.800   3.953
  190DOPC   H7S23441   2.607   7.668   4.065
  190DOPC   C2823442   2.434   7.779   3.989
  190DOPC   H8R23443   2.405   7.831   3.895
  190DOPC   H8S23444   2.442   7.858   4.067
  190DOPC   C2923445   2.328   7.680   4.029
  190DOPC   H9R23446   2.263   7.647   3.947
  190DOPC  C21023447   2.309   7.632   4.153
  190DOPC  H10R23448   2.225   7.562   4.171
  190DOPC  C21123449   2.390   7.667   4.275
  190DOPC  H11R23450   2.488   7.711   4.247
  190DOPC  H11S23451   2.413   7.574   4.332
  190DOPC  C21223452   2.321   7.765   4.371
  190DOPC  H12R23453   2.287   7.856   4.316
  190DOPC  H12S23454   2.397   7.799   4.445
  190DOPC  C21323455   2.204   7.704   4.448
  190DOPC  H13R23456   2.236   7.607   4.491
  190DOPC  H13S23457   2.119   7.684   4.379
  190DOPC  C21423458   2.158   7.795   4.563
  190DOPC  H14R23459   2.129   7.894   4.520
  190DOPC  H14S23460   2.243   7.813   4.632
  190DOPC  C21523461   2.040   7.739   4.643
  190DOPC  H15R23462   2.069   7.642   4.688
  190DOPC  H15S23463   1.955   7.720   4.574
  190DOPC  C21623464   1.997   7.836   4.753
  190DOPC  H16R23465   1.978   7.935   4.706
  190DOPC  H16S23466   2.080   7.848   4.825
  190DOPC  C21723467   1.870   7.795   4.828
  190DOPC  H17R23468   1.788   7.777   4.755
  190DOPC  H17S23469   1.838   7.880   4.892
  190DOPC  C21823470   1.889   7.672   4.916
  190DOPC  H18R23471   1.971   7.689   4.988
  190DOPC  H18S23472   1.913   7.583   4.854
  190DOPC  H18T23473   1.796   7.651   4.972
  190DOPC   C3323474   2.088   7.510   3.751
  190DOPC   H3X23475   2.052   7.615   3.751
  190DOPC   H3Y23476   2.199   7.514   3.747
  190DOPC   C3423477   2.042   7.449   3.885
  190DOPC   H4X23478   2.091   7.506   3.967
  190DOPC   H4Y23479   2.076   7.344   3.892
  190DOPC   C3523480   1.890   7.459   3.904
  190DOPC   H5X23481   1.838   7.380   3.846
  190DOPC   H5Y23482   1.857   7.556   3.863
  190DOPC   C3623483   1.846   7.454   4.051
  190DOPC   H6X23484   1.928   7.492   4.116
  190DOPC   H6Y23485   1.761   7.525   4.063
  190DOPC   C3723486   1.799   7.316   4.100
  190DOPC   H7X23487   1.709   7.287   4.041
  190DOPC   H7Y23488   1.878   7.240   4.080
  190DOPC   C3823489   1.767   7.319   4.250
  190DOPC   H8X23490   1.721   7.417   4.272
  190DOPC   H8Y23491   1.864   7.317   4.306
  190DOPC   C3923492   1.676   7.211   4.302
  190DOPC   H9X23493   1.574   7.246   4.325
  190DOPC  C31023494   1.705   7.081   4.321
  190DOPC  H10X23495   1.627   7.016   4.362
  190DOPC  C31123496   1.837   7.012   4.295
  190DOPC  H11X23497   1.905   7.077   4.235
  190DOPC  H11Y23498   1.820   6.921   4.234
  190DOPC  C31223499   1.910   6.970   4.424
  190DOPC  H12X23500   1.841   6.910   4.488
  190DOPC  H12Y23501   1.938   7.060   4.482
  190DOPC  C31323502   2.037   6.887   4.398
  190DOPC  H13X23503   2.008   6.793   4.347
  190DOPC  H13Y23504   2.105   6.942   4.330
  190DOPC  C31423505   2.112   6.853   4.528
  190DOPC  H14X23506   2.038   6.842   4.610
  190DOPC  H14Y23507   2.165   6.756   4.518
  190DOPC  C31523508   2.216   6.961   4.565
  190DOPC  H15X23509   2.175   7.060   4.536
  190DOPC  H15Y23510   2.308   6.944   4.506
  190DOPC  C31623511   2.248   6.965   4.715
  190DOPC  H16X23512   2.156   6.997   4.769
  190DOPC  H16Y23513   2.273   6.863   4.751
  190DOPC  C31723514   2.363   7.061   4.749
  190DOPC  H17X23515   2.459   7.008   4.736
  190DOPC  H17Y23516   2.362   7.144   4.676
  190DOPC  C31823517   2.352   7.120   4.890
  190DOPC  H18X23518   2.352   7.040   4.966
  190DOPC  H18Y23519   2.438   7.188   4.910
  190DOPC  H18Z23520   2.258   7.178   4.900
  191DOPC     N23521   4.924   7.251   3.143
  191DOPC   C1223522   4.909   7.400   3.116
  191DOPC  H12A23523   4.976   7.454   3.181
  191DOPC  H12B23524   4.808   7.430   3.143
  191DOPC   C1323525   4.886   7.219   3.284
  191DOPC  H13A23526   4.783   7.245   3.303
  191DOPC  H13B23527   4.896   7.113   3.302
  191DOPC  H13C23528   4.948   7.273   3.354
  191DOPC   C1423529   5.066   7.210   3.118
  191DOPC  H14A23530   5.094   7.241   3.018
  191DOPC  H14B23531   5.135   7.261   3.185
  191DOPC  H14C23532   5.079   7.103   3.124
  191DOPC   C1523533   4.839   7.168   3.050
  191DOPC  H15A23534   4.736   7.199   3.051
  191DOPC  H15B23535   4.842   7.063   3.076
  191DOPC  H15C23536   4.877   7.175   2.950
  191DOPC   C1123537   4.938   7.453   2.973
  191DOPC  H11A23538   4.874   7.398   2.900
  191DOPC  H11B23539   4.907   7.559   2.966
  191DOPC     P23540   5.183   7.542   2.986
  191DOPC   O1323541   5.188   7.654   2.889
  191DOPC   O1423542   5.309   7.474   3.020
  191DOPC   O1223543   5.075   7.436   2.937
  191DOPC   O1123544   5.118   7.595   3.120
  191DOPC    C123545   5.180   7.706   3.186
  191DOPC    HA23546   5.159   7.800   3.131
  191DOPC    HB23547   5.291   7.695   3.192
  191DOPC    C223548   5.124   7.721   3.330
  191DOPC    HS23549   5.172   7.809   3.379
  191DOPC   O2123550   5.145   7.603   3.409
  191DOPC   C2123551   5.271   7.580   3.443
  191DOPC   O2223552   5.366   7.651   3.418
  191DOPC   C2223553   5.278   7.447   3.519
  191DOPC   H2R23554   5.346   7.381   3.460
  191DOPC   H2S23555   5.178   7.400   3.523
  191DOPC    C323556   4.971   7.751   3.321
  191DOPC    HX23557   4.923   7.675   3.256
  191DOPC    HY23558   4.959   7.849   3.271
  191DOPC   O3123559   4.911   7.758   3.452
  191DOPC   C3123560   4.861   7.644   3.499
  191DOPC   O3223561   4.845   7.541   3.436
  191DOPC   C3223562   4.825   7.665   3.646
  191DOPC   H2X23563   4.915   7.703   3.698
  191DOPC   H2Y23564   4.747   7.745   3.649
  191DOPC   C2323565   5.335   7.464   3.662
  191DOPC   H3R23566   5.430   7.521   3.660
  191DOPC   H3S23567   5.359   7.363   3.702
  191DOPC   C2423568   5.236   7.530   3.760
  191DOPC   H4R23569   5.141   7.473   3.758
  191DOPC   H4S23570   5.215   7.634   3.727
  191DOPC   C2523571   5.291   7.533   3.903
  191DOPC   H5R23572   5.388   7.586   3.903
  191DOPC   H5S23573   5.310   7.429   3.937
  191DOPC   C2623574   5.198   7.601   4.005
  191DOPC   H6R23575   5.183   7.708   3.976
  191DOPC   H6S23576   5.249   7.601   4.104
  191DOPC   C2723577   5.062   7.532   4.021
  191DOPC   H7R23578   5.079   7.423   4.031
  191DOPC   H7S23579   5.001   7.548   3.929
  191DOPC   C2823580   4.982   7.578   4.145
  191DOPC   H8R23581   5.042   7.552   4.235
  191DOPC   H8S23582   4.889   7.518   4.151
  191DOPC   C2923583   4.947   7.725   4.142
  191DOPC   H9R23584   4.916   7.763   4.044
  191DOPC  C21023585   4.952   7.811   4.245
  191DOPC  H10R23586   4.923   7.916   4.228
  191DOPC  C21123587   4.993   7.781   4.387
  191DOPC  H11R23588   5.007   7.673   4.405
  191DOPC  H11S23589   4.912   7.814   4.457
  191DOPC  C21223590   5.123   7.854   4.426
  191DOPC  H12R23591   5.108   7.964   4.421
  191DOPC  H12S23592   5.203   7.827   4.353
  191DOPC  C21323593   5.174   7.817   4.567
  191DOPC  H13R23594   5.271   7.869   4.584
  191DOPC  H13S23595   5.194   7.708   4.571
  191DOPC  C21423596   5.078   7.855   4.680
  191DOPC  H14R23597   4.984   7.796   4.669
  191DOPC  H14S23598   5.052   7.962   4.672
  191DOPC  C21523599   5.138   7.829   4.819
  191DOPC  H15R23600   5.233   7.887   4.827
  191DOPC  H15S23601   5.165   7.721   4.828
  191DOPC  C21623602   5.047   7.868   4.936
  191DOPC  H16R23603   5.016   7.974   4.923
  191DOPC  H16S23604   5.105   7.861   5.030
  191DOPC  C21723605   4.921   7.780   4.950
  191DOPC  H17R23606   4.953   7.675   4.964
  191DOPC  H17S23607   4.862   7.786   4.856
  191DOPC  C21823608   4.832   7.821   5.067
  191DOPC  H18R23609   4.887   7.813   5.163
  191DOPC  H18S23610   4.742   7.755   5.073
  191DOPC  H18T23611   4.797   7.926   5.055
  191DOPC   C3323612   4.773   7.538   3.716
  191DOPC   H3X23613   4.856   7.465   3.728
  191DOPC   H3Y23614   4.694   7.489   3.655
  191DOPC   C3423615   4.715   7.572   3.854
  191DOPC   H4X23616   4.621   7.630   3.841
  191DOPC   H4Y23617   4.787   7.636   3.908
  191DOPC   C3523618   4.685   7.449   3.941
  191DOPC   H5X23619   4.650   7.486   4.039
  191DOPC   H5Y23620   4.778   7.392   3.958
  191DOPC   C3623621   4.577   7.356   3.882
  191DOPC   H6X23622   4.499   7.419   3.834
  191DOPC   H6Y23623   4.621   7.291   3.804
  191DOPC   C3723624   4.508   7.272   3.990
  191DOPC   H7X23625   4.470   7.342   4.067
  191DOPC   H7Y23626   4.420   7.220   3.946
  191DOPC   C3823627   4.600   7.166   4.055
  191DOPC   H8X23628   4.705   7.204   4.054
  191DOPC   H8Y23629   4.600   7.075   3.993
  191DOPC   C3923630   4.557   7.135   4.196
  191DOPC   H9X23631   4.469   7.068   4.204
  191DOPC  C31023632   4.614   7.180   4.309
  191DOPC  H10X23633   4.573   7.149   4.406
  191DOPC  C31123634   4.733   7.273   4.318
  191DOPC  H11X23635   4.760   7.316   4.220
  191DOPC  H11Y23636   4.822   7.217   4.353
  191DOPC  C31223637   4.714   7.392   4.415
  191DOPC  H12X23638   4.628   7.455   4.382
  191DOPC  H12Y23639   4.805   7.455   4.408
  191DOPC  C31323640   4.694   7.350   4.561
  191DOPC  H13X23641   4.589   7.314   4.574
  191DOPC  H13Y23642   4.760   7.263   4.584
  191DOPC  C31423643   4.721   7.462   4.662
  191DOPC  H14X23644   4.663   7.552   4.633
  191DOPC  H14Y23645   4.685   7.429   4.762
  191DOPC  C31523646   4.869   7.502   4.677
  191DOPC  H15X23647   4.876   7.582   4.754
  191DOPC  H15Y23648   4.907   7.545   4.582
  191DOPC  C31623649   4.961   7.386   4.721
  191DOPC  H16X23650   4.914   7.333   4.807
  191DOPC  H16Y23651   4.971   7.313   4.638
  191DOPC  C31723652   5.100   7.434   4.762
  191DOPC  H17X23653   5.145   7.490   4.678
  191DOPC  H17Y23654   5.090   7.505   4.847
  191DOPC  C31823655   5.194   7.320   4.803
  191DOPC  H18X23656   5.210   7.251   4.717
  191DOPC  H18Y23657   5.293   7.360   4.834
  191DOPC  H18Z23658   5.151   7.262   4.887
  192DOPC     N23659   0.093   5.143   2.871
  192DOPC   C1223660   0.128   5.082   3.006
  192DOPC  H12A23661   0.107   4.976   3.003
  192DOPC  H12B23662   0.063   5.125   3.081
  192DOPC   C1323663   0.039   5.282   2.887
  192DOPC  H13A23664   0.111   5.344   2.938
  192DOPC  H13B23665   0.019   5.327   2.791
  192DOPC  H13C23666  -0.052   5.282   2.945
  192DOPC   C1423667  -0.012   5.061   2.802
  192DOPC  H14A23668  -0.039   5.106   2.708
  192DOPC  H14B23669   0.024   4.961   2.784
  192DOPC  H14C23670  -0.101   5.054   2.863
  192DOPC   C1523671   0.215   5.148   2.785
  192DOPC  H15A23672   0.255   5.049   2.766
  192DOPC  H15B23673   0.292   5.203   2.836
  192DOPC  H15C23674   0.196   5.196   2.690
  192DOPC   C1123675   0.274   5.099   3.059
  192DOPC  H11A23676   0.282   5.051   3.159
  192DOPC  H11B23677   0.343   5.043   2.994
  192DOPC     P23678   0.254   5.340   3.163
  192DOPC   O1323679   0.205   5.451   3.078
  192DOPC   O1423680   0.353   5.380   3.266
  192DOPC   O1223681   0.317   5.235   3.065
  192DOPC   O1123682   0.130   5.267   3.228
  192DOPC    C123683   0.139   5.197   3.352
  192DOPC    HA23684   0.243   5.183   3.388
  192DOPC    HB23685   0.099   5.094   3.336
  192DOPC    C223686   0.056   5.268   3.462
  192DOPC    HS23687  -0.001   5.351   3.413
  192DOPC   O2123688   0.145   5.318   3.564
  192DOPC   C2123689   0.198   5.437   3.541
  192DOPC   O2223690   0.168   5.514   3.451
  192DOPC   C2223691   0.302   5.468   3.649
  192DOPC   H2R23692   0.402   5.463   3.600
  192DOPC   H2S23693   0.297   5.389   3.727
  192DOPC    C323694  -0.053   5.173   3.523
  192DOPC    HX23695  -0.038   5.069   3.488
  192DOPC    HY23696  -0.150   5.205   3.481
  192DOPC   O3123697  -0.062   5.180   3.668
  192DOPC   C3123698   0.028   5.103   3.730
  192DOPC   O3223699   0.107   5.028   3.676
  192DOPC   C3223700   0.007   5.116   3.881
  192DOPC   H2X23701  -0.027   5.220   3.901
  192DOPC   H2Y23702  -0.074   5.047   3.911
  192DOPC   C2323703   0.281   5.607   3.712
  192DOPC   H3R23704   0.184   5.609   3.767
  192DOPC   H3S23705   0.274   5.684   3.632
  192DOPC   C2423706   0.394   5.649   3.808
  192DOPC   H4R23707   0.369   5.747   3.853
  192DOPC   H4S23708   0.487   5.661   3.749
  192DOPC   C2523709   0.424   5.550   3.922
  192DOPC   H5R23710   0.506   5.592   3.985
  192DOPC   H5S23711   0.461   5.455   3.879
  192DOPC   C2623712   0.303   5.521   4.012
  192DOPC   H6R23713   0.221   5.481   3.949
  192DOPC   H6S23714   0.266   5.614   4.060
  192DOPC   C2723715   0.335   5.416   4.119
  192DOPC   H7R23716   0.398   5.460   4.200
  192DOPC   H7S23717   0.395   5.336   4.071
  192DOPC   C2823718   0.209   5.349   4.177
  192DOPC   H8R23719   0.240   5.255   4.226
  192DOPC   H8S23720   0.145   5.323   4.090
  192DOPC   C2923721   0.130   5.433   4.273
  192DOPC   H9R23722   0.184   5.520   4.315
  192DOPC  C21023723   0.005   5.407   4.313
  192DOPC  H10R23724  -0.045   5.475   4.383
  192DOPC  C21123725  -0.079   5.289   4.268
  192DOPC  H11R23726  -0.112   5.232   4.358
  192DOPC  H11S23727  -0.020   5.217   4.207
  192DOPC  C21223728  -0.202   5.331   4.187
  192DOPC  H12R23729  -0.170   5.395   4.101
  192DOPC  H12S23730  -0.267   5.393   4.252
  192DOPC  C21323731  -0.285   5.214   4.131
  192DOPC  H13R23732  -0.227   5.164   4.050
  192DOPC  H13S23733  -0.377   5.255   4.084
  192DOPC  C21423734  -0.326   5.107   4.234
  192DOPC  H14R23735  -0.235   5.052   4.267
  192DOPC  H14S23736  -0.392   5.033   4.183
  192DOPC  C21523737  -0.399   5.162   4.356
  192DOPC  H15R23738  -0.487   5.221   4.323
  192DOPC  H15S23739  -0.331   5.230   4.412
  192DOPC  C21623740  -0.445   5.052   4.453
  192DOPC  H16R23741  -0.359   4.988   4.478
  192DOPC  H16S23742  -0.522   4.990   4.403
  192DOPC  C21723743  -0.502   5.108   4.584
  192DOPC  H17R23744  -0.583   5.180   4.559
  192DOPC  H17S23745  -0.422   5.165   4.635
  192DOPC  C21823746  -0.557   5.000   4.677
  192DOPC  H18R23747  -0.596   5.046   4.771
  192DOPC  H18S23748  -0.477   4.928   4.704
  192DOPC  H18T23749  -0.640   4.945   4.628
  192DOPC   C3323750   0.134   5.088   3.965
  192DOPC   H3X23751   0.110   5.119   4.069
  192DOPC   H3Y23752   0.220   5.149   3.931
  192DOPC   C3423753   0.173   4.941   3.975
  192DOPC   H4X23754   0.231   4.910   3.885
  192DOPC   H4Y23755   0.079   4.881   3.977
  192DOPC   C3523756   0.251   4.911   4.104
  192DOPC   H5X23757   0.189   4.941   4.191
  192DOPC   H5Y23758   0.343   4.973   4.106
  192DOPC   C3623759   0.289   4.763   4.123
  192DOPC   H6X23760   0.370   4.738   4.050
  192DOPC   H6Y23761   0.332   4.750   4.225
  192DOPC   C3723762   0.174   4.662   4.103
  192DOPC   H7X23763   0.146   4.662   3.995
  192DOPC   H7Y23764   0.213   4.561   4.126
  192DOPC   C3823765   0.046   4.689   4.185
  192DOPC   H8X23766  -0.031   4.616   4.150
  192DOPC   H8Y23767   0.007   4.790   4.159
  192DOPC   C3923768   0.062   4.672   4.334
  192DOPC   H9X23769   0.109   4.576   4.363
  192DOPC  C31023770   0.026   4.757   4.431
  192DOPC  H10X23771   0.046   4.729   4.536
  192DOPC  C31123772  -0.040   4.892   4.416
  192DOPC  H11X23773  -0.148   4.881   4.438
  192DOPC  H11Y23774  -0.032   4.932   4.313
  192DOPC  C31223775   0.014   4.999   4.513
  192DOPC  H12X23776   0.017   4.960   4.617
  192DOPC  H12Y23777  -0.057   5.085   4.513
  192DOPC  C31323778   0.153   5.055   4.475
  192DOPC  H13X23779   0.229   4.975   4.484
  192DOPC  H13Y23780   0.150   5.087   4.368
  192DOPC  C31423781   0.192   5.176   4.561
  192DOPC  H14X23782   0.118   5.257   4.543
  192DOPC  H14Y23783   0.186   5.149   4.669
  192DOPC  C31523784   0.332   5.230   4.530
  192DOPC  H15X23785   0.345   5.234   4.420
  192DOPC  H15Y23786   0.409   5.160   4.570
  192DOPC  C31623787   0.357   5.372   4.585
  192DOPC  H16X23788   0.456   5.407   4.551
  192DOPC  H16Y23789   0.281   5.440   4.540
  192DOPC  C31723790   0.349   5.385   4.738
  192DOPC  H17X23791   0.352   5.493   4.764
  192DOPC  H17Y23792   0.251   5.345   4.774
  192DOPC  C31823793   0.463   5.314   4.813
  192DOPC  H18X23794   0.452   5.328   4.923
  192DOPC  H18Y23795   0.462   5.205   4.791
  192DOPC  H18Z23796   0.561   5.355   4.782
  193DOPC     N23797   7.360   1.660   2.968
  193DOPC   C1223798   7.376   1.741   3.096
  193DOPC  H12A23799   7.410   1.677   3.176
  193DOPC  H12B23800   7.278   1.775   3.126
  193DOPC   C1323801   7.262   1.549   2.988
  193DOPC  H13A23802   7.247   1.493   2.897
  193DOPC  H13B23803   7.294   1.480   3.065
  193DOPC  H13C23804   7.165   1.588   3.016
  193DOPC   C1423805   7.491   1.606   2.920
  193DOPC  H14A23806   7.561   1.686   2.901
  193DOPC  H14B23807   7.536   1.537   2.990
  193DOPC  H14C23808   7.479   1.553   2.826
  193DOPC   C1523809   7.303   1.750   2.862
  193DOPC  H15A23810   7.287   1.699   2.768
  193DOPC  H15B23811   7.368   1.834   2.845
  193DOPC  H15C23812   7.209   1.791   2.895
  193DOPC   C1123813   7.466   1.868   3.093
  193DOPC  H11A23814   7.487   1.898   3.197
  193DOPC  H11B23815   7.564   1.842   3.047
  193DOPC     P23816   7.268   2.036   3.074
  193DOPC   O1323817   7.158   1.944   3.042
  193DOPC   O1423818   7.257   2.173   3.020
  193DOPC   O1223819   7.405   1.975   3.020
  193DOPC   O1123820   7.291   2.039   3.229
  193DOPC    C123821   7.194   2.097   3.317
  193DOPC    HA23822   7.097   2.117   3.268
  193DOPC    HB23823   7.234   2.194   3.354
  193DOPC    C223824   7.167   2.006   3.440
  193DOPC    HS23825   7.264   1.975   3.485
  193DOPC   O2123826   7.085   1.893   3.402
  193DOPC   C2123827   7.149   1.781   3.375
  193DOPC   O2223828   7.270   1.765   3.369
  193DOPC   C2223829   7.048   1.668   3.356
  193DOPC   H2R23830   7.082   1.609   3.268
  193DOPC   H2S23831   6.949   1.713   3.332
  193DOPC    C323832   7.089   2.087   3.547
  193DOPC    HX23833   6.999   2.126   3.496
  193DOPC    HY23834   7.151   2.174   3.578
  193DOPC   O3123835   7.060   2.006   3.663
  193DOPC   C3123836   6.937   2.022   3.714
  193DOPC   O3223837   6.851   2.094   3.669
  193DOPC   C3223838   6.920   1.936   3.839
  193DOPC   H2X23839   6.810   1.929   3.854
  193DOPC   H2Y23840   6.958   1.834   3.819
  193DOPC   C2323841   7.038   1.577   3.480
  193DOPC   H3R23842   7.138   1.539   3.509
  193DOPC   H3S23843   6.976   1.488   3.453
  193DOPC   C2423844   6.971   1.647   3.599
  193DOPC   H4R23845   6.871   1.684   3.566
  193DOPC   H4S23846   7.031   1.735   3.629
  193DOPC   C2523847   6.950   1.557   3.722
  193DOPC   H5R23848   6.901   1.462   3.691
  193DOPC   H5S23849   6.879   1.609   3.790
  193DOPC   C2623850   7.078   1.526   3.801
  193DOPC   H6R23851   7.121   1.620   3.842
  193DOPC   H6S23852   7.154   1.484   3.730
  193DOPC   C2723853   7.059   1.425   3.915
  193DOPC   H7R23854   7.159   1.391   3.952
  193DOPC   H7S23855   7.010   1.337   3.869
  193DOPC   C2823856   6.970   1.468   4.033
  193DOPC   H8R23857   6.914   1.379   4.067
  193DOPC   H8S23858   6.893   1.539   3.994
  193DOPC   C2923859   7.044   1.531   4.147
  193DOPC   H9R23860   7.109   1.615   4.118
  193DOPC  C21023861   7.040   1.497   4.277
  193DOPC  H10R23862   7.100   1.556   4.348
  193DOPC  C21123863   6.963   1.386   4.345
  193DOPC  H11R23864   7.034   1.320   4.398
  193DOPC  H11S23865   6.909   1.322   4.272
  193DOPC  C21223866   6.861   1.439   4.448
  193DOPC  H12R23867   6.818   1.351   4.501
  193DOPC  H12S23868   6.777   1.489   4.394
  193DOPC  C21323869   6.919   1.537   4.551
  193DOPC  H13R23870   6.911   1.640   4.510
  193DOPC  H13S23871   7.027   1.516   4.567
  193DOPC  C21423872   6.850   1.531   4.688
  193DOPC  H14R23873   6.741   1.514   4.674
  193DOPC  H14S23874   6.863   1.628   4.740
  193DOPC  C21523875   6.910   1.422   4.777
  193DOPC  H15R23876   7.018   1.445   4.793
  193DOPC  H15S23877   6.905   1.325   4.724
  193DOPC  C21623878   6.840   1.408   4.913
  193DOPC  H16R23879   6.733   1.382   4.893
  193DOPC  H16S23880   6.842   1.506   4.966
  193DOPC  C21723881   6.901   1.300   5.003
  193DOPC  H17R23882   6.904   1.204   4.946
  193DOPC  H17S23883   6.834   1.285   5.090
  193DOPC  C21823884   7.041   1.332   5.056
  193DOPC  H18R23885   7.039   1.424   5.118
  193DOPC  H18S23886   7.112   1.348   4.972
  193DOPC  H18T23887   7.079   1.248   5.118
  193DOPC   C3323888   6.985   1.999   3.965
  193DOPC   H3X23889   6.949   1.940   4.052
  193DOPC   H3Y23890   6.949   2.103   3.979
  193DOPC   C3423891   7.139   1.994   3.968
  193DOPC   H4X23892   7.173   2.033   4.066
  193DOPC   H4Y23893   7.181   2.061   3.889
  193DOPC   C3523894   7.192   1.852   3.948
  193DOPC   H5X23895   7.179   1.823   3.841
  193DOPC   H5Y23896   7.130   1.784   4.011
  193DOPC   C3623897   7.339   1.833   3.985
  193DOPC   H6X23898   7.401   1.883   3.908
  193DOPC   H6Y23899   7.359   1.883   4.083
  193DOPC   C3723900   7.379   1.685   3.998
  193DOPC   H7X23901   7.317   1.640   4.078
  193DOPC   H7Y23902   7.356   1.632   3.903
  193DOPC   C3823903   7.528   1.665   4.033
  193DOPC   H8X23904   7.554   1.735   4.115
  193DOPC   H8Y23905   7.590   1.694   3.945
  193DOPC   C3923906   7.559   1.523   4.074
  193DOPC   H9X23907   7.584   1.455   3.992
  193DOPC  C31023908   7.556   1.475   4.200
  193DOPC  H10X23909   7.579   1.369   4.216
  193DOPC  C31123910   7.520   1.552   4.325
  193DOPC  H11X23911   7.515   1.661   4.308
  193DOPC  H11Y23912   7.598   1.536   4.403
  193DOPC  C31223913   7.383   1.505   4.379
  193DOPC  H12X23914   7.380   1.394   4.382
  193DOPC  H12Y23915   7.306   1.537   4.306
  193DOPC  C31323916   7.347   1.555   4.520
  193DOPC  H13X23917   7.250   1.511   4.550
  193DOPC  H13Y23918   7.424   1.518   4.590
  193DOPC  C31423919   7.338   1.708   4.535
  193DOPC  H14X23920   7.325   1.733   4.643
  193DOPC  H14Y23921   7.435   1.752   4.502
  193DOPC  C31523922   7.223   1.774   4.456
  193DOPC  H15X23923   7.126   1.745   4.501
  193DOPC  H15Y23924   7.225   1.737   4.352
  193DOPC  C31623925   7.233   1.928   4.448
  193DOPC  H16X23926   7.328   1.952   4.397
  193DOPC  H16Y23927   7.150   1.967   4.384
  193DOPC  C31723928   7.230   2.002   4.583
  193DOPC  H17X23929   7.302   1.954   4.653
  193DOPC  H17Y23930   7.266   2.106   4.566
  193DOPC  C31823931   7.092   2.008   4.648
  193DOPC  H18X23932   7.021   2.065   4.583
  193DOPC  H18Y23933   7.052   1.906   4.662
  193DOPC  H18Z23934   7.097   2.059   4.746
  194DOPC     N23935   1.833   0.344   2.794
  194DOPC   C1223936   1.905   0.227   2.861
  194DOPC  H12A23937   1.995   0.265   2.907
  194DOPC  H12B23938   1.939   0.156   2.787
  194DOPC   C1323939   1.685   0.322   2.801
  194DOPC  H13A23940   1.629   0.404   2.759
  194DOPC  H13B23941   1.657   0.231   2.749
  194DOPC  H13C23942   1.659   0.308   2.904
  194DOPC   C1423943   1.879   0.358   2.653
  194DOPC  H14A23944   1.987   0.369   2.650
  194DOPC  H14B23945   1.854   0.271   2.595
  194DOPC  H14C23946   1.836   0.446   2.607
  194DOPC   C1523947   1.868   0.469   2.869
  194DOPC  H15A23948   1.973   0.490   2.863
  194DOPC  H15B23949   1.847   0.456   2.975
  194DOPC  H15C23950   1.814   0.555   2.832
  194DOPC   C1123951   1.828   0.148   2.970
  194DOPC  H11A23952   1.743   0.093   2.923
  194DOPC  H11B23953   1.894   0.070   3.012
  194DOPC     P23954   1.869   0.279   3.192
  194DOPC   O1323955   1.943   0.399   3.148
  194DOPC   O1423956   1.948   0.162   3.233
  194DOPC   O1223957   1.776   0.235   3.071
  194DOPC   O1123958   1.761   0.316   3.302
  194DOPC    C123959   1.652   0.401   3.265
  194DOPC    HA23960   1.603   0.368   3.171
  194DOPC    HB23961   1.689   0.504   3.249
  194DOPC    C223962   1.540   0.406   3.375
  194DOPC    HS23963   1.479   0.497   3.358
  194DOPC   O2123964   1.592   0.408   3.508
  194DOPC   C2123965   1.681   0.498   3.540
  194DOPC   O2223966   1.723   0.588   3.470
  194DOPC   C2223967   1.717   0.479   3.688
  194DOPC   H2R23968   1.657   0.396   3.730
  194DOPC   H2S23969   1.690   0.573   3.740
  194DOPC    C323970   1.446   0.281   3.364
  194DOPC    HX23971   1.393   0.289   3.267
  194DOPC    HY23972   1.369   0.287   3.444
  194DOPC   O3123973   1.518   0.155   3.366
  194DOPC   C3123974   1.551   0.113   3.488
  194DOPC   O3223975   1.510   0.159   3.593
  194DOPC   C3223976   1.643  -0.009   3.478
  194DOPC   H2X23977   1.603  -0.079   3.402
  194DOPC   H2Y23978   1.742   0.029   3.444
  194DOPC   C2323979   1.867   0.450   3.708
  194DOPC   H3R23980   1.887   0.454   3.818
  194DOPC   H3S23981   1.930   0.528   3.661
  194DOPC   C2423982   1.906   0.311   3.655
  194DOPC   H4R23983   1.906   0.314   3.544
  194DOPC   H4S23984   1.828   0.238   3.685
  194DOPC   C2523985   2.043   0.261   3.704
  194DOPC   H5R23986   2.122   0.329   3.667
  194DOPC   H5S23987   2.060   0.162   3.656
  194DOPC   C2623988   2.057   0.244   3.856
  194DOPC   H6R23989   2.070   0.344   3.903
  194DOPC   H6S23990   2.149   0.186   3.876
  194DOPC   C2723991   1.937   0.174   3.923
  194DOPC   H7R23992   1.904   0.091   3.856
  194DOPC   H7S23993   1.852   0.245   3.929
  194DOPC   C2823994   1.966   0.115   4.062
  194DOPC   H8R23995   2.039   0.033   4.050
  194DOPC   H8S23996   1.872   0.069   4.099
  194DOPC   C2923997   2.020   0.217   4.160
  194DOPC   H9R23998   2.116   0.262   4.129
  194DOPC  C21023999   1.965   0.255   4.276
  194DOPC  H10R24000   2.016   0.332   4.336
  194DOPC  C21124001   1.836   0.205   4.337
  194DOPC  H11R24002   1.846   0.199   4.447
  194DOPC  H11S24003   1.813   0.102   4.302
  194DOPC  C21224004   1.717   0.295   4.301
  194DOPC  H12R24005   1.624   0.250   4.344
  194DOPC  H12S24006   1.704   0.296   4.191
  194DOPC  C21324007   1.729   0.440   4.351
  194DOPC  H13R24008   1.650   0.501   4.301
  194DOPC  H13S24009   1.827   0.482   4.319
  194DOPC  C21424010   1.712   0.455   4.502
  194DOPC  H14R24011   1.769   0.375   4.555
  194DOPC  H14S24012   1.605   0.438   4.526
  194DOPC  C21524013   1.753   0.593   4.557
  194DOPC  H15R24014   1.715   0.601   4.661
  194DOPC  H15S24015   1.703   0.672   4.497
  194DOPC  C21624016   1.905   0.619   4.560
  194DOPC  H16R24017   1.922   0.717   4.609
  194DOPC  H16S24018   1.944   0.627   4.456
  194DOPC  C21724019   1.983   0.511   4.635
  194DOPC  H17R24020   1.984   0.420   4.571
  194DOPC  H17S24021   1.929   0.486   4.728
  194DOPC  C21824022   2.127   0.549   4.670
  194DOPC  H18R24023   2.179   0.463   4.719
  194DOPC  H18S24024   2.129   0.635   4.739
  194DOPC  H18T24025   2.184   0.576   4.578
  194DOPC   C3324026   1.659  -0.080   3.615
  194DOPC   H3X24027   1.684  -0.004   3.693
  194DOPC   H3Y24028   1.745  -0.150   3.610
  194DOPC   C3424029   1.535  -0.160   3.657
  194DOPC   H4X24030   1.532  -0.255   3.600
  194DOPC   H4Y24031   1.443  -0.103   3.629
  194DOPC   C3524032   1.526  -0.189   3.808
  194DOPC   H5X24033   1.617  -0.243   3.842
  194DOPC   H5Y24034   1.440  -0.257   3.825
  194DOPC   C3624035   1.505  -0.062   3.893
  194DOPC   H6X24036   1.603  -0.018   3.922
  194DOPC   H6Y24037   1.453   0.013   3.830
  194DOPC   C3724038   1.418  -0.086   4.018
  194DOPC   H7X24039   1.389   0.012   4.061
  194DOPC   H7Y24040   1.324  -0.136   3.984
  194DOPC   C3824041   1.487  -0.168   4.128
  194DOPC   H8X24042   1.568  -0.107   4.173
  194DOPC   H8Y24043   1.534  -0.257   4.081
  194DOPC   C3924044   1.388  -0.216   4.232
  194DOPC   H9X24045   1.301  -0.267   4.188
  194DOPC  C31024046   1.394  -0.203   4.365
  194DOPC  H10X24047   1.313  -0.247   4.425
  194DOPC  C31124048   1.501  -0.139   4.450
  194DOPC  H11X24049   1.482  -0.030   4.460
  194DOPC  H11Y24050   1.602  -0.150   4.405
  194DOPC  C31224051   1.500  -0.203   4.590
  194DOPC  H12X24052   1.512  -0.313   4.582
  194DOPC  H12Y24053   1.401  -0.183   4.638
  194DOPC  C31324054   1.609  -0.149   4.684
  194DOPC  H13X24055   1.707  -0.187   4.647
  194DOPC  H13Y24056   1.612  -0.038   4.680
  194DOPC  C31424057   1.588  -0.195   4.829
  194DOPC  H14X24058   1.537  -0.293   4.831
  194DOPC  H14Y24059   1.688  -0.208   4.876
  194DOPC  C31524060   1.511  -0.093   4.915
  194DOPC  H15X24061   1.411  -0.073   4.871
  194DOPC  H15Y24062   1.568   0.002   4.915
  194DOPC  C31624063   1.494  -0.140   5.061
  194DOPC  H16X24064   1.418  -0.220   5.067
  194DOPC  H16Y24065   1.591  -0.184   5.093
  194DOPC  C31724066   1.460  -0.027   5.159
  194DOPC  H17X24067   1.480  -0.063   5.262
  194DOPC  H17Y24068   1.529   0.059   5.141
  194DOPC  C31824069   1.315   0.022   5.152
  194DOPC  H18X24070   1.292   0.063   5.052
  194DOPC  H18Y24071   1.245  -0.063   5.172
  194DOPC  H18Z24072   1.297   0.101   5.228
  195DOPC     N24073   5.669   7.576   3.061
  195DOPC   C1224074   5.705   7.465   3.160
  195DOPC  H12A24075   5.631   7.387   3.149
  195DOPC  H12B24076   5.694   7.505   3.260
  195DOPC   C1324077   5.546   7.648   3.105
  195DOPC  H13A24078   5.460   7.582   3.101
  195DOPC  H13B24079   5.555   7.688   3.205
  195DOPC  H13C24080   5.524   7.730   3.039
  195DOPC   C1424081   5.638   7.514   2.928
  195DOPC  H14A24082   5.624   7.590   2.852
  195DOPC  H14B24083   5.718   7.448   2.899
  195DOPC  H14C24084   5.546   7.457   2.933
  195DOPC   C1524085   5.782   7.673   3.046
  195DOPC  H15A24086   5.806   7.724   3.138
  195DOPC  H15B24087   5.758   7.751   2.974
  195DOPC  H15C24088   5.871   7.623   3.010
  195DOPC   C1124089   5.845   7.400   3.149
  195DOPC  H11A24090   5.922   7.475   3.177
  195DOPC  H11B24091   5.851   7.318   3.225
  195DOPC     P24092   5.998   7.370   2.937
  195DOPC   O1324093   6.021   7.516   2.923
  195DOPC   O1424094   5.985   7.294   2.811
  195DOPC   O1224095   5.867   7.343   3.021
  195DOPC   O1124096   6.114   7.307   3.024
  195DOPC    C124097   6.195   7.384   3.114
  195DOPC    HA24098   6.149   7.482   3.140
  195DOPC    HB24099   6.294   7.402   3.067
  195DOPC    C224100   6.221   7.309   3.247
  195DOPC    HS24101   6.266   7.211   3.221
  195DOPC   O2124102   6.097   7.293   3.316
  195DOPC   C2124103   6.098   7.200   3.410
  195DOPC   O2224104   6.189   7.122   3.432
  195DOPC   C2224105   5.970   7.214   3.492
  195DOPC   H2R24106   5.900   7.278   3.435
  195DOPC   H2S24107   5.996   7.266   3.586
  195DOPC    C324108   6.322   7.390   3.335
  195DOPC    HX24109   6.418   7.394   3.279
  195DOPC    HY24110   6.344   7.334   3.429
  195DOPC   O3124111   6.276   7.525   3.358
  195DOPC   C3124112   6.201   7.541   3.468
  195DOPC   O3224113   6.185   7.458   3.555
  195DOPC   C3224114   6.138   7.681   3.468
  195DOPC   H2X24115   6.166   7.731   3.562
  195DOPC   H2Y24116   6.181   7.738   3.383
  195DOPC   C2324117   5.901   7.079   3.522
  195DOPC   H3R24118   5.951   7.031   3.609
  195DOPC   H3S24119   5.910   7.010   3.436
  195DOPC   C2424120   5.751   7.098   3.550
  195DOPC   H4R24121   5.709   7.000   3.584
  195DOPC   H4S24122   5.701   7.124   3.454
  195DOPC   C2524123   5.716   7.207   3.653
  195DOPC   H5R24124   5.606   7.209   3.668
  195DOPC   H5S24125   5.744   7.306   3.611
  195DOPC   C2624126   5.786   7.191   3.788
  195DOPC   H6R24127   5.759   7.278   3.852
  195DOPC   H6S24128   5.896   7.194   3.774
  195DOPC   C2724129   5.750   7.061   3.863
  195DOPC   H7R24130   5.766   6.974   3.795
  195DOPC   H7S24131   5.642   7.062   3.890
  195DOPC   C2824132   5.836   7.039   3.988
  195DOPC   H8R24133   5.942   7.030   3.957
  195DOPC   H8S24134   5.809   6.942   4.034
  195DOPC   C2924135   5.818   7.150   4.088
  195DOPC   H9R24136   5.721   7.150   4.141
  195DOPC  C21024137   5.906   7.247   4.117
  195DOPC  H10R24138   5.880   7.320   4.195
  195DOPC  C21124139   6.043   7.266   4.055
  195DOPC  H11R24140   6.043   7.235   3.949
  195DOPC  H11S24141   6.117   7.202   4.106
  195DOPC  C21224142   6.092   7.412   4.062
  195DOPC  H12R24143   6.023   7.477   4.005
  195DOPC  H12S24144   6.191   7.418   4.011
  195DOPC  C21324145   6.109   7.470   4.204
  195DOPC  H13R24146   6.012   7.467   4.258
  195DOPC  H13S24147   6.136   7.577   4.194
  195DOPC  C21424148   6.217   7.399   4.288
  195DOPC  H14R24149   6.312   7.402   4.231
  195DOPC  H14S24150   6.190   7.293   4.303
  195DOPC  C21524151   6.240   7.465   4.425
  195DOPC  H15R24152   6.251   7.575   4.410
  195DOPC  H15S24153   6.335   7.428   4.467
  195DOPC  C21624154   6.127   7.438   4.526
  195DOPC  H16R24155   6.131   7.331   4.556
  195DOPC  H16S24156   6.029   7.456   4.477
  195DOPC  C21724157   6.133   7.527   4.652
  195DOPC  H17R24158   6.051   7.497   4.720
  195DOPC  H17S24159   6.113   7.632   4.621
  195DOPC  C21824160   6.266   7.522   4.729
  195DOPC  H18R24161   6.260   7.585   4.820
  195DOPC  H18S24162   6.349   7.560   4.666
  195DOPC  H18T24163   6.289   7.418   4.759
  195DOPC   C3324164   5.983   7.679   3.453
  195DOPC   H3X24165   5.948   7.586   3.404
  195DOPC   H3Y24166   5.955   7.764   3.387
  195DOPC   C3424167   5.907   7.700   3.586
  195DOPC   H4X24168   5.799   7.713   3.563
  195DOPC   H4Y24169   5.942   7.795   3.633
  195DOPC   C3524170   5.921   7.585   3.686
  195DOPC   H5X24171   6.027   7.577   3.719
  195DOPC   H5Y24172   5.895   7.490   3.636
  195DOPC   C3624173   5.833   7.600   3.812
  195DOPC   H6X24174   5.726   7.603   3.782
  195DOPC   H6Y24175   5.848   7.510   3.875
  195DOPC   C3724176   5.867   7.725   3.895
  195DOPC   H7X24177   5.978   7.734   3.900
  195DOPC   H7Y24178   5.829   7.816   3.843
  195DOPC   C3824179   5.815   7.721   4.040
  195DOPC   H8X24180   5.850   7.814   4.090
  195DOPC   H8Y24181   5.865   7.637   4.092
  195DOPC   C3924182   5.664   7.714   4.052
  195DOPC   H9X24183   5.610   7.787   3.989
  195DOPC  C31024184   5.593   7.630   4.130
  195DOPC  H10X24185   5.484   7.638   4.130
  195DOPC  C31124186   5.649   7.523   4.221
  195DOPC  H11X24187   5.748   7.488   4.185
  195DOPC  H11Y24188   5.582   7.434   4.220
  195DOPC  C31224189   5.665   7.570   4.367
  195DOPC  H12X24190   5.567   7.602   4.408
  195DOPC  H12Y24191   5.733   7.658   4.369
  195DOPC  C31324192   5.724   7.460   4.457
  195DOPC  H13X24193   5.654   7.374   4.462
  195DOPC  H13Y24194   5.818   7.424   4.409
  195DOPC  C31424195   5.758   7.507   4.600
  195DOPC  H14X24196   5.822   7.430   4.647
  195DOPC  H14Y24197   5.817   7.601   4.594
  195DOPC  C31524198   5.634   7.528   4.689
  195DOPC  H15X24199   5.580   7.432   4.698
  195DOPC  H15Y24200   5.566   7.600   4.639
  195DOPC  C31624201   5.667   7.581   4.830
  195DOPC  H16X24202   5.715   7.680   4.822
  195DOPC  H16Y24203   5.571   7.594   4.885
  195DOPC  C31724204   5.758   7.488   4.912
  195DOPC  H17X24205   5.716   7.385   4.909
  195DOPC  H17Y24206   5.858   7.484   4.864
  195DOPC  C31824207   5.774   7.532   5.058
  195DOPC  H18X24208   5.841   7.463   5.113
  195DOPC  H18Y24209   5.816   7.634   5.064
  195DOPC  H18Z24210   5.675   7.532   5.109
  196DOPC     N24211   0.850   1.204   2.885
  196DOPC   C1224212   0.990   1.150   2.911
  196DOPC  H12A24213   1.049   1.228   2.956
  196DOPC  H12B24214   1.035   1.124   2.817
  196DOPC   C1324215   0.753   1.091   2.862
  196DOPC  H13A24216   0.782   1.028   2.780
  196DOPC  H13B24217   0.748   1.031   2.951
  196DOPC  H13C24218   0.653   1.128   2.844
  196DOPC   C1424219   0.850   1.296   2.768
  196DOPC  H14A24220   0.869   1.242   2.676
  196DOPC  H14B24221   0.754   1.343   2.756
  196DOPC  H14C24222   0.923   1.375   2.779
  196DOPC   C1524223   0.801   1.278   3.006
  196DOPC  H15A24224   0.701   1.315   2.990
  196DOPC  H15B24225   0.867   1.359   3.033
  196DOPC  H15C24226   0.796   1.210   3.089
  196DOPC   C1124227   1.004   1.027   3.004
  196DOPC  H11A24228   0.950   0.940   2.960
  196DOPC  H11B24229   1.111   0.999   3.008
  196DOPC     P24230   0.850   0.983   3.216
  196DOPC   O1324231   0.724   1.057   3.193
  196DOPC   O1424232   0.896   0.960   3.354
  196DOPC   O1224233   0.962   1.060   3.136
  196DOPC   O1124234   0.841   0.844   3.138
  196DOPC    C124235   0.779   0.733   3.205
  196DOPC    HA24236   0.806   0.728   3.313
  196DOPC    HB24237   0.818   0.639   3.161
  196DOPC    C224238   0.625   0.734   3.189
  196DOPC    HS24239   0.602   0.772   3.086
  196DOPC   O2124240   0.574   0.821   3.290
  196DOPC   C2124241   0.461   0.882   3.264
  196DOPC   O2224242   0.391   0.863   3.166
  196DOPC   C2224243   0.429   0.982   3.377
  196DOPC   H2R24244   0.327   0.959   3.414
  196DOPC   H2S24245   0.429   1.083   3.331
  196DOPC    C324246   0.565   0.592   3.204
  196DOPC    HX24247   0.604   0.530   3.121
  196DOPC    HY24248   0.454   0.596   3.192
  196DOPC   O3124249   0.606   0.534   3.329
  196DOPC   C3124250   0.530   0.562   3.433
  196DOPC   O3224251   0.415   0.604   3.428
  196DOPC   C3224252   0.607   0.537   3.562
  196DOPC   H2X24253   0.539   0.561   3.646
  196DOPC   H2Y24254   0.633   0.428   3.565
  196DOPC   C2324255   0.531   0.978   3.493
  196DOPC   H3R24256   0.634   0.989   3.451
  196DOPC   H3S24257   0.527   0.880   3.545
  196DOPC   C2424258   0.514   1.091   3.595
  196DOPC   H4R24259   0.418   1.078   3.650
  196DOPC   H4S24260   0.511   1.188   3.542
  196DOPC   C2524261   0.630   1.094   3.695
  196DOPC   H5R24262   0.725   1.100   3.638
  196DOPC   H5S24263   0.632   0.998   3.751
  196DOPC   C2624264   0.623   1.211   3.794
  196DOPC   H6R24265   0.532   1.201   3.857
  196DOPC   H6S24266   0.613   1.305   3.735
  196DOPC   C2724267   0.748   1.223   3.883
  196DOPC   H7R24268   0.744   1.320   3.938
  196DOPC   H7S24269   0.837   1.225   3.818
  196DOPC   C2824270   0.764   1.108   3.985
  196DOPC   H8R24271   0.864   1.117   4.032
  196DOPC   H8S24272   0.764   1.011   3.929
  196DOPC   C2924273   0.658   1.111   4.092
  196DOPC   H9R24274   0.660   1.202   4.154
  196DOPC  C21024275   0.565   1.018   4.120
  196DOPC  H10R24276   0.494   1.038   4.202
  196DOPC  C21124277   0.540   0.886   4.051
  196DOPC  H11R24278   0.594   0.880   3.955
  196DOPC  H11S24279   0.432   0.876   4.027
  196DOPC  C21224280   0.582   0.765   4.138
  196DOPC  H12R24281   0.691   0.770   4.154
  196DOPC  H12S24282   0.560   0.673   4.081
  196DOPC  C21324283   0.513   0.755   4.275
  196DOPC  H13R24284   0.402   0.758   4.262
  196DOPC  H13S24285   0.542   0.843   4.336
  196DOPC  C21424286   0.553   0.627   4.349
  196DOPC  H14R24287   0.664   0.620   4.348
  196DOPC  H14S24288   0.515   0.539   4.292
  196DOPC  C21524289   0.505   0.618   4.494
  196DOPC  H15R24290   0.537   0.519   4.534
  196DOPC  H15S24291   0.394   0.622   4.499
  196DOPC  C21624292   0.566   0.725   4.586
  196DOPC  H16R24293   0.508   0.819   4.576
  196DOPC  H16S24294   0.670   0.746   4.553
  196DOPC  C21724295   0.570   0.682   4.734
  196DOPC  H17R24296   0.612   0.766   4.793
  196DOPC  H17S24297   0.642   0.597   4.743
  196DOPC  C21824298   0.436   0.639   4.792
  196DOPC  H18R24299   0.445   0.621   4.902
  196DOPC  H18S24300   0.401   0.545   4.745
  196DOPC  H18T24301   0.359   0.718   4.776
  196DOPC   C3324302   0.735   0.623   3.568
  196DOPC   H3X24303   0.707   0.730   3.563
  196DOPC   H3Y24304   0.799   0.601   3.479
  196DOPC   C3424305   0.823   0.601   3.692
  196DOPC   H4X24306   0.899   0.681   3.693
  196DOPC   H4Y24307   0.877   0.505   3.681
  196DOPC   C3524308   0.746   0.601   3.824
  196DOPC   H5X24309   0.677   0.514   3.828
  196DOPC   H5Y24310   0.683   0.693   3.830
  196DOPC   C3624311   0.838   0.595   3.947
  196DOPC   H6X24312   0.778   0.571   4.036
  196DOPC   H6Y24313   0.914   0.515   3.934
  196DOPC   C3724314   0.909   0.729   3.971
  196DOPC   H7X24315   0.979   0.751   3.888
  196DOPC   H7Y24316   0.831   0.809   3.971
  196DOPC   C3824317   0.985   0.734   4.105
  196DOPC   H8X24318   1.069   0.661   4.100
  196DOPC   H8Y24319   0.916   0.698   4.185
  196DOPC   C3924320   1.036   0.873   4.131
  196DOPC   H9X24321   1.094   0.915   4.047
  196DOPC  C31024322   1.018   0.948   4.241
  196DOPC  H10X24323   1.064   1.048   4.244
  196DOPC  C31124324   0.942   0.910   4.366
  196DOPC  H11X24325   0.879   0.820   4.351
  196DOPC  H11Y24326   0.873   0.993   4.392
  196DOPC  C31224327   1.037   0.885   4.484
  196DOPC  H12X24328   1.104   0.973   4.498
  196DOPC  H12Y24329   1.101   0.797   4.463
  196DOPC  C31324330   0.960   0.862   4.615
  196DOPC  H13X24331   0.901   0.954   4.636
  196DOPC  H13Y24332   0.889   0.778   4.603
  196DOPC  C31424333   1.053   0.835   4.734
  196DOPC  H14X24334   1.102   0.736   4.719
  196DOPC  H14Y24335   1.133   0.912   4.733
  196DOPC  C31524336   0.983   0.840   4.870
  196DOPC  H15X24337   0.915   0.928   4.874
  196DOPC  H15Y24338   1.059   0.853   4.949
  196DOPC  C31624339   0.903   0.712   4.903
  196DOPC  H16X24340   0.830   0.693   4.821
  196DOPC  H16Y24341   0.972   0.625   4.906
  196DOPC  C31724342   0.829   0.722   5.037
  196DOPC  H17X24343   0.903   0.748   5.116
  196DOPC  H17Y24344   0.756   0.805   5.031
  196DOPC  C31824345   0.757   0.593   5.075
  196DOPC  H18X24346   0.684   0.565   4.997
  196DOPC  H18Y24347   0.830   0.510   5.086
  196DOPC  H18Z24348   0.703   0.605   5.172
  197DOPC     N24349   1.326   7.273   2.849
  197DOPC   C1224350   1.377   7.381   2.943
  197DOPC  H12A24351   1.293   7.421   2.997
  197DOPC  H12B24352   1.420   7.460   2.883
  197DOPC   C1324353   1.281   7.151   2.925
  197DOPC  H13A24354   1.259   7.070   2.858
  197DOPC  H13B24355   1.359   7.116   2.990
  197DOPC  H13C24356   1.192   7.168   2.984
  197DOPC   C1424357   1.436   7.229   2.757
  197DOPC  H14A24358   1.521   7.199   2.816
  197DOPC  H14B24359   1.406   7.145   2.697
  197DOPC  H14C24360   1.468   7.309   2.692
  197DOPC   C1524361   1.212   7.323   2.766
  197DOPC  H15A24362   1.128   7.352   2.826
  197DOPC  H15B24363   1.178   7.246   2.698
  197DOPC  H15C24364   1.243   7.405   2.703
  197DOPC   C1124365   1.486   7.343   3.047
  197DOPC  H11A24366   1.511   7.432   3.108
  197DOPC  H11B24367   1.442   7.267   3.116
  197DOPC     P24368   1.688   7.178   3.045
  197DOPC   O1324369   1.743   7.222   3.174
  197DOPC   O1424370   1.785   7.135   2.941
  197DOPC   O1224371   1.604   7.297   2.982
  197DOPC   O1124372   1.577   7.067   3.063
  197DOPC    C124373   1.574   6.984   3.180
  197DOPC    HA24374   1.635   7.022   3.264
  197DOPC    HB24375   1.612   6.883   3.155
  197DOPC    C224376   1.429   6.970   3.233
  197DOPC    HS24377   1.369   6.930   3.148
  197DOPC   O2124378   1.383   7.101   3.275
  197DOPC   C2124379   1.254   7.121   3.260
  197DOPC   O2224380   1.177   7.047   3.204
  197DOPC   C2224381   1.218   7.260   3.314
  197DOPC   H2R24382   1.122   7.290   3.267
  197DOPC   H2S24383   1.297   7.332   3.283
  197DOPC    C324384   1.419   6.870   3.351
  197DOPC    HX24385   1.463   6.774   3.318
  197DOPC    HY24386   1.312   6.849   3.373
  197DOPC   O3124387   1.492   6.920   3.465
  197DOPC   C3124388   1.421   6.984   3.557
  197DOPC   O3224389   1.299   6.986   3.563
  197DOPC   C3224390   1.511   7.057   3.657
  197DOPC   H2X24391   1.482   7.164   3.658
  197DOPC   H2Y24392   1.487   7.014   3.757
  197DOPC   C2324393   1.204   7.261   3.467
  197DOPC   H3R24394   1.303   7.240   3.513
  197DOPC   H3S24395   1.135   7.179   3.498
  197DOPC   C2424396   1.151   7.392   3.525
  197DOPC   H4R24397   1.046   7.409   3.493
  197DOPC   H4S24398   1.213   7.476   3.486
  197DOPC   C2524399   1.158   7.394   3.679
  197DOPC   H5R24400   1.126   7.494   3.717
  197DOPC   H5S24401   1.264   7.380   3.710
  197DOPC   C2624402   1.072   7.288   3.748
  197DOPC   H6R24403   1.115   7.188   3.725
  197DOPC   H6S24404   0.969   7.290   3.706
  197DOPC   C2724405   1.066   7.310   3.900
  197DOPC   H7R24406   0.998   7.396   3.918
  197DOPC   H7S24407   1.166   7.339   3.937
  197DOPC   C2824408   1.013   7.189   3.979
  197DOPC   H8R24409   0.918   7.155   3.934
  197DOPC   H8S24410   0.989   7.225   4.082
  197DOPC   C2924411   1.115   7.078   3.982
  197DOPC   H9R24412   1.159   7.052   3.885
  197DOPC  C21024413   1.155   7.010   4.091
  197DOPC  H10R24414   1.233   6.933   4.081
  197DOPC  C21124415   1.103   7.031   4.231
  197DOPC  H11R24416   1.102   6.934   4.286
  197DOPC  H11S24417   0.998   7.065   4.229
  197DOPC  C21224418   1.185   7.134   4.311
  197DOPC  H12R24419   1.128   7.158   4.403
  197DOPC  H12S24420   1.192   7.228   4.252
  197DOPC  C21324421   1.326   7.089   4.351
  197DOPC  H13R24422   1.380   7.175   4.396
  197DOPC  H13S24423   1.381   7.060   4.259
  197DOPC  C21424424   1.329   6.973   4.451
  197DOPC  H14R24425   1.432   6.933   4.459
  197DOPC  H14S24426   1.265   6.890   4.414
  197DOPC  C21524427   1.284   7.013   4.593
  197DOPC  H15R24428   1.195   7.079   4.588
  197DOPC  H15S24429   1.365   7.070   4.641
  197DOPC  C21624430   1.247   6.891   4.679
  197DOPC  H16R24431   1.331   6.818   4.675
  197DOPC  H16S24432   1.158   6.842   4.635
  197DOPC  C21724433   1.219   6.929   4.824
  197DOPC  H17R24434   1.141   7.008   4.826
  197DOPC  H17S24435   1.312   6.972   4.867
  197DOPC  C21824436   1.173   6.811   4.911
  197DOPC  H18R24437   1.250   6.731   4.912
  197DOPC  H18S24438   1.079   6.768   4.871
  197DOPC  H18T24439   1.155   6.844   5.015
  197DOPC   C3324440   1.664   7.045   3.632
  197DOPC   H3X24441   1.695   7.107   3.546
  197DOPC   H3Y24442   1.689   6.939   3.607
  197DOPC   C3424443   1.745   7.083   3.757
  197DOPC   H4X24444   1.693   7.042   3.847
  197DOPC   H4Y24445   1.747   7.193   3.768
  197DOPC   C3524446   1.888   7.026   3.757
  197DOPC   H5X24447   1.945   7.070   3.673
  197DOPC   H5Y24448   1.882   6.917   3.741
  197DOPC   C3624449   1.961   7.053   3.890
  197DOPC   H6X24450   1.976   7.163   3.900
  197DOPC   H6Y24451   1.896   7.020   3.974
  197DOPC   C3724452   2.096   6.981   3.902
  197DOPC   H7X24453   2.076   6.872   3.897
  197DOPC   H7Y24454   2.161   7.006   3.815
  197DOPC   C3824455   2.169   7.010   4.035
  197DOPC   H8X24456   2.241   6.927   4.052
  197DOPC   H8Y24457   2.094   7.005   4.116
  197DOPC   C3924458   2.247   7.140   4.035
  197DOPC   H9X24459   2.323   7.147   3.956
  197DOPC  C31024460   2.233   7.246   4.119
  197DOPC  H10X24461   2.298   7.334   4.103
  197DOPC  C31124462   2.136   7.262   4.233
  197DOPC  H11X24463   2.085   7.166   4.255
  197DOPC  H11Y24464   2.058   7.334   4.202
  197DOPC  C31224465   2.192   7.312   4.367
  197DOPC  H12X24466   2.251   7.406   4.353
  197DOPC  H12Y24467   2.261   7.234   4.408
  197DOPC  C31324468   2.079   7.339   4.468
  197DOPC  H13X24469   2.024   7.431   4.440
  197DOPC  H13Y24470   2.007   7.254   4.458
  197DOPC  C31424471   2.123   7.347   4.615
  197DOPC  H14X24472   2.189   7.261   4.637
  197DOPC  H14Y24473   2.182   7.440   4.630
  197DOPC  C31524474   2.006   7.343   4.715
  197DOPC  H15X24475   1.938   7.429   4.697
  197DOPC  H15Y24476   2.048   7.353   4.818
  197DOPC  C31624477   1.924   7.213   4.709
  197DOPC  H16X24478   1.858   7.216   4.619
  197DOPC  H16Y24479   1.994   7.127   4.697
  197DOPC  C31724480   1.838   7.187   4.833
  197DOPC  H17X24481   1.903   7.184   4.923
  197DOPC  H17Y24482   1.766   7.271   4.845
  197DOPC  C31824483   1.759   7.056   4.825
  197DOPC  H18X24484   1.828   6.969   4.815
  197DOPC  H18Y24485   1.697   7.041   4.916
  197DOPC  H18Z24486   1.692   7.056   4.736
  198DOPC     N24487   7.042   6.548   3.103
  198DOPC   C1224488   6.965   6.421   3.075
  198DOPC  H12A24489   7.036   6.341   3.060
  198DOPC  H12B24490   6.911   6.433   2.982
  198DOPC   C1324491   6.950   6.659   3.143
  198DOPC  H13A24492   6.884   6.685   3.061
  198DOPC  H13B24493   6.886   6.626   3.224
  198DOPC  H13C24494   7.005   6.746   3.177
  198DOPC   C1424495   7.119   6.588   2.981
  198DOPC  H14A24496   7.052   6.606   2.898
  198DOPC  H14B24497   7.177   6.678   3.000
  198DOPC  H14C24498   7.187   6.509   2.953
  198DOPC   C1524499   7.140   6.525   3.215
  198DOPC  H15A24500   7.209   6.447   3.188
  198DOPC  H15B24501   7.087   6.495   3.304
  198DOPC  H15C24502   7.195   6.616   3.237
  198DOPC   C1124503   6.859   6.377   3.180
  198DOPC  H11A24504   6.838   6.269   3.167
  198DOPC  H11B24505   6.902   6.388   3.282
  198DOPC     P24506   6.637   6.422   3.054
  198DOPC   O1324507   6.601   6.279   3.063
  198DOPC   O1424508   6.694   6.467   2.924
  198DOPC   O1224509   6.741   6.457   3.169
  198DOPC   O1124510   6.510   6.508   3.086
  198DOPC    C124511   6.503   6.650   3.077
  198DOPC    HA24512   6.396   6.678   3.077
  198DOPC    HB24513   6.546   6.688   2.981
  198DOPC    C224514   6.568   6.725   3.198
  198DOPC    HS24515   6.676   6.730   3.176
  198DOPC   O2124516   6.542   6.648   3.316
  198DOPC   C2124517   6.642   6.642   3.402
  198DOPC   O2224518   6.752   6.693   3.388
  198DOPC   C2224519   6.597   6.562   3.524
  198DOPC   H2R24520   6.665   6.475   3.534
  198DOPC   H2S24521   6.494   6.523   3.504
  198DOPC    C324522   6.515   6.871   3.215
  198DOPC    HX24523   6.410   6.874   3.177
  198DOPC    HY24524   6.576   6.937   3.149
  198DOPC   O3124525   6.518   6.914   3.353
  198DOPC   C3124526   6.503   7.044   3.376
  198DOPC   O3224527   6.494   7.130   3.289
  198DOPC   C3224528   6.507   7.070   3.527
  198DOPC   H2X24529   6.471   7.173   3.546
  198DOPC   H2Y24530   6.435   7.000   3.574
  198DOPC   C2324531   6.595   6.647   3.653
  198DOPC   H3R24532   6.518   6.608   3.723
  198DOPC   H3S24533   6.562   6.750   3.626
  198DOPC   C2424534   6.730   6.650   3.726
  198DOPC   H4R24535   6.731   6.737   3.795
  198DOPC   H4S24536   6.812   6.664   3.653
  198DOPC   C2524537   6.754   6.523   3.809
  198DOPC   H5R24538   6.738   6.434   3.745
  198DOPC   H5S24539   6.679   6.519   3.891
  198DOPC   C2624540   6.894   6.513   3.871
  198DOPC   H6R24541   6.970   6.512   3.789
  198DOPC   H6S24542   6.902   6.416   3.925
  198DOPC   C2724543   6.928   6.627   3.969
  198DOPC   H7R24544   6.848   6.635   4.045
  198DOPC   H7S24545   6.931   6.722   3.912
  198DOPC   C2824546   7.063   6.603   4.040
  198DOPC   H8R24547   7.139   6.580   3.961
  198DOPC   H8S24548   7.054   6.511   4.102
  198DOPC   C2924549   7.109   6.722   4.120
  198DOPC   H9R24550   7.118   6.815   4.062
  198DOPC  C21024551   7.138   6.725   4.251
  198DOPC  H10R24552   7.171   6.821   4.295
  198DOPC  C21124553   7.131   6.612   4.351
  198DOPC  H11R24554   7.231   6.563   4.358
  198DOPC  H11S24555   7.058   6.534   4.321
  198DOPC  C21224556   7.094   6.664   4.492
  198DOPC  H12R24557   7.163   6.745   4.522
  198DOPC  H12S24558   7.107   6.581   4.564
  198DOPC  C21324559   6.949   6.714   4.502
  198DOPC  H13R24560   6.882   6.628   4.480
  198DOPC  H13S24561   6.929   6.792   4.425
  198DOPC  C21424562   6.912   6.771   4.640
  198DOPC  H14R24563   6.945   6.702   4.720
  198DOPC  H14S24564   6.802   6.779   4.647
  198DOPC  C21524565   6.968   6.912   4.665
  198DOPC  H15R24566   6.943   6.976   4.577
  198DOPC  H15S24567   7.078   6.907   4.673
  198DOPC  C21624568   6.909   6.976   4.792
  198DOPC  H16R24569   6.938   6.914   4.879
  198DOPC  H16S24570   6.798   6.974   4.785
  198DOPC  C21724571   6.954   7.121   4.816
  198DOPC  H17R24572   7.065   7.124   4.816
  198DOPC  H17S24573   6.921   7.151   4.918
  198DOPC  C21824574   6.899   7.222   4.715
  198DOPC  H18R24575   6.933   7.325   4.741
  198DOPC  H18S24576   6.788   7.221   4.716
  198DOPC  H18T24577   6.934   7.199   4.612
  198DOPC   C3324578   6.648   7.050   3.586
  198DOPC   H3X24579   6.709   7.142   3.574
  198DOPC   H3Y24580   6.699   6.969   3.530
  198DOPC   C3424581   6.649   7.004   3.733
  198DOPC   H4X24582   6.753   6.974   3.757
  198DOPC   H4Y24583   6.584   6.915   3.747
  198DOPC   C3524584   6.605   7.107   3.838
  198DOPC   H5X24585   6.496   7.097   3.855
  198DOPC   H5Y24586   6.624   7.211   3.802
  198DOPC   C3624587   6.683   7.085   3.969
  198DOPC   H6X24588   6.697   6.976   3.985
  198DOPC   H6Y24589   6.784   7.130   3.956
  198DOPC   C3724590   6.620   7.144   4.096
  198DOPC   H7X24591   6.701   7.146   4.172
  198DOPC   H7Y24592   6.588   7.249   4.079
  198DOPC   C3824593   6.503   7.060   4.149
  198DOPC   H8X24594   6.529   6.953   4.139
  198DOPC   H8Y24595   6.413   7.077   4.085
  198DOPC   C3924596   6.474   7.096   4.293
  198DOPC   H9X24597   6.421   7.192   4.307
  198DOPC  C31024598   6.506   7.024   4.402
  198DOPC  H10X24599   6.477   7.063   4.501
  198DOPC  C31124600   6.578   6.891   4.406
  198DOPC  H11X24601   6.672   6.902   4.463
  198DOPC  H11Y24602   6.606   6.854   4.305
  198DOPC  C31224603   6.492   6.783   4.475
  198DOPC  H12X24604   6.400   6.763   4.417
  198DOPC  H12Y24605   6.461   6.822   4.574
  198DOPC  C31324606   6.568   6.651   4.493
  198DOPC  H13X24607   6.588   6.605   4.394
  198DOPC  H13Y24608   6.667   6.672   4.539
  198DOPC  C31424609   6.497   6.548   4.583
  198DOPC  H14X24610   6.408   6.509   4.528
  198DOPC  H14Y24611   6.565   6.463   4.600
  198DOPC  C31524612   6.449   6.602   4.719
  198DOPC  H15X24613   6.411   6.516   4.779
  198DOPC  H15Y24614   6.363   6.670   4.701
  198DOPC  C31624615   6.552   6.678   4.804
  198DOPC  H16X24616   6.596   6.763   4.746
  198DOPC  H16Y24617   6.500   6.722   4.891
  198DOPC  C31724618   6.665   6.588   4.856
  198DOPC  H17X24619   6.620   6.495   4.896
  198DOPC  H17Y24620   6.731   6.561   4.772
  198DOPC  C31824621   6.748   6.654   4.967
  198DOPC  H18X24622   6.683   6.678   5.055
  198DOPC  H18Y24623   6.828   6.585   5.001
  198DOPC  H18Z24624   6.794   6.748   4.931
  199DOPC     N24625   6.369   0.289   2.952
  199DOPC   C1224626   6.391   0.435   2.914
  199DOPC  H12A24627   6.415   0.439   2.809
  199DOPC  H12B24628   6.476   0.472   2.969
  199DOPC   C1324629   6.345   0.276   3.099
  199DOPC  H13A24630   6.432   0.308   3.155
  199DOPC  H13B24631   6.267   0.344   3.128
  199DOPC  H13C24632   6.319   0.176   3.127
  199DOPC   C1424633   6.490   0.208   2.914
  199DOPC  H14A24634   6.470   0.103   2.927
  199DOPC  H14B24635   6.516   0.225   2.811
  199DOPC  H14C24636   6.574   0.236   2.975
  199DOPC   C1524637   6.250   0.236   2.878
  199DOPC  H15A24638   6.261   0.251   2.772
  199DOPC  H15B24639   6.159   0.287   2.909
  199DOPC  H15C24640   6.235   0.130   2.894
  199DOPC   C1124641   6.276   0.535   2.941
  199DOPC  H11A24642   6.301   0.633   2.895
  199DOPC  H11B24643   6.184   0.499   2.890
  199DOPC     P24644   6.358   0.621   3.173
  199DOPC   O1324645   6.304   0.748   3.225
  199DOPC   O1424646   6.487   0.626   3.101
  199DOPC   O1224647   6.249   0.551   3.081
  199DOPC   O1124648   6.367   0.514   3.290
  199DOPC    C124649   6.384   0.555   3.426
  199DOPC    HA24650   6.299   0.517   3.487
  199DOPC    HB24651   6.386   0.665   3.439
  199DOPC    C224652   6.516   0.500   3.486
  199DOPC    HS24653   6.597   0.516   3.412
  199DOPC   O2124654   6.500   0.361   3.519
  199DOPC   C2124655   6.523   0.274   3.424
  199DOPC   O2224656   6.568   0.296   3.313
  199DOPC   C2224657   6.482   0.135   3.473
  199DOPC   H2R24658   6.480   0.069   3.383
  199DOPC   H2S24659   6.379   0.141   3.514
  199DOPC    C324660   6.553   0.578   3.615
  199DOPC    HX24661   6.564   0.685   3.587
  199DOPC    HY24662   6.653   0.542   3.648
  199DOPC   O3124663   6.450   0.567   3.716
  199DOPC   C3124664   6.483   0.504   3.828
  199DOPC   O3224665   6.594   0.463   3.857
  199DOPC   C3224666   6.360   0.489   3.918
  199DOPC   H2X24667   6.273   0.462   3.855
  199DOPC   H2Y24668   6.383   0.406   3.988
  199DOPC   C2324669   6.579   0.077   3.578
  199DOPC   H3R24670   6.683   0.100   3.548
  199DOPC   H3S24671   6.569  -0.034   3.580
  199DOPC   C2424672   6.554   0.129   3.720
  199DOPC   H4R24673   6.526   0.237   3.716
  199DOPC   H4S24674   6.648   0.124   3.778
  199DOPC   C2524675   6.446   0.052   3.798
  199DOPC   H5R24676   6.484  -0.049   3.824
  199DOPC   H5S24677   6.355   0.039   3.736
  199DOPC   C2624678   6.409   0.127   3.927
  199DOPC   H6R24679   6.345   0.213   3.898
  199DOPC   H6S24680   6.501   0.166   3.973
  199DOPC   C2724681   6.335   0.042   4.031
  199DOPC   H7R24682   6.402  -0.043   4.059
  199DOPC   H7S24683   6.243  -0.002   3.988
  199DOPC   C2824684   6.303   0.121   4.159
  199DOPC   H8R24685   6.395   0.175   4.191
  199DOPC   H8S24686   6.280   0.049   4.241
  199DOPC   C2924687   6.190   0.220   4.138
  199DOPC   H9R24688   6.200   0.281   4.048
  199DOPC  C21024689   6.082   0.240   4.216
  199DOPC  H10R24690   6.010   0.317   4.186
  199DOPC  C21124691   6.045   0.168   4.344
  199DOPC  H11R24692   6.108   0.079   4.363
  199DOPC  H11S24693   5.941   0.131   4.335
  199DOPC  C21224694   6.051   0.262   4.466
  199DOPC  H12R24695   6.003   0.212   4.553
  199DOPC  H12S24696   5.993   0.354   4.445
  199DOPC  C21324697   6.194   0.302   4.509
  199DOPC  H13R24698   6.187   0.385   4.582
  199DOPC  H13S24699   6.250   0.339   4.421
  199DOPC  C21424700   6.272   0.186   4.574
  199DOPC  H14R24701   6.274   0.100   4.504
  199DOPC  H14S24702   6.217   0.153   4.666
  199DOPC  C21524703   6.417   0.220   4.611
  199DOPC  H15R24704   6.470   0.249   4.518
  199DOPC  H15S24705   6.466   0.128   4.650
  199DOPC  C21624706   6.434   0.334   4.713
  199DOPC  H16R24707   6.388   0.427   4.672
  199DOPC  H16S24708   6.543   0.353   4.725
  199DOPC  C21724709   6.377   0.306   4.853
  199DOPC  H17R24710   6.269   0.280   4.845
  199DOPC  H17S24711   6.383   0.400   4.912
  199DOPC  C21824712   6.451   0.196   4.929
  199DOPC  H18R24713   6.411   0.185   5.032
  199DOPC  H18S24714   6.559   0.221   4.936
  199DOPC  H18T24715   6.441   0.098   4.877
  199DOPC   C3324716   6.330   0.616   4.001
  199DOPC   H3X24717   6.302   0.700   3.934
  199DOPC   H3Y24718   6.423   0.644   4.055
  199DOPC   C3424719   6.218   0.595   4.105
  199DOPC   H4X24720   6.242   0.505   4.165
  199DOPC   H4Y24721   6.123   0.576   4.051
  199DOPC   C3524722   6.200   0.713   4.202
  199DOPC   H5X24723   6.111   0.693   4.266
  199DOPC   H5Y24724   6.180   0.806   4.145
  199DOPC   C3624725   6.322   0.734   4.293
  199DOPC   H6X24726   6.347   0.638   4.342
  199DOPC   H6Y24727   6.408   0.764   4.229
  199DOPC   C3724728   6.304   0.841   4.402
  199DOPC   H7X24729   6.278   0.939   4.356
  199DOPC   H7Y24730   6.218   0.813   4.466
  199DOPC   C3824731   6.429   0.856   4.492
  199DOPC   H8X24732   6.448   0.757   4.538
  199DOPC   H8Y24733   6.403   0.925   4.575
  199DOPC   C3924734   6.554   0.908   4.424
  199DOPC   H9X24735   6.564   1.018   4.426
  199DOPC  C31024736   6.649   0.836   4.362
  199DOPC  H10X24737   6.734   0.889   4.317
  199DOPC  C31124738   6.653   0.686   4.345
  199DOPC  H11X24739   6.629   0.662   4.239
  199DOPC  H11Y24740   6.576   0.634   4.407
  199DOPC  C31224741   6.789   0.622   4.376
  199DOPC  H12X24742   6.870   0.683   4.331
  199DOPC  H12Y24743   6.794   0.523   4.326
  199DOPC  C31324744   6.817   0.600   4.526
  199DOPC  H13X24745   6.927   0.600   4.541
  199DOPC  H13Y24746   6.776   0.684   4.585
  199DOPC  C31424747   6.764   0.466   4.577
  199DOPC  H14X24748   6.653   0.468   4.574
  199DOPC  H14Y24749   6.797   0.386   4.507
  199DOPC  C31524750   6.813   0.429   4.717
  199DOPC  H15X24751   6.924   0.430   4.720
  199DOPC  H15Y24752   6.781   0.324   4.738
  199DOPC  C31624753   6.758   0.519   4.828
  199DOPC  H16X24754   6.798   0.622   4.817
  199DOPC  H16Y24755   6.648   0.525   4.819
  199DOPC  C31724756   6.792   0.466   4.968
  199DOPC  H17X24757   6.763   0.359   4.974
  199DOPC  H17Y24758   6.902   0.471   4.983
  199DOPC  C31824759   6.721   0.542   5.081
  199DOPC  H18X24760   6.750   0.501   5.180
  199DOPC  H18Y24761   6.749   0.650   5.078
  199DOPC  H18Z24762   6.611   0.534   5.070
  200DOPC     N24763   1.174   0.119   2.909
  200DOPC   C1224764   1.227   0.260   2.929
  200DOPC  H12A24765   1.206   0.318   2.840
  200DOPC  H12B24766   1.334   0.256   2.939
  200DOPC   C1324767   1.177   0.043   3.038
  200DOPC  H13A24768   1.112   0.094   3.108
  200DOPC  H13B24769   1.138  -0.057   3.025
  200DOPC  H13C24770   1.276   0.040   3.081
  200DOPC   C1424771   1.254   0.049   2.803
  200DOPC  H14A24772   1.360   0.052   2.821
  200DOPC  H14B24773   1.221  -0.053   2.792
  200DOPC  H14C24774   1.237   0.096   2.707
  200DOPC   C1524775   1.032   0.120   2.863
  200DOPC  H15A24776   1.019   0.175   2.771
  200DOPC  H15B24777   0.969   0.166   2.938
  200DOPC  H15C24778   0.994   0.020   2.848
  200DOPC   C1124779   1.172   0.343   3.049
  200DOPC  H11A24780   1.178   0.285   3.143
  200DOPC  H11B24781   1.238   0.432   3.062
  200DOPC     P24782   0.911   0.359   3.102
  200DOPC   O1324783   0.900   0.212   3.116
  200DOPC   O1424784   0.806   0.429   3.025
  200DOPC   O1224785   1.042   0.390   3.020
  200DOPC   O1124786   0.931   0.427   3.242
  200DOPC    C124787   0.991   0.367   3.357
  200DOPC    HA24788   1.003   0.447   3.434
  200DOPC    HB24789   1.094   0.331   3.335
  200DOPC    C224790   0.907   0.253   3.422
  200DOPC    HS24791   0.814   0.244   3.363
  200DOPC   O2124792   0.877   0.287   3.559
  200DOPC   C2124793   0.784   0.210   3.616
  200DOPC   O2224794   0.716   0.127   3.558
  200DOPC   C2224795   0.771   0.245   3.765
  200DOPC   H2R24796   0.673   0.295   3.777
  200DOPC   H2S24797   0.851   0.317   3.793
  200DOPC    C324798   0.984   0.117   3.413
  200DOPC    HX24799   1.013   0.102   3.306
  200DOPC    HY24800   0.917   0.033   3.438
  200DOPC   O3124801   1.105   0.122   3.493
  200DOPC   C3124802   1.089   0.075   3.617
  200DOPC   O3224803   0.997   0.005   3.653
  200DOPC   C3224804   1.198   0.126   3.709
  200DOPC   H2X24805   1.180   0.079   3.808
  200DOPC   H2Y24806   1.296   0.090   3.671
  200DOPC   C2324807   0.778   0.121   3.858
  200DOPC   H3R24808   0.786   0.028   3.798
  200DOPC   H3S24809   0.684   0.113   3.917
  200DOPC   C2424810   0.897   0.124   3.956
  200DOPC   H4R24811   0.868   0.183   4.046
  200DOPC   H4S24812   0.983   0.175   3.908
  200DOPC   C2524813   0.941  -0.018   3.994
  200DOPC   H5R24814   0.985  -0.065   3.904
  200DOPC   H5S24815   0.851  -0.076   4.023
  200DOPC   C2624816   1.042  -0.027   4.110
  200DOPC   H6R24817   1.130   0.037   4.090
  200DOPC   H6S24818   1.077  -0.133   4.114
  200DOPC   C2724819   0.978   0.010   4.244
  200DOPC   H7R24820   0.876  -0.032   4.250
  200DOPC   H7S24821   0.966   0.121   4.247
  200DOPC   C2824822   1.057  -0.035   4.369
  200DOPC   H8R24823   1.012   0.018   4.455
  200DOPC   H8S24824   1.162   0.003   4.359
  200DOPC   C2924825   1.059  -0.184   4.391
  200DOPC   H9R24826   1.086  -0.242   4.302
  200DOPC  C21024827   1.032  -0.251   4.505
  200DOPC  H10R24828   1.041  -0.361   4.504
  200DOPC  C21124829   0.991  -0.195   4.639
  200DOPC  H11R24830   0.903  -0.251   4.677
  200DOPC  H11S24831   0.957  -0.090   4.629
  200DOPC  C21224832   1.101  -0.200   4.747
  200DOPC  H12R24833   1.198  -0.235   4.705
  200DOPC  H12S24834   1.071  -0.274   4.825
  200DOPC  C21324835   1.123  -0.064   4.815
  200DOPC  H13R24836   1.189  -0.078   4.903
  200DOPC  H13S24837   1.026  -0.025   4.851
  200DOPC  C21424838   1.188   0.038   4.720
  200DOPC  H14R24839   1.125   0.048   4.629
  200DOPC  H14S24840   1.287   0.001   4.687
  200DOPC  C21524841   1.202   0.178   4.780
  200DOPC  H15R24842   1.277   0.176   4.862
  200DOPC  H15S24843   1.105   0.209   4.823
  200DOPC  C21624844   1.244   0.283   4.675
  200DOPC  H16R24845   1.252   0.382   4.724
  200DOPC  H16S24846   1.163   0.291   4.599
  200DOPC  C21724847   1.376   0.253   4.602
  200DOPC  H17R24848   1.396   0.336   4.531
  200DOPC  H17S24849   1.363   0.161   4.542
  200DOPC  C21824850   1.498   0.236   4.694
  200DOPC  H18R24851   1.516   0.329   4.752
  200DOPC  H18S24852   1.589   0.214   4.634
  200DOPC  H18T24853   1.482   0.152   4.765
  200DOPC   C3324854   1.197   0.281   3.721
  200DOPC   H3X24855   1.095   0.316   3.749
  200DOPC   H3Y24856   1.222   0.325   3.623
  200DOPC   C3424857   1.296   0.335   3.826
  200DOPC   H4X24858   1.297   0.446   3.820
  200DOPC   H4Y24859   1.398   0.299   3.800
  200DOPC   C3524860   1.262   0.293   3.970
  200DOPC   H5X24861   1.269   0.182   3.977
  200DOPC   H5Y24862   1.158   0.322   3.993
  200DOPC   C3624863   1.356   0.355   4.074
  200DOPC   H6X24864   1.461   0.344   4.038
  200DOPC   H6Y24865   1.335   0.463   4.084
  200DOPC   C3724866   1.346   0.287   4.212
  200DOPC   H7X24867   1.372   0.179   4.199
  200DOPC   H7Y24868   1.423   0.330   4.280
  200DOPC   C3824869   1.208   0.295   4.279
  200DOPC   H8X24870   1.207   0.223   4.363
  200DOPC   H8Y24871   1.130   0.262   4.207
  200DOPC   C3924872   1.179   0.432   4.333
  200DOPC   H9X24873   1.269   0.489   4.360
  200DOPC  C31024874   1.058   0.489   4.351
  200DOPC  H10X24875   1.052   0.590   4.392
  200DOPC  C31124876   0.925   0.424   4.320
  200DOPC  H11X24877   0.930   0.375   4.220
  200DOPC  H11Y24878   0.846   0.501   4.313
  200DOPC  C31224879   0.883   0.318   4.423
  200DOPC  H12X24880   0.964   0.243   4.434
  200DOPC  H12Y24881   0.794   0.264   4.384
  200DOPC  C31324882   0.849   0.371   4.563
  200DOPC  H13X24883   0.935   0.428   4.604
  200DOPC  H13Y24884   0.763   0.441   4.555
  200DOPC  C31424885   0.815   0.256   4.658
  200DOPC  H14X24886   0.734   0.195   4.612
  200DOPC  H14Y24887   0.904   0.190   4.668
  200DOPC  C31524888   0.769   0.301   4.798
  200DOPC  H15X24889   0.678   0.363   4.787
  200DOPC  H15Y24890   0.848   0.364   4.844
  200DOPC  C31624891   0.741   0.180   4.889
  200DOPC  H16X24892   0.664   0.116   4.840
  200DOPC  H16Y24893   0.834   0.121   4.898
  200DOPC  C31724894   0.691   0.217   5.029
  200DOPC  H17X24895   0.691   0.125   5.092
  200DOPC  H17Y24896   0.763   0.288   5.076
  200DOPC  C31824897   0.550   0.278   5.032
  200DOPC  H18X24898   0.520   0.300   5.137
  200DOPC  H18Y24899   0.546   0.372   4.974
  200DOPC  H18Z24900   0.477   0.207   4.989
  201SOD    SOD24901   7.261   1.852   7.421
  202SOD    SOD24902   6.727   6.397   2.482
  203SOD    SOD24903   7.152   1.757   9.984
  204SOD    SOD24904   7.475   6.932   0.014
  205SOD    SOD24905   6.223   3.142   9.705
  206SOD    SOD24906   2.740   2.614   1.451
  207SOD    SOD24907   1.587   1.171   2.055
  208SOD    SOD24908   3.763   3.259   8.713
  209SOD    SOD24909   1.083   2.722   2.689
  210SOD    SOD24910   4.712   0.748   7.212
  211SOD    SOD24911   2.382   2.505   9.183
  212SOD    SOD24912   0.499   4.945   9.131
  213SOD    SOD24913   2.513   5.539   0.114
  214SOD    SOD24914   2.348   3.280   8.791
  215SOD    SOD24915   6.622   5.134   9.402
  216SOD    SOD24916   1.932   5.609   8.450
  217SOD    SOD24917   1.039   2.858   1.556
  218SOD    SOD24918   5.877   4.060   9.369
  219SOD    SOD24919   6.991   2.926   9.715
  220SOD    SOD24920   4.038   2.176   0.636
  221SOD    SOD24921   0.289   6.942   1.207
  222SOD    SOD24922   4.915   5.504   8.099
  223SOD    SOD24923   2.803   6.012   1.591
  224SOD    SOD24924   0.362   4.669   0.726
  225SOD    SOD24925   3.170   2.228   1.554
  226SOD    SOD24926   0.831   7.342   9.338
  227CLA    CLA24927   6.072   3.589   1.465
  228CLA    CLA24928   4.939   4.778   0.046
  229CLA    CLA24929   0.373   4.628   1.998
  230CLA    CLA24930   5.868   3.049   8.061
  231CLA    CLA24931   4.648   6.743   9.884
  232CLA    CLA24932   4.735   2.774   9.708
  233CLA    CLA24933   4.686   1.333   8.088
  234CLA    CLA24934   6.204   5.584   9.020
  235CLA    CLA24935   1.375   0.696   0.087
  236CLA    CLA24936   2.609   0.634   8.491
  237CLA    CLA24937   2.534   2.109   7.761
  238CLA    CLA24938   5.389   1.477   1.848
  239CLA    CLA24939   7.342   0.658   2.111
  240CLA    CLA24940   6.415   4.095   7.271
  241CLA    CLA24941   4.889   7.205   2.463
  242CLA    CLA24942   5.164   3.189   8.283
  243CLA    CLA24943   0.802   0.708   1.646
  244CLA    CLA24944   3.470   2.408   2.085
  245CLA    CLA24945   7.166   6.374   1.954
  246CLA    CLA24946   1.034   0.827   9.735
  247CLA    CLA24947   4.126   0.804   1.603
  248CLA    CLA24948   4.510   4.445   1.830
  249CLA    CLA24949   1.990   6.116   1.953
  250CLA    CLA24950   4.529   2.806   8.807
  251CLA    CLA24951   1.180   3.276   7.983
  252CLA    CLA24952   0.696   2.309   2.407
  253TIP3   OH224953   4.189   4.729   7.062
  253TIP3    H124954   4.122   4.702   6.999
  253TIP3    H224955   4.146   4.797   7.115
  254TIP3   OH224956   3.925   4.476   7.120
  254TIP3    H124957   3.853   4.538   7.128
  254TIP3    H224958   3.978   4.509   7.047
  255TIP3   OH224959   2.864   4.414   7.090
  255TIP3    H124960   2.925   4.477   7.127
  255TIP3    H224961   2.831   4.455   7.011
  256TIP3   OH224962   2.505   4.613   7.048
  256TIP3    H124963   2.415   4.637   7.072
  256TIP3    H224964   2.520   4.530   7.094
  257TIP3   OH224965   2.311   2.629   7.071
  257TIP3    H124966   2.335   2.669   7.155
  257TIP3    H224967   2.392   2.625   7.021
  258TIP3   OH224968   6.140   3.988   7.367
  258TIP3    H124969   6.217   4.043   7.354
  258TIP3    H224970   6.144   3.923   7.297
  259TIP3   OH224971   5.865   4.234   6.978
  259TIP3    H124972   5.947   4.188   6.962
  259TIP3    H224973   5.797   4.168   6.967
  260TIP3   OH224974   6.229   3.894   7.109
  260TIP3    H124975   6.282   3.960   7.152
  260TIP3    H224976   6.291   3.840   7.059
  261TIP3   OH224977   1.698   2.427   7.078
  261TIP3    H124978   1.764   2.391   7.020
  261TIP3    H224979   1.625   2.365   7.073
  262TIP3   OH224980   6.221   2.259   7.031
  262TIP3    H124981   6.178   2.336   6.996
  262TIP3    H224982   6.261   2.217   6.955
  263TIP3   OH224983   5.832   2.646   7.027
  263TIP3    H124984   5.843   2.709   7.098
  263TIP3    H224985   5.804   2.698   6.952
  264TIP3   OH224986   2.879   6.384   7.152
  264TIP3    H124987   2.909   6.401   7.242
  264TIP3    H224988   2.790   6.419   7.149
  265TIP3   OH224989   2.819   6.155   6.999
  265TIP3    H124990   2.793   6.079   7.051
  265TIP3    H224991   2.844   6.221   7.064
  266TIP3   OH224992   2.648   6.502   7.051
  266TIP3    H124993   2.680   6.592   7.059
  266TIP3    H224994   2.676   6.474   6.965
  267TIP3   OH224995   1.331   5.794   7.182
  267TIP3    H124996   1.293   5.731   7.120
  267TIP3    H224997   1.344   5.874   7.130
  268TIP3   OH224998   1.020   5.570   7.199
  268TIP3    H124999   1.094   5.578   7.139
  268TIP3    H225000   0.959   5.638   7.171
  269TIP3   OH225001   1.246   5.558   7.037
  269TIP3    H125002   1.223   5.505   6.961
  269TIP3    H225003   1.301   5.501   7.091
  270TIP3   OH225004   1.280   5.127   6.989
  270TIP3    H125005   1.335   5.140   7.067
  270TIP3    H225006   1.243   5.039   7.001
  271TIP3   OH225007   3.445   0.654   7.164
  271TIP3    H125008   3.469   0.747   7.154
  271TIP3    H225009   3.370   0.642   7.106
  272TIP3   OH225010   0.636   5.188   6.948
  272TIP3    H125011   0.673   5.151   7.029
  272TIP3    H225012   0.603   5.113   6.900
  273TIP3   OH225013   5.627   7.320   6.952
  273TIP3    H125014   5.544   7.276   6.934
  273TIP3    H225015   5.607   7.381   7.023
  274TIP3   OH225016   1.990   0.578   7.050
  274TIP3    H125017   1.971   0.504   7.108
  274TIP3    H225018   1.912   0.586   6.996
  275TIP3   OH225019   2.640   0.024   7.199
  275TIP3    H125020   2.679   0.104   7.234
  275TIP3    H225021   2.581   0.055   7.130
  276TIP3   OH225022   2.463   0.160   7.018
  276TIP3    H125023   2.429   0.232   7.071
  276TIP3    H225024   2.518   0.202   6.952
  277TIP3   OH225025   5.345   0.187   7.038
  277TIP3    H125026   5.274   0.154   6.983
  277TIP3    H225027   5.397   0.242   6.979
  278TIP3   OH225028   5.693   0.521   6.953
  278TIP3    H125029   5.779   0.495   6.921
  278TIP3    H225030   5.681   0.610   6.920
  279TIP3   OH225031   7.057   2.054   6.879
  279TIP3    H125032   7.049   2.023   6.789
  279TIP3    H225033   7.126   2.121   6.875
  280TIP3   OH225034   7.528   1.805   7.128
  280TIP3    H125035   7.622   1.812   7.112
  280TIP3    H225036   7.499   1.733   7.072
  281TIP3   OH225037   7.527   1.179   6.922
  281TIP3    H125038   7.609   1.225   6.937
  281TIP3    H225039   7.546   1.088   6.945
  282TIP3   OH225040   0.996   0.114   7.071
  282TIP3    H125041   1.023   0.023   7.082
  282TIP3    H225042   0.934   0.129   7.143
  283TIP3   OH225043   1.382   0.469   7.042
  283TIP3    H125044   1.329   0.398   7.006
  283TIP3    H225045   1.335   0.549   7.015
  284TIP3   OH225046   4.172   3.592   2.898
  284TIP3    H125047   4.242   3.527   2.899
  284TIP3    H225048   4.202   3.659   2.959
  285TIP3   OH225049   4.408   4.020   2.952
  285TIP3    H125050   4.408   4.112   2.978
  285TIP3    H225051   4.446   4.020   2.864
  286TIP3   OH225052   5.110   3.596   2.970
  286TIP3    H125053   5.100   3.650   3.049
  286TIP3    H225054   5.204   3.578   2.965
  287TIP3   OH225055   4.789   4.162   2.855
  287TIP3    H125056   4.749   4.207   2.781
  287TIP3    H225057   4.810   4.075   2.822
  288TIP3   OH225058   3.237   5.164   3.108
  288TIP3    H125059   3.181   5.128   3.176
  288TIP3    H225060   3.186   5.155   3.027
  289TIP3   OH225061   3.722   5.285   2.938
  289TIP3    H125062   3.782   5.331   2.997
  289TIP3    H225063   3.645   5.267   2.991
  290TIP3   OH225064   4.517   5.414   2.937
  290TIP3    H125065   4.450   5.364   2.984
  290TIP3    H225066   4.600   5.375   2.966
  291TIP3   OH225067   4.357   4.969   2.976
  291TIP3    H125068   4.301   4.919   2.917
  291TIP3    H225069   4.443   4.927   2.968
  292TIP3   OH225070   3.053   5.100   2.905
  292TIP3    H125071   2.991   5.166   2.872
  292TIP3    H225072   3.002   5.019   2.905
  293TIP3   OH225073   2.447   5.275   2.782
  293TIP3    H125074   2.430   5.199   2.838
  293TIP3    H225075   2.506   5.330   2.833
  294TIP3   OH225076   2.645   5.415   2.935
  294TIP3    H125077   2.658   5.501   2.974
  294TIP3    H225078   2.609   5.362   3.006
  295TIP3   OH225079   2.415   5.043   2.943
  295TIP3    H125080   2.377   4.993   2.870
  295TIP3    H225081   2.479   4.983   2.981
  296TIP3   OH225082   2.851   5.273   2.799
  296TIP3    H125083   2.809   5.247   2.717
  296TIP3    H225084   2.783   5.323   2.846
  297TIP3   OH225085   2.618   1.807   3.018
  297TIP3    H125086   2.673   1.736   2.985
  297TIP3    H225087   2.614   1.792   3.113
  298TIP3   OH225088   2.689   2.092   2.948
  298TIP3    H125089   2.636   2.016   2.971
  298TIP3    H225090   2.634   2.167   2.972
  299TIP3   OH225091   2.054   1.533   2.936
  299TIP3    H125092   1.982   1.472   2.948
  299TIP3    H225093   2.116   1.486   2.879
  300TIP3   OH225094   2.188   1.392   2.738
  300TIP3    H125095   2.266   1.364   2.690
  300TIP3    H225096   2.166   1.316   2.792
  301TIP3   OH225097   2.004   1.824   2.803
  301TIP3    H125098   2.047   1.812   2.888
  301TIP3    H225099   1.957   1.906   2.811
  302TIP3   OH225100   2.362   1.820   2.877
  302TIP3    H125101   2.297   1.809   2.946
  302TIP3    H225102   2.446   1.815   2.923
  303TIP3   OH225103   5.813   6.085   2.870
  303TIP3    H125104   5.763   6.065   2.791
  303TIP3    H225105   5.877   6.150   2.841
  304TIP3   OH225106   2.806   6.440   3.052
  304TIP3    H125107   2.893   6.480   3.047
  304TIP3    H225108   2.823   6.346   3.057
  305TIP3   OH225109   2.399   6.807   3.044
  305TIP3    H125110   2.463   6.745   3.079
  305TIP3    H225111   2.378   6.773   2.957
  306TIP3   OH225112   0.848   5.518   2.937
  306TIP3    H125113   0.806   5.583   2.992
  306TIP3    H225114   0.942   5.530   2.952
  307TIP3   OH225115   0.658   5.109   2.897
  307TIP3    H125116   0.716   5.102   2.973
  307TIP3    H225117   0.624   5.020   2.884
  308TIP3   OH225118   0.620   4.842   2.851
  308TIP3    H125119   0.632   4.782   2.924
  308TIP3    H225120   0.669   4.803   2.779
  309TIP3   OH225121   3.937   7.281   2.877
  309TIP3    H125122   3.897   7.230   2.948
  309TIP3    H225123   4.018   7.234   2.856
  310TIP3   OH225124   3.510   7.217   3.107
  310TIP3    H125125   3.481   7.301   3.070
  310TIP3    H225126   3.430   7.164   3.111
  311TIP3   OH225127   1.115   2.255   2.976
  311TIP3    H125128   1.076   2.226   2.894
  311TIP3    H225129   1.180   2.188   2.997
  312TIP3   OH225130   0.728   2.597   2.960
  312TIP3    H125131   0.676   2.526   2.923
  312TIP3    H225132   0.798   2.552   3.009
  313TIP3   OH225133   7.090   2.492   2.739
  313TIP3    H125134   7.107   2.409   2.784
  313TIP3    H225135   7.025   2.537   2.793
  314TIP3   OH225136   6.858   2.486   2.907
  314TIP3    H125137   6.878   2.393   2.902
  314TIP3    H225138   6.788   2.499   2.843
  315TIP3   OH225139   6.774   2.946   3.086
  315TIP3    H125140   6.820   2.864   3.069
  315TIP3    H225141   6.779   2.958   3.181
  316TIP3   OH225142   5.457   0.233   2.967
  316TIP3    H125143   5.367   0.258   2.984
  316TIP3    H225144   5.509   0.303   3.007
  317TIP3   OH225145   5.840   0.300   3.071
  317TIP3    H125146   5.902   0.373   3.074
  317TIP3    H225147   5.754   0.341   3.075
  318TIP3   OH225148   5.984   0.536   3.066
  318TIP3    H125149   6.078   0.549   3.080
  318TIP3    H225150   5.944   0.616   3.101
  319TIP3   OH225151   6.940   1.364   2.922
  319TIP3    H125152   6.909   1.289   2.972
  319TIP3    H225153   6.935   1.337   2.830
  320TIP3   OH225154   0.301   6.765   2.838
  320TIP3    H125155   0.255   6.840   2.876
  320TIP3    H225156   0.391   6.773   2.870
  321TIP3   OH225157   7.295   0.313   2.909
  321TIP3    H125158   7.241   0.271   2.841
  321TIP3    H225159   7.383   0.315   2.871
  322TIP3   OH225160   7.033   0.464   2.768
  322TIP3    H125161   7.066   0.379   2.740
  322TIP3    H225162   7.068   0.476   2.856
  323TIP3   OH225163   1.231   0.990   7.555
  323TIP3    H125164   1.199   1.080   7.555
  323TIP3    H225165   1.163   0.941   7.508
  324TIP3   OH225166   1.142   0.983   8.067
  324TIP3    H125167   1.174   0.938   8.145
  324TIP3    H225168   1.075   0.924   8.031
  325TIP3   OH225169   0.365   0.976   8.253
  325TIP3    H125170   0.361   0.883   8.275
  325TIP3    H225171   0.394   1.019   8.334
  326TIP3   OH225172   1.454   1.301   7.871
  326TIP3    H125173   1.439   1.214   7.909
  326TIP3    H225174   1.479   1.356   7.945
  327TIP3   OH225175   0.558   1.317   7.895
  327TIP3    H125176   0.530   1.226   7.899
  327TIP3    H225177   0.650   1.315   7.924
  328TIP3   OH225178   0.185   0.755   7.427
  328TIP3    H125179   0.092   0.765   7.450
  328TIP3    H225180   0.192   0.667   7.391
  329TIP3   OH225181   0.118   0.837   7.729
  329TIP3    H125182   0.046   0.820   7.669
  329TIP3    H225183   0.189   0.871   7.674
  330TIP3   OH225184   1.217   1.731   7.938
  330TIP3    H125185   1.249   1.685   7.860
  330TIP3    H225186   1.219   1.666   8.007
  331TIP3   OH225187   1.016   1.228   8.090
  331TIP3    H125188   1.064   1.150   8.065
  331TIP3    H225189   1.067   1.266   8.162
  332TIP3   OH225190   1.802   0.330   8.139
  332TIP3    H125191   1.805   0.397   8.207
  332TIP3    H225192   1.867   0.358   8.075
  333TIP3   OH225193   1.183   0.663   8.016
  333TIP3    H125194   1.208   0.572   8.033
  333TIP3    H225195   1.219   0.682   7.930
  334TIP3   OH225196   1.429   0.438   7.670
  334TIP3    H125197   1.471   0.413   7.752
  334TIP3    H225198   1.502   0.468   7.614
  335TIP3   OH225199   0.165   0.578   7.824
  335TIP3    H125200   0.160   0.669   7.794
  335TIP3    H225201   0.161   0.526   7.744
  336TIP3   OH225202   1.813   0.497   8.357
  336TIP3    H125203   1.738   0.557   8.354
  336TIP3    H225204   1.865   0.526   8.432
  337TIP3   OH225205   0.472   0.436   8.265
  337TIP3    H125206   0.461   0.530   8.250
  337TIP3    H225207   0.384   0.405   8.287
  338TIP3   OH225208   1.158   1.253   7.525
  338TIP3    H125209   1.094   1.324   7.512
  338TIP3    H225210   1.235   1.296   7.562
  339TIP3   OH225211   0.784   1.123   8.198
  339TIP3    H125212   0.730   1.194   8.232
  339TIP3    H225213   0.862   1.167   8.164
  340TIP3   OH225214   1.515   0.395   7.929
  340TIP3    H125215   1.428   0.407   7.968
  340TIP3    H225216   1.569   0.462   7.972
  341TIP3   OH225217   0.637   1.335   8.302
  341TIP3    H125218   0.628   1.426   8.277
  341TIP3    H225219   0.552   1.310   8.338
  342TIP3   OH225220   0.136   1.216   7.365
  342TIP3    H125221   0.169   1.222   7.275
  342TIP3    H225222   0.169   1.295   7.408
  343TIP3   OH225223   1.498   1.468   8.092
  343TIP3    H125224   1.408   1.491   8.116
  343TIP3    H225225   1.537   1.551   8.063
  344TIP3   OH225226   1.563   0.185   8.217
  344TIP3    H125227   1.479   0.231   8.214
  344TIP3    H225228   1.623   0.240   8.167
  345TIP3   OH225229   0.822   0.180   7.939
  345TIP3    H125230   0.835   0.089   7.965
  345TIP3    H225231   0.754   0.212   7.998
  346TIP3   OH225232   1.297   1.617   7.683
  346TIP3    H125233   1.323   1.527   7.664
  346TIP3    H225234   1.377   1.668   7.673
  347TIP3   OH225235   1.394   1.366   7.613
  347TIP3    H125236   1.467   1.335   7.560
  347TIP3    H225237   1.418   1.340   7.703
  348TIP3   OH225238   1.653   1.215   8.443
  348TIP3    H125239   1.628   1.170   8.362
  348TIP3    H225240   1.672   1.304   8.416
  349TIP3   OH225241   1.040   0.868   7.394
  349TIP3    H125242   0.960   0.916   7.373
  349TIP3    H225243   1.095   0.879   7.317
  350TIP3   OH225244   1.221   0.907   7.196
  350TIP3    H125245   1.313   0.879   7.202
  350TIP3    H225246   1.207   0.923   7.103
  351TIP3   OH225247   1.747   0.912   8.260
  351TIP3    H125248   1.687   0.984   8.239
  351TIP3    H225249   1.806   0.907   8.185
  352TIP3   OH225250   1.495   0.984   7.489
  352TIP3    H125251   1.404   0.981   7.520
  352TIP3    H225252   1.543   0.931   7.552
  353TIP3   OH225253   1.381   0.767   8.476
  353TIP3    H125254   1.368   0.841   8.534
  353TIP3    H225255   1.328   0.787   8.399
  354TIP3   OH225256   0.505   0.933   7.636
  354TIP3    H125257   0.439   0.954   7.570
  354TIP3    H225258   0.580   0.988   7.613
  355TIP3   OH225259   0.833   1.368   7.935
  355TIP3    H125260   0.879   1.392   7.855
  355TIP3    H225261   0.899   1.324   7.988
  356TIP3   OH225262   0.704   0.932   8.016
  356TIP3    H125263   0.786   0.884   8.007
  356TIP3    H225264   0.724   1.001   8.079
  357TIP3   OH225265   1.240   1.534   8.175
  357TIP3    H125266   1.223   1.601   8.241
  357TIP3    H225267   1.208   1.453   8.214
  358TIP3   OH225268   0.767   1.345   8.547
  358TIP3    H125269   0.703   1.406   8.583
  358TIP3    H225270   0.735   1.326   8.459
  359TIP3   OH225271   1.490   0.851   7.250
  359TIP3    H125272   1.498   0.905   7.328
  359TIP3    H225273   1.575   0.861   7.205
  360TIP3   OH225274   0.436   1.002   8.526
  360TIP3    H125275   0.444   1.080   8.582
  360TIP3    H225276   0.346   0.973   8.539
  361TIP3   OH225277   1.019   1.634   7.677
  361TIP3    H125278   1.113   1.630   7.694
  361TIP3    H225279   1.002   1.726   7.655
  362TIP3   OH225280   0.561   1.532   8.574
  362TIP3    H125281   0.570   1.567   8.486
  362TIP3    H225282   0.466   1.529   8.589
  363TIP3   OH225283   1.754   0.055   7.190
  363TIP3    H125284   1.669   0.088   7.217
  363TIP3    H225285   1.748   0.048   7.095
  364TIP3   OH225286   0.312   0.997   7.445
  364TIP3    H125287   0.251   1.066   7.418
  364TIP3    H225288   0.269   0.915   7.422
  365TIP3   OH225289   0.155   1.189   8.454
  365TIP3    H125290   0.079   1.186   8.396
  365TIP3    H225291   0.155   1.105   8.499
  366TIP3   OH225292   0.180   1.371   8.026
  366TIP3    H125293   0.201   1.277   8.030
  366TIP3    H225294   0.237   1.411   8.091
  367TIP3   OH225295   1.906   1.550   8.651
  367TIP3    H125296   1.903   1.454   8.644
  367TIP3    H225297   1.817   1.574   8.676
  368TIP3   OH225298   0.961   1.541   8.483
  368TIP3    H125299   0.934   1.612   8.541
  368TIP3    H225300   0.906   1.467   8.509
  369TIP3   OH225301   1.019   1.900   7.592
  369TIP3    H125302   0.950   1.945   7.544
  369TIP3    H225303   1.071   1.971   7.631
  370TIP3   OH225304   1.208   1.760   7.447
  370TIP3    H125305   1.147   1.818   7.492
  370TIP3    H225306   1.249   1.709   7.517
  371TIP3   OH225307   1.580   0.659   8.668
  371TIP3    H125308   1.510   0.702   8.618
  371TIP3    H225309   1.574   0.567   8.642
  372TIP3   OH225310   0.397   1.304   8.433
  372TIP3    H125311   0.423   1.296   8.525
  372TIP3    H225312   0.311   1.264   8.428
  373TIP3   OH225313   0.595   0.241   8.108
  373TIP3    H125314   0.527   0.235   8.041
  373TIP3    H225315   0.563   0.310   8.167
  374TIP3   OH225316   1.060   0.148   8.310
  374TIP3    H125317   1.070   0.056   8.337
  374TIP3    H225318   0.966   0.165   8.319
  375TIP3   OH225319   1.300   0.488   8.445
  375TIP3    H125320   1.238   0.471   8.516
  375TIP3    H225321   1.323   0.580   8.455
  376TIP3   OH225322   0.553   0.714   8.101
  376TIP3    H125323   0.488   0.734   8.168
  376TIP3    H225324   0.582   0.800   8.069
  377TIP3   OH225325   1.153   0.656   7.531
  377TIP3    H125326   1.103   0.724   7.485
  377TIP3    H225327   1.230   0.642   7.477
  378TIP3   OH225328   1.019   0.730   8.710
  378TIP3    H125329   0.972   0.656   8.749
  378TIP3    H225330   1.103   0.731   8.756
  379TIP3   OH225331   1.297   0.661   7.767
  379TIP3    H125332   1.243   0.689   7.693
  379TIP3    H225333   1.337   0.580   7.738
  380TIP3   OH225334   0.412   0.713   8.341
  380TIP3    H125335   0.478   0.732   8.408
  380TIP3    H225336   0.336   0.682   8.391
  381TIP3   OH225337   1.205   0.793   8.262
  381TIP3    H125338   1.206   0.739   8.183
  381TIP3    H225339   1.140   0.750   8.319
  382TIP3   OH225340   1.260   0.404   8.026
  382TIP3    H125341   1.266   0.353   8.107
  382TIP3    H225342   1.192   0.361   7.975
  383TIP3   OH225343   1.606   1.884   8.708
  383TIP3    H125344   1.630   1.907   8.619
  383TIP3    H225345   1.676   1.921   8.763
  384TIP3   OH225346   0.416   1.220   8.697
  384TIP3    H125347   0.472   1.201   8.772
  384TIP3    H225348   0.327   1.211   8.731
  385TIP3   OH225349   0.932   0.770   8.032
  385TIP3    H125350   1.016   0.728   8.015
  385TIP3    H225351   0.891   0.715   8.099
  386TIP3   OH225352   0.782   0.635   8.229
  386TIP3    H125353   0.700   0.653   8.183
  386TIP3    H225354   0.799   0.715   8.278
  387TIP3   OH225355   0.819   1.035   7.355
  387TIP3    H125356   0.824   1.124   7.320
  387TIP3    H225357   0.785   1.046   7.444
  388TIP3   OH225358   1.598   1.130   8.189
  388TIP3    H125359   1.662   1.189   8.148
  388TIP3    H225360   1.532   1.115   8.121
  389TIP3   OH225361   1.360   0.369   7.300
  389TIP3    H125362   1.361   0.383   7.206
  389TIP3    H225363   1.363   0.457   7.338
  390TIP3   OH225364   1.018   1.205   8.530
  390TIP3    H125365   1.049   1.161   8.609
  390TIP3    H225366   0.936   1.246   8.557
  391TIP3   OH225367   1.392   0.629   7.391
  391TIP3    H125368   1.475   0.604   7.432
  391TIP3    H225369   1.416   0.700   7.332
  392TIP3   OH225370   0.487   1.047   7.889
  392TIP3    H125371   0.481   1.006   7.802
  392TIP3    H225372   0.559   1.002   7.932
  393TIP3   OH225373   0.172   0.936   8.563
  393TIP3    H125374   0.182   0.906   8.653
  393TIP3    H225375   0.106   0.877   8.525
  394TIP3   OH225376   0.815   0.913   8.689
  394TIP3    H125377   0.754   0.866   8.633
  394TIP3    H225378   0.894   0.860   8.690
  395TIP3   OH225379   1.237   1.490   8.550
  395TIP3    H125380   1.150   1.505   8.513
  395TIP3    H225381   1.223   1.484   8.644
  396TIP3   OH225382   1.806   0.657   7.321
  396TIP3    H125383   1.751   0.619   7.252
  396TIP3    H225384   1.815   0.749   7.297
  397TIP3   OH225385   1.883   1.280   8.606
  397TIP3    H125386   1.791   1.256   8.595
  397TIP3    H225387   1.923   1.259   8.522
  398TIP3   OH225388   1.670   1.483   7.336
  398TIP3    H125389   1.639   1.402   7.377
  398TIP3    H225390   1.738   1.454   7.275
  399TIP3   OH225391   1.411   1.055   7.995
  399TIP3    H125392   1.318   1.037   8.011
  399TIP3    H225393   1.444   0.973   7.957
  400TIP3   OH225394   0.652   1.363   7.635
  400TIP3    H125395   0.631   1.447   7.595
  400TIP3    H225396   0.605   1.363   7.718
  401TIP3   OH225397   0.160   0.902   7.129
  401TIP3    H125398   0.093   0.960   7.094
  401TIP3    H225399   0.115   0.819   7.143
  402TIP3   OH225400   0.724   1.103   7.604
  402TIP3    H125401   0.694   1.194   7.603
  402TIP3    H225402   0.791   1.100   7.672
  403TIP3   OH225403   0.847   1.670   8.261
  403TIP3    H125404   0.901   1.747   8.245
  403TIP3    H225405   0.896   1.620   8.327
  404TIP3   OH225406   0.586   1.612   7.531
  404TIP3    H125407   0.508   1.641   7.483
  404TIP3    H225408   0.611   1.688   7.585
  405TIP3   OH225409   1.165   1.293   8.312
  405TIP3    H125410   1.103   1.271   8.382
  405TIP3    H225411   1.250   1.265   8.345
  406TIP3   OH225412   1.469   1.612   8.463
  406TIP3    H125413   1.381   1.581   8.487
  406TIP3    H225414   1.453   1.684   8.402
  407TIP3   OH225415   0.190   0.616   8.472
  407TIP3    H125416   0.112   0.665   8.446
  407TIP3    H225417   0.186   0.535   8.420
  408TIP3   OH225418   1.587   1.238   7.440
  408TIP3    H125419   1.542   1.155   7.457
  408TIP3    H225420   1.679   1.214   7.434
  409TIP3   OH225421   0.340   1.476   8.223
  409TIP3    H125422   0.349   1.419   8.299
  409TIP3    H225423   0.417   1.533   8.227
  410TIP3   OH225424   0.827   1.303   7.297
  410TIP3    H125425   0.886   1.319   7.371
  410TIP3    H225426   0.787   1.388   7.280
  411TIP3   OH225427   1.299   0.280   8.264
  411TIP3    H125428   1.300   0.351   8.328
  411TIP3    H225429   1.220   0.229   8.284
  412TIP3   OH225430   1.248   0.273   7.535
  412TIP3    H125431   1.276   0.287   7.445
  412TIP3    H225432   1.302   0.332   7.587
  413TIP3   OH225433   0.987   1.462   7.468
  413TIP3    H125434   0.924   1.508   7.412
  413TIP3    H225435   0.993   1.516   7.547
  414TIP3   OH225436   0.984   0.481   7.666
  414TIP3    H125437   1.045   0.541   7.623
  414TIP3    H225438   1.036   0.438   7.733
  415TIP3   OH225439   1.037   0.675   8.442
  415TIP3    H125440   1.033   0.703   8.534
  415TIP3    H225441   1.038   0.579   8.447
  416TIP3   OH225442   0.968   0.250   7.516
  416TIP3    H125443   0.953   0.337   7.554
  416TIP3    H225444   1.063   0.243   7.508
  417TIP3   OH225445   0.769   1.572   7.329
  417TIP3    H125446   0.777   1.660   7.294
  417TIP3    H225447   0.704   1.580   7.400
  418TIP3   OH225448   1.543   0.414   8.559
  418TIP3    H125449   1.460   0.422   8.510
  418TIP3    H225450   1.580   0.331   8.529
  419TIP3   OH225451   1.493   0.804   7.899
  419TIP3    H125452   1.421   0.756   7.860
  419TIP3    H225453   1.535   0.741   7.958
  420TIP3   OH225454   1.607   1.715   8.040
  420TIP3    H125455   1.593   1.779   7.970
  420TIP3    H225456   1.700   1.723   8.061
  421TIP3   OH225457   0.391   0.213   7.929
  421TIP3    H125458   0.398   0.205   7.833
  421TIP3    H225459   0.351   0.130   7.956
  422TIP3   OH225460   0.239   1.446   7.495
  422TIP3    H125461   0.238   1.454   7.591
  422TIP3    H225462   0.274   1.529   7.464
  423TIP3   OH225463   0.038   1.783   8.733
  423TIP3    H125464   0.113   1.753   8.785
  423TIP3    H225465  -0.006   1.703   8.706
  424TIP3   OH225466   0.526   1.606   8.846
  424TIP3    H125467   0.592   1.564   8.901
  424TIP3    H225468   0.553   1.585   8.757
  425TIP3   OH225469   1.220   1.467   8.825
  425TIP3    H125470   1.215   1.384   8.873
  425TIP3    H225471   1.304   1.504   8.851
  426TIP3   OH225472   1.533   1.558   7.104
  426TIP3    H125473   1.549   1.553   7.198
  426TIP3    H225474   1.619   1.540   7.065
  427TIP3   OH225475   0.174   1.155   8.813
  427TIP3    H125476   0.198   1.063   8.822
  427TIP3    H225477   0.086   1.154   8.776
  428TIP3   OH225478   0.777   1.176   8.766
  428TIP3    H125479   0.769   1.223   8.684
  428TIP3    H225480   0.803   1.087   8.740
  429TIP3   OH225481   1.372   1.242   8.503
  429TIP3    H125482   1.466   1.257   8.494
  429TIP3    H225483   1.337   1.328   8.526
  430TIP3   OH225484   0.241   0.878   8.824
  430TIP3    H125485   0.308   0.809   8.828
  430TIP3    H225486   0.197   0.875   8.909
  431TIP3   OH225487   0.624   0.807   8.505
  431TIP3    H125488   0.564   0.881   8.518
  431TIP3    H225489   0.688   0.839   8.442
  432TIP3   OH225490   1.120   1.060   8.757
  432TIP3    H125491   1.201   1.021   8.723
  432TIP3    H225492   1.089   0.996   8.822
  433TIP3   OH225493   1.726   1.035   6.998
  433TIP3    H125494   1.655   1.023   6.935
  433TIP3    H225495   1.759   1.124   6.981
  434TIP3   OH225496   0.595   0.565   8.633
  434TIP3    H125497   0.638   0.503   8.573
  434TIP3    H225498   0.611   0.651   8.593
  435TIP3   OH225499   0.707   0.432   8.404
  435TIP3    H125500   0.755   0.496   8.352
  435TIP3    H225501   0.620   0.429   8.365
  436TIP3   OH225502   0.823   0.887   8.338
  436TIP3    H125503   0.913   0.889   8.370
  436TIP3    H225504   0.812   0.972   8.293
  437TIP3   OH225505   1.250   0.700   8.867
  437TIP3    H125506   1.276   0.608   8.870
  437TIP3    H225507   1.330   0.749   8.886
  438TIP3   OH225508   1.383   0.999   8.638
  438TIP3    H125509   1.361   1.082   8.594
  438TIP3    H225510   1.478   0.991   8.629
  439TIP3   OH225511   0.421   0.655   8.830
  439TIP3    H125512   0.368   0.576   8.847
  439TIP3    H225513   0.475   0.632   8.755
  440TIP3   OH225514   0.766   0.169   8.336
  440TIP3    H125515   0.761   0.254   8.380
  440TIP3    H225516   0.716   0.181   8.255
  441TIP3   OH225517   0.910   0.501   8.815
  441TIP3    H125518   0.943   0.463   8.896
  441TIP3    H225519   0.818   0.475   8.812
  442TIP3   OH225520   1.129   0.447   8.652
  442TIP3    H125521   1.044   0.457   8.695
  442TIP3    H225522   1.190   0.431   8.724
  443TIP3   OH225523   1.291   0.413   8.874
  443TIP3    H125524   1.344   0.335   8.855
  443TIP3    H225525   1.268   0.405   8.966
  444TIP3   OH225526   0.295   0.403   8.825
  444TIP3    H125527   0.263   0.339   8.762
  444TIP3    H225528   0.310   0.352   8.905
  445TIP3   OH225529   0.701   0.070   8.634
  445TIP3    H125530   0.705  -0.025   8.634
  445TIP3    H225531   0.727   0.095   8.545
  446TIP3   OH225532   0.792   0.160   8.880
  446TIP3    H125533   0.773   0.122   8.794
  446TIP3    H225534   0.744   0.243   8.880
  447TIP3   OH225535   0.798   1.840   7.258
  447TIP3    H125536   0.815   1.915   7.315
  447TIP3    H225537   0.720   1.866   7.208
  448TIP3   OH225538   0.239   1.496   7.780
  448TIP3    H125539   0.209   1.436   7.849
  448TIP3    H225540   0.322   1.530   7.812
  449TIP3   OH225541   1.863   1.752   8.133
  449TIP3    H125542   1.866   1.717   8.222
  449TIP3    H225543   1.930   1.820   8.133
  450TIP3   OH225544   1.826   1.665   8.398
  450TIP3    H125545   1.776   1.590   8.368
  450TIP3    H225546   1.876   1.633   8.473
  451TIP3   OH225547   1.694   1.275   8.873
  451TIP3    H125548   1.610   1.278   8.920
  451TIP3    H225549   1.745   1.346   8.912
  452TIP3   OH225550   1.840   1.136   7.416
  452TIP3    H125551   1.922   1.181   7.394
  452TIP3    H225552   1.864   1.075   7.486
  453TIP3   OH225553   1.878   0.935   7.601
  453TIP3    H125554   1.793   0.906   7.632
  453TIP3    H225555   1.928   0.953   7.681
  454TIP3   OH225556   1.844   1.257   8.126
  454TIP3    H125557   1.873   1.173   8.093
  454TIP3    H225558   1.907   1.320   8.093
  455TIP3   OH225559   1.653   1.463   8.329
  455TIP3    H125560   1.584   1.513   8.372
  455TIP3    H225561   1.621   1.450   8.240
  456TIP3   OH225562   1.808   0.926   7.237
  456TIP3    H125563   1.788   0.963   7.151
  456TIP3    H225564   1.801   0.999   7.298
  457TIP3   OH225565   1.643   0.567   7.118
  457TIP3    H125566   1.671   0.602   7.033
  457TIP3    H225567   1.560   0.523   7.100
  458TIP3   OH225568   1.634   0.814   7.660
  458TIP3    H125569   1.637   0.720   7.642
  458TIP3    H225570   1.593   0.820   7.747
  459TIP3   OH225571   0.255   1.099   8.036
  459TIP3    H125572   0.328   1.088   7.975
  459TIP3    H225573   0.287   1.063   8.118
  460TIP3   OH225574   1.655   0.979   8.598
  460TIP3    H125575   1.720   0.913   8.572
  460TIP3    H225576   1.672   1.053   8.540
  461TIP3   OH225577   1.834   0.742   8.596
  461TIP3    H125578   1.751   0.710   8.632
  461TIP3    H225579   1.896   0.670   8.612
  462TIP3   OH225580   1.632   0.534   7.501
  462TIP3    H125581   1.659   0.443   7.485
  462TIP3    H225582   1.693   0.586   7.448
  463TIP3   OH225583   1.624   0.617   8.060
  463TIP3    H125584   1.718   0.633   8.055
  463TIP3    H225585   1.602   0.628   8.152
  464TIP3   OH225586   1.609   0.684   8.328
  464TIP3    H125587   1.536   0.712   8.384
  464TIP3    H225588   1.658   0.764   8.311
  465TIP3   OH225589   0.108   0.580   8.739
  465TIP3    H125590   0.174   0.519   8.771
  465TIP3    H225591   0.139   0.605   8.652
  466TIP3   OH225592   1.962   0.134   8.834
  466TIP3    H125593   2.047   0.106   8.799
  466TIP3    H225594   1.928   0.194   8.767
  467TIP3   OH225595   1.704   0.269   7.451
  467TIP3    H125596   1.715   0.226   7.536
  467TIP3    H225597   1.640   0.214   7.405
  468TIP3   OH225598   0.220   0.406   8.038
  468TIP3    H125599   0.269   0.336   7.995
  468TIP3    H225600   0.195   0.465   7.966
  469TIP3   OH225601   7.637   0.657   7.984
  469TIP3    H125602   7.715   0.624   7.939
  469TIP3    H225603   7.654   0.751   7.994
  470TIP3   OH225604   1.824   0.304   8.662
  470TIP3    H125605   1.760   0.329   8.729
  470TIP3    H225606   1.771   0.266   8.592
  471TIP3   OH225607   1.522   1.759   7.635
  471TIP3    H125608   1.607   1.744   7.592
  471TIP3    H225609   1.543   1.813   7.711
  472TIP3   OH225610   0.202   0.392   8.311
  472TIP3    H125611   0.137   0.327   8.339
  472TIP3    H225612   0.191   0.396   8.215
  473TIP3   OH225613   0.290   1.552   8.623
  473TIP3    H125614   0.232   1.475   8.622
  473TIP3    H225615   0.275   1.592   8.708
  474TIP3   OH225616   0.577   1.622   8.307
  474TIP3    H125617   0.526   1.703   8.299
  474TIP3    H225618   0.667   1.648   8.289
  475TIP3   OH225619   0.893   1.750   8.652
  475TIP3    H125620   0.911   1.704   8.734
  475TIP3    H225621   0.973   1.798   8.633
  476TIP3   OH225622   1.139   1.855   8.597
  476TIP3    H125623   1.179   1.808   8.524
  476TIP3    H225624   1.209   1.860   8.663
  477TIP3   OH225625   1.664   0.177   8.472
  477TIP3    H125626   1.627   0.183   8.383
  477TIP3    H225627   1.648   0.087   8.499
  478TIP3   OH225628   0.372   1.826   8.315
  478TIP3    H125629   0.306   1.894   8.307
  478TIP3    H225630   0.336   1.764   8.379
  479TIP3   OH225631   0.583   1.953   8.191
  479TIP3    H125632   0.509   1.909   8.233
  479TIP3    H225633   0.557   2.045   8.186
  480TIP3   OH225634   1.008   1.892   8.213
  480TIP3    H125635   0.997   1.931   8.127
  480TIP3    H225636   1.009   1.966   8.273
  481TIP3   OH225637   1.212   1.757   8.343
  481TIP3    H125638   1.144   1.803   8.293
  481TIP3    H225639   1.294   1.789   8.306
  482TIP3   OH225640   1.466   1.808   8.258
  482TIP3    H125641   1.497   1.898   8.255
  482TIP3    H225642   1.506   1.766   8.182
  483TIP3   OH225643   0.472   1.574   7.909
  483TIP3    H125644   0.488   1.479   7.908
  483TIP3    H225645   0.551   1.611   7.948
  484TIP3   OH225646   0.727   1.614   8.018
  484TIP3    H125647   0.761   1.531   7.985
  484TIP3    H225648   0.774   1.629   8.100
  485TIP3   OH225649   1.069   0.292   7.865
  485TIP3    H125650   0.985   0.254   7.892
  485TIP3    H225651   1.118   0.218   7.830
  486TIP3   OH225652   1.523   0.143   7.814
  486TIP3    H125653   1.606   0.151   7.767
  486TIP3    H225654   1.519   0.222   7.869
  487TIP3   OH225655   1.773   0.191   7.708
  487TIP3    H125656   1.841   0.138   7.749
  487TIP3    H225657   1.805   0.281   7.716
  488TIP3   OH225658   0.399   0.138   7.668
  488TIP3    H125659   0.359   0.177   7.590
  488TIP3    H225660   0.367   0.048   7.668
  489TIP3   OH225661   0.193   0.091   7.284
  489TIP3    H125662   0.137   0.149   7.232
  489TIP3    H225663   0.225   0.147   7.356
  490TIP3   OH225664   0.859   0.059   7.686
  490TIP3    H125665   0.895   0.121   7.622
  490TIP3    H225666   0.840   0.112   7.763
  491TIP3   OH225667   1.250   0.106   7.759
  491TIP3    H125668   1.241   0.147   7.673
  491TIP3    H225669   1.343   0.117   7.781
  492TIP3   OH225670   1.508   0.133   7.304
  492TIP3    H125671   1.458   0.214   7.297
  492TIP3    H225672   1.442   0.063   7.299
  493TIP3   OH225673   0.376   1.717   7.386
  493TIP3    H125674   0.365   1.688   7.295
  493TIP3    H225675   0.387   1.812   7.379
  494TIP3   OH225676   0.825   0.148   7.293
  494TIP3    H125677   0.870   0.187   7.368
  494TIP3    H225678   0.751   0.206   7.276
  495TIP3   OH225679   1.046   1.714   7.226
  495TIP3    H125680   1.097   1.733   7.305
  495TIP3    H225681   0.961   1.756   7.242
  496TIP3   OH225682   1.760   1.709   7.471
  496TIP3    H125683   1.730   1.626   7.433
  496TIP3    H225684   1.728   1.776   7.409
  497TIP3   OH225685   0.192   0.198   8.670
  497TIP3    H125686   0.173   0.181   8.578
  497TIP3    H225687   0.273   0.150   8.687
  498TIP3   OH225688   0.439   0.087   8.734
  498TIP3    H125689   0.528   0.106   8.706
  498TIP3    H225690   0.427  -0.006   8.711
  499TIP3   OH225691   1.424   0.166   8.867
  499TIP3    H125692   1.378   0.089   8.834
  499TIP3    H225693   1.471   0.135   8.944
  500TIP3   OH225694   1.638   1.612   8.684
  500TIP3    H125695   1.583   1.597   8.607
  500TIP3    H225696   1.625   1.705   8.704
  501TIP3   OH225697   3.091   1.000   7.641
  501TIP3    H125698   3.050   1.055   7.709
  501TIP3    H225699   3.022   0.989   7.576
  502TIP3   OH225700   3.001   0.959   8.057
  502TIP3    H125701   3.030   0.920   8.140
  502TIP3    H225702   2.943   0.894   8.018
  503TIP3   OH225703   2.134   0.900   8.211
  503TIP3    H125704   2.123   0.806   8.227
  503TIP3    H225705   2.180   0.932   8.288
  504TIP3   OH225706   2.328   1.322   7.986
  504TIP3    H125707   2.299   1.241   7.944
  504TIP3    H225708   2.421   1.308   8.003
  505TIP3   OH225709   1.952   0.667   7.565
  505TIP3    H125710   1.945   0.761   7.582
  505TIP3    H225711   1.909   0.655   7.481
  506TIP3   OH225712   2.036   0.955   7.822
  506TIP3    H125713   2.064   0.870   7.855
  506TIP3    H225714   2.115   1.010   7.829
  507TIP3   OH225715   2.847   1.190   8.083
  507TIP3    H125716   2.897   1.111   8.061
  507TIP3    H225717   2.908   1.242   8.135
  508TIP3   OH225718   3.730   0.365   8.147
  508TIP3    H125719   3.736   0.445   8.199
  508TIP3    H225720   3.780   0.384   8.068
  509TIP3   OH225721   3.110   0.654   8.030
  509TIP3    H125722   3.113   0.562   8.057
  509TIP3    H225723   3.064   0.653   7.946
  510TIP3   OH225724   2.497   0.404   7.845
  510TIP3    H125725   2.510   0.495   7.819
  510TIP3    H225726   2.438   0.368   7.778
  511TIP3   OH225727   3.223   0.490   7.698
  511TIP3    H125728   3.261   0.463   7.781
  511TIP3    H225729   3.296   0.525   7.648
  512TIP3   OH225730   2.108   0.709   7.918
  512TIP3    H125731   2.165   0.669   7.983
  512TIP3    H225732   2.136   0.672   7.834
  513TIP3   OH225733   2.610   0.863   7.810
  513TIP3    H125734   2.691   0.836   7.853
  513TIP3    H225735   2.571   0.782   7.778
  514TIP3   OH225736   3.758   0.575   8.327
  514TIP3    H125737   3.671   0.613   8.339
  514TIP3    H225738   3.792   0.563   8.415
  515TIP3   OH225739   2.329   0.331   8.220
  515TIP3    H125740   2.301   0.392   8.151
  515TIP3    H225741   2.254   0.327   8.279
  516TIP3   OH225742   2.618   1.097   8.216
  516TIP3    H125743   2.572   1.177   8.240
  516TIP3    H225744   2.700   1.127   8.177
  517TIP3   OH225745   3.335   0.434   7.941
  517TIP3    H125746   3.270   0.414   8.007
  517TIP3    H225747   3.401   0.487   7.987
  518TIP3   OH225748   2.286   0.506   8.012
  518TIP3    H125749   2.335   0.577   8.053
  518TIP3    H225750   2.347   0.469   7.947
  519TIP3   OH225751   2.492   1.332   8.297
  519TIP3    H125752   2.504   1.426   8.287
  519TIP3    H225753   2.399   1.321   8.315
  520TIP3   OH225754   2.076   1.249   7.321
  520TIP3    H125755   2.041   1.281   7.238
  520TIP3    H225756   2.106   1.328   7.366
  521TIP3   OH225757   3.490   0.247   8.212
  521TIP3    H125758   3.447   0.211   8.135
  521TIP3    H225759   3.568   0.290   8.178
  522TIP3   OH225760   2.746   0.070   7.925
  522TIP3    H125761   2.738  -0.018   7.960
  522TIP3    H225762   2.673   0.118   7.962
  523TIP3   OH225763   3.523   1.255   8.403
  523TIP3    H125764   3.507   1.204   8.323
  523TIP3    H225765   3.520   1.346   8.374
  524TIP3   OH225766   2.967   0.930   7.378
  524TIP3    H125767   2.932   1.019   7.377
  524TIP3    H225768   3.054   0.937   7.341
  525TIP3   OH225769   2.814   0.811   7.174
  525TIP3    H125770   2.856   0.856   7.247
  525TIP3    H225771   2.873   0.738   7.154
  526TIP3   OH225772   3.656   0.952   8.289
  526TIP3    H125773   3.586   1.008   8.257
  526TIP3    H225774   3.724   0.958   8.221
  527TIP3   OH225775   3.340   0.987   7.531
  527TIP3    H125776   3.257   0.995   7.578
  527TIP3    H225777   3.393   0.929   7.585
  528TIP3   OH225778   3.275   0.749   8.475
  528TIP3    H125779   3.275   0.828   8.529
  528TIP3    H225780   3.214   0.769   8.403
  529TIP3   OH225781   2.463   1.046   7.664
  529TIP3    H125782   2.413   0.997   7.598
  529TIP3    H225783   2.518   0.980   7.706
  530TIP3   OH225784   2.619   1.303   7.958
  530TIP3    H125785   2.638   1.324   7.867
  530TIP3    H225786   2.699   1.262   7.991
  531TIP3   OH225787   2.468   0.962   8.027
  531TIP3    H125788   2.529   0.942   7.957
  531TIP3    H225789   2.520   1.010   8.091
  532TIP3   OH225790   3.219   1.481   8.208
  532TIP3    H125791   3.169   1.558   8.234
  532TIP3    H225792   3.157   1.409   8.216
  533TIP3   OH225793   2.640   1.336   8.530
  533TIP3    H125794   2.584   1.398   8.578
  533TIP3    H225795   2.594   1.321   8.448
  534TIP3   OH225796   3.240   0.892   7.293
  534TIP3    H125797   3.283   0.932   7.368
  534TIP3    H225798   3.300   0.908   7.220
  535TIP3   OH225799   2.220   0.972   8.478
  535TIP3    H125800   2.246   1.044   8.536
  535TIP3    H225801   2.125   0.967   8.488
  536TIP3   OH225802   3.029   1.467   7.681
  536TIP3    H125803   3.070   1.551   7.661
  536TIP3    H225804   2.935   1.483   7.667
  537TIP3   OH225805   2.461   1.532   8.609
  537TIP3    H125806   2.480   1.568   8.522
  537TIP3    H225807   2.366   1.529   8.613
  538TIP3   OH225808   3.557   0.174   7.304
  538TIP3    H125809   3.502   0.222   7.243
  538TIP3    H225810   3.541   0.215   7.389
  539TIP3   OH225811   2.320   0.916   7.470
  539TIP3    H125812   2.237   0.932   7.424
  539TIP3    H225813   2.359   0.843   7.423
  540TIP3   OH225814   1.986   1.209   8.363
  540TIP3    H125815   1.933   1.227   8.286
  540TIP3    H225816   1.975   1.115   8.378
  541TIP3   OH225817   2.068   1.414   8.061
  541TIP3    H125818   2.152   1.375   8.035
  541TIP3    H225819   2.090   1.471   8.134
  542TIP3   OH225820   3.754   1.513   8.613
  542TIP3    H125821   3.749   1.418   8.603
  542TIP3    H225822   3.673   1.536   8.658
  543TIP3   OH225823   2.862   1.504   8.498
  543TIP3    H125824   2.841   1.582   8.550
  543TIP3    H225825   2.787   1.446   8.511
  544TIP3   OH225826   2.210   1.631   7.678
  544TIP3    H125827   2.282   1.616   7.740
  544TIP3    H225828   2.131   1.617   7.729
  545TIP3   OH225829   3.479   0.617   8.628
  545TIP3    H125830   3.406   0.665   8.590
  545TIP3    H225831   3.483   0.536   8.577
  546TIP3   OH225832   2.235   1.324   8.394
  546TIP3    H125833   2.253   1.291   8.483
  546TIP3    H225834   2.151   1.284   8.372
  547TIP3   OH225835   2.517   0.209   8.049
  547TIP3    H125836   2.517   0.275   7.979
  547TIP3    H225837   2.454   0.243   8.112
  548TIP3   OH225838   2.872   0.150   8.460
  548TIP3    H125839   2.918   0.067   8.446
  548TIP3    H225840   2.800   0.148   8.397
  549TIP3   OH225841   3.201   0.477   8.507
  549TIP3    H125842   3.153   0.461   8.588
  549TIP3    H225843   3.211   0.572   8.503
  550TIP3   OH225844   3.436   0.922   7.082
  550TIP3    H125845   3.381   0.910   7.005
  550TIP3    H225846   3.510   0.973   7.051
  551TIP3   OH225847   2.932   0.342   7.111
  551TIP3    H125848   2.870   0.311   7.176
  551TIP3    H225849   2.951   0.265   7.057
  552TIP3   OH225850   2.414   0.713   8.128
  552TIP3    H125851   2.381   0.726   8.217
  552TIP3    H225852   2.420   0.802   8.092
  553TIP3   OH225853   2.472   0.645   7.711
  553TIP3    H125854   2.377   0.658   7.713
  553TIP3    H225855   2.489   0.608   7.625
  554TIP3   OH225856   2.954   0.686   7.509
  554TIP3    H125857   2.937   0.774   7.475
  554TIP3    H225858   3.038   0.661   7.470
  555TIP3   OH225859   3.004   0.777   8.682
  555TIP3    H125860   2.985   0.726   8.603
  555TIP3    H225861   3.052   0.716   8.739
  556TIP3   OH225862   2.991   0.619   7.782
  556TIP3    H125863   2.962   0.657   7.699
  556TIP3    H225864   3.068   0.567   7.758
  557TIP3   OH225865   2.108   0.623   8.268
  557TIP3    H125866   2.185   0.649   8.319
  557TIP3    H225867   2.093   0.532   8.292
  558TIP3   OH225868   1.882   0.440   7.734
  558TIP3    H125869   1.928   0.446   7.818
  558TIP3    H225870   1.907   0.520   7.687
  559TIP3   OH225871   2.021   0.464   7.313
  559TIP3    H125872   2.091   0.529   7.300
  559TIP3    H225873   1.942   0.517   7.328
  560TIP3   OH225874   3.087   0.785   8.273
  560TIP3    H125875   3.095   0.734   8.193
  560TIP3    H225876   3.019   0.741   8.324
  561TIP3   OH225877   2.765   0.374   7.736
  561TIP3    H125878   2.682   0.378   7.784
  561TIP3    H225879   2.832   0.364   7.803
  562TIP3   OH225880   2.196   0.601   7.685
  562TIP3    H125881   2.122   0.618   7.628
  562TIP3    H225882   2.224   0.512   7.664
  563TIP3   OH225883   2.487   0.508   7.467
  563TIP3    H125884   2.582   0.499   7.457
  563TIP3    H225885   2.462   0.576   7.405
  564TIP3   OH225886   3.106   0.391   8.098
  564TIP3    H125887   3.067   0.381   8.185
  564TIP3    H225888   3.047   0.344   8.039
  565TIP3   OH225889   2.420   0.714   7.305
  565TIP3    H125890   2.334   0.703   7.264
  565TIP3    H225891   2.466   0.775   7.248
  566TIP3   OH225892   3.497   1.870   8.722
  566TIP3    H125893   3.513   1.887   8.629
  566TIP3    H225894   3.573   1.906   8.767
  567TIP3   OH225895   2.261   1.213   8.657
  567TIP3    H125896   2.337   1.193   8.711
  567TIP3    H225897   2.186   1.197   8.714
  568TIP3   OH225898   2.821   0.762   7.958
  568TIP3    H125899   2.870   0.697   7.907
  568TIP3    H225900   2.784   0.712   8.030
  569TIP3   OH225901   2.327   0.359   7.636
  569TIP3    H125902   2.279   0.282   7.604
  569TIP3    H225903   2.376   0.391   7.560
  570TIP3   OH225904   2.681   0.642   8.166
  570TIP3    H125905   2.590   0.661   8.145
  570TIP3    H225906   2.682   0.632   8.261
  571TIP3   OH225907   2.855   1.178   7.397
  571TIP3    H125908   2.789   1.207   7.460
  571TIP3    H225909   2.887   1.258   7.356
  572TIP3   OH225910   3.481   1.122   8.168
  572TIP3    H125911   3.540   1.169   8.110
  572TIP3    H225912   3.406   1.099   8.113
  573TIP3   OH225913   3.004   0.607   7.140
  573TIP3    H125914   2.976   0.516   7.125
  573TIP3    H225915   3.063   0.602   7.214
  574TIP3   OH225916   2.845   1.173   8.432
  574TIP3    H125917   2.809   1.085   8.436
  574TIP3    H225918   2.777   1.229   8.467
  575TIP3   OH225919   3.187   0.627   7.365
  575TIP3    H125920   3.273   0.601   7.400
  575TIP3    H225921   3.202   0.716   7.331
  576TIP3   OH225922   2.278   1.079   7.867
  576TIP3    H125923   2.335   1.080   7.789
  576TIP3    H225924   2.329   1.032   7.933
  577TIP3   OH225925   1.940   0.948   8.454
  577TIP3    H125926   1.923   0.878   8.517
  577TIP3    H225927   1.881   0.929   8.381
  578TIP3   OH225928   2.790   0.947   8.702
  578TIP3    H125929   2.748   0.942   8.616
  578TIP3    H225930   2.869   0.894   8.692
  579TIP3   OH225931   3.111   1.411   8.577
  579TIP3    H125932   3.026   1.433   8.541
  579TIP3    H225933   3.098   1.413   8.672
  580TIP3   OH225934   3.645   0.587   7.336
  580TIP3    H125935   3.574   0.591   7.272
  580TIP3    H225936   3.698   0.664   7.318
  581TIP3   OH225937   3.751   1.243   8.559
  581TIP3    H125938   3.664   1.240   8.519
  581TIP3    H225939   3.810   1.216   8.489
  582TIP3   OH225940   3.632   1.391   7.311
  582TIP3    H125941   3.575   1.326   7.352
  582TIP3    H225942   3.589   1.475   7.328
  583TIP3   OH225943   3.277   1.033   8.005
  583TIP3    H125944   3.182   1.027   8.018
  583TIP3    H225945   3.301   0.950   7.965
  584TIP3   OH225946   2.574   1.461   7.700
  584TIP3    H125947   2.597   1.541   7.653
  584TIP3    H225948   2.504   1.487   7.759
  585TIP3   OH225949   2.092   0.967   7.296
  585TIP3    H125950   2.101   1.063   7.301
  585TIP3    H225951   2.000   0.952   7.278
  586TIP3   OH225952   2.621   1.235   7.544
  586TIP3    H125953   2.610   1.318   7.591
  586TIP3    H225954   2.568   1.172   7.593
  587TIP3   OH225955   2.791   1.609   8.249
  587TIP3    H125956   2.843   1.687   8.232
  587TIP3    H225957   2.837   1.565   8.320
  588TIP3   OH225958   2.591   1.726   7.608
  588TIP3    H125959   2.514   1.782   7.620
  588TIP3    H225960   2.661   1.771   7.655
  589TIP3   OH225961   3.048   1.265   8.274
  589TIP3    H125962   2.976   1.239   8.331
  589TIP3    H225963   3.126   1.227   8.315
  590TIP3   OH225964   3.302   1.595   8.518
  590TIP3    H125965   3.239   1.527   8.543
  590TIP3    H225966   3.254   1.653   8.461
  591TIP3   OH225967   3.658   1.858   7.322
  591TIP3    H125968   3.565   1.878   7.320
  591TIP3    H225969   3.696   1.930   7.373
  592TIP3   OH225970   2.102   0.362   8.377
  592TIP3    H125971   2.043   0.288   8.366
  592TIP3    H225972   2.072   0.404   8.458
  593TIP3   OH225973   3.504   1.192   7.448
  593TIP3    H125974   3.434   1.132   7.474
  593TIP3    H225975   3.581   1.137   7.441
  594TIP3   OH225976   2.175   1.574   8.266
  594TIP3    H125977   2.204   1.502   8.322
  594TIP3    H225978   2.184   1.652   8.321
  595TIP3   OH225979   2.673   1.476   7.286
  595TIP3    H125980   2.766   1.460   7.269
  595TIP3    H225981   2.667   1.570   7.300
  596TIP3   OH225982   2.997   0.376   8.353
  596TIP3    H125983   3.074   0.396   8.406
  596TIP3    H225984   2.955   0.302   8.398
  597TIP3   OH225985   3.093   0.376   7.485
  597TIP3    H125986   3.104   0.446   7.420
  597TIP3    H225987   3.130   0.412   7.565
  598TIP3   OH225988   2.759   0.488   7.482
  598TIP3    H125989   2.822   0.560   7.480
  598TIP3    H225990   2.763   0.455   7.572
  599TIP3   OH225991   2.923   0.635   8.444
  599TIP3    H125992   2.829   0.642   8.461
  599TIP3    H225993   2.935   0.547   8.410
  600TIP3   OH225994   2.888   0.205   7.555
  600TIP3    H125995   2.840   0.260   7.617
  600TIP3    H225996   2.962   0.258   7.527
  601TIP3   OH225997   2.654   1.740   7.334
  601TIP3    H125998   2.709   1.816   7.317
  601TIP3    H225999   2.640   1.741   7.429
  602TIP3   OH226000   3.456   0.405   8.446
  602TIP3    H126001   3.363   0.418   8.460
  602TIP3    H226002   3.462   0.361   8.361
  603TIP3   OH226003   3.339   0.771   7.923
  603TIP3    H126004   3.256   0.737   7.957
  603TIP3    H226005   3.405   0.722   7.972
  604TIP3   OH226006   2.159   0.703   7.226
  604TIP3    H126007   2.136   0.795   7.240
  604TIP3    H226008   2.108   0.677   7.150
  605TIP3   OH226009   3.499   1.785   8.009
  605TIP3    H126010   3.514   1.853   7.944
  605TIP3    H226011   3.586   1.763   8.042
  606TIP3   OH226012   2.152   0.178   7.869
  606TIP3    H126013   2.162   0.183   7.774
  606TIP3    H226014   2.176   0.088   7.891
  607TIP3   OH226015   2.148   1.495   7.435
  607TIP3    H126016   2.107   1.573   7.397
  607TIP3    H226017   2.185   1.526   7.518
  608TIP3   OH226018   2.043   1.783   8.736
  608TIP3    H126019   2.107   1.752   8.800
  608TIP3    H226020   2.002   1.703   8.703
  609TIP3   OH226021   2.474   1.597   8.877
  609TIP3    H126022   2.547   1.545   8.910
  609TIP3    H226023   2.473   1.579   8.783
  610TIP3   OH226024   3.107   1.437   8.852
  610TIP3    H126025   3.115   1.354   8.899
  610TIP3    H226026   3.187   1.485   8.874
  611TIP3   OH226027   2.037   1.182   8.814
  611TIP3    H126028   2.049   1.087   8.807
  611TIP3    H226029   1.968   1.201   8.751
  612TIP3   OH226030   2.709   1.203   8.765
  612TIP3    H126031   2.701   1.242   8.678
  612TIP3    H226032   2.751   1.118   8.751
  613TIP3   OH226033   3.253   1.206   8.461
  613TIP3    H126034   3.342   1.239   8.448
  613TIP3    H226035   3.207   1.279   8.503
  614TIP3   OH226036   2.142   0.924   8.798
  614TIP3    H126037   2.216   0.870   8.771
  614TIP3    H226038   2.128   0.902   8.890
  615TIP3   OH226039   2.330   0.733   8.390
  615TIP3    H126040   2.307   0.815   8.434
  615TIP3    H226041   2.414   0.708   8.428
  616TIP3   OH226042   2.547   0.900   7.152
  616TIP3    H126043   2.532   0.952   7.073
  616TIP3    H226044   2.639   0.874   7.147
  617TIP3   OH226045   3.142   0.990   8.821
  617TIP3    H126046   3.193   0.997   8.740
  617TIP3    H226047   3.074   0.925   8.802
  618TIP3   OH226048   3.652   1.055   6.945
  618TIP3    H126049   3.647   1.053   6.849
  618TIP3    H226050   3.745   1.056   6.964
  619TIP3   OH226051   2.438   0.430   8.658
  619TIP3    H126052   2.451   0.353   8.602
  619TIP3    H226053   2.489   0.499   8.615
  620TIP3   OH226054   2.534   0.339   8.404
  620TIP3    H126055   2.566   0.428   8.417
  620TIP3    H226056   2.461   0.348   8.343
  621TIP3   OH226057   2.687   0.941   8.444
  621TIP3    H126058   2.660   0.850   8.447
  621TIP3    H226059   2.651   0.975   8.362
  622TIP3   OH226060   3.146   0.615   8.864
  622TIP3    H126061   3.109   0.534   8.828
  622TIP3    H226062   3.231   0.588   8.899
  623TIP3   OH226063   3.314   0.986   8.608
  623TIP3    H126064   3.286   1.059   8.553
  623TIP3    H226065   3.409   0.987   8.603
  624TIP3   OH226066   2.346   0.725   8.761
  624TIP3    H126067   2.295   0.644   8.761
  624TIP3    H226068   2.406   0.715   8.687
  625TIP3   OH226069   2.656   0.129   8.284
  625TIP3    H126070   2.615   0.195   8.340
  625TIP3    H226071   2.631   0.152   8.195
  626TIP3   OH226072   2.781   0.477   8.728
  626TIP3    H126073   2.708   0.437   8.776
  626TIP3    H226074   2.738   0.530   8.661
  627TIP3   OH226075   3.044   0.405   8.717
  627TIP3    H126076   2.949   0.419   8.718
  627TIP3    H226077   3.055   0.313   8.743
  628TIP3   OH226078   3.259   0.338   8.957
  628TIP3    H126079   3.209   0.272   8.909
  628TIP3    H226080   3.206   0.357   9.035
  629TIP3   OH226081   2.207   0.472   8.797
  629TIP3    H126082   2.282   0.447   8.744
  629TIP3    H226083   2.203   0.405   8.866
  630TIP3   OH226084   2.701   0.129   8.709
  630TIP3    H126085   2.691   0.036   8.689
  630TIP3    H226086   2.761   0.161   8.642
  631TIP3   OH226087   2.690   0.112   8.994
  631TIP3    H126088   2.705   0.122   8.900
  631TIP3    H226089   2.672   0.201   9.025
  632TIP3   OH226090   2.780   1.968   7.260
  632TIP3    H126091   2.832   2.033   7.307
  632TIP3    H226092   2.708   2.018   7.222
  633TIP3   OH226093   1.890   1.809   7.695
  633TIP3    H126094   1.847   1.765   7.621
  633TIP3    H226095   1.914   1.737   7.754
  634TIP3   OH226096   2.002   1.615   7.862
  634TIP3    H126097   1.988   1.533   7.909
  634TIP3    H226098   2.044   1.673   7.926
  635TIP3   OH226099   3.746   1.741   8.118
  635TIP3    H126100   3.742   1.713   8.209
  635TIP3    H226101   3.840   1.753   8.101
  636TIP3   OH226102   3.694   1.658   8.382
  636TIP3    H126103   3.626   1.601   8.348
  636TIP3    H226104   3.732   1.609   8.455
  637TIP3   OH226105   3.578   1.303   8.886
  637TIP3    H126106   3.504   1.300   8.946
  637TIP3    H226107   3.630   1.378   8.916
  638TIP3   OH226108   3.734   1.033   7.444
  638TIP3    H126109   3.799   1.102   7.456
  638TIP3    H226110   3.752   0.970   7.513
  639TIP3   OH226111   3.749   0.836   7.646
  639TIP3    H126112   3.657   0.835   7.672
  639TIP3    H226113   3.794   0.873   7.723
  640TIP3   OH226114   3.701   1.235   8.048
  640TIP3    H126115   3.757   1.158   8.059
  640TIP3    H226116   3.761   1.310   8.059
  641TIP3   OH226117   3.472   1.509   8.321
  641TIP3    H126118   3.422   1.544   8.394
  641TIP3    H226119   3.407   1.498   8.251
  642TIP3   OH226120   3.782   0.810   7.279
  642TIP3    H126121   3.763   0.893   7.321
  642TIP3    H226122   3.850   0.830   7.214
  643TIP3   OH226123   3.472   0.794   7.682
  643TIP3    H126124   3.455   0.710   7.640
  643TIP3    H226125   3.425   0.790   7.765
  644TIP3   OH226126   1.930   1.006   8.069
  644TIP3    H126127   1.951   0.992   7.976
  644TIP3    H226128   2.007   0.974   8.116
  645TIP3   OH226129   3.588   0.962   8.578
  645TIP3    H126130   3.638   0.882   8.593
  645TIP3    H226131   3.614   0.991   8.491
  646TIP3   OH226132   3.729   0.725   8.611
  646TIP3    H126133   3.643   0.685   8.625
  646TIP3    H226134   3.791   0.653   8.626
  647TIP3   OH226135   3.433   0.552   7.520
  647TIP3    H126136   3.448   0.458   7.530
  647TIP3    H226137   3.504   0.582   7.463
  648TIP3   OH226138   3.509   0.611   8.069
  648TIP3    H126139   3.601   0.629   8.048
  648TIP3    H226140   3.501   0.635   8.162
  649TIP3   OH226141   3.517   0.713   8.326
  649TIP3    H126142   3.436   0.727   8.375
  649TIP3    H226143   3.554   0.801   8.317
  650TIP3   OH226144   1.997   0.504   8.605
  650TIP3    H126145   2.065   0.504   8.672
  650TIP3    H226146   1.937   0.435   8.632
  651TIP3   OH226147   3.836   0.144   8.801
  651TIP3    H126148   3.926   0.146   8.770
  651TIP3    H226149   3.789   0.204   8.743
  652TIP3   OH226150   3.466   0.278   7.547
  652TIP3    H126151   3.508   0.246   7.626
  652TIP3    H226152   3.385   0.228   7.540
  653TIP3   OH226153   2.026   0.395   7.974
  653TIP3    H126154   2.063   0.313   7.942
  653TIP3    H226155   2.102   0.448   7.997
  654TIP3   OH226156   1.890   0.675   8.088
  654TIP3    H126157   1.953   0.694   8.018
  654TIP3    H226158   1.944   0.652   8.163
  655TIP3   OH226159   3.687   0.313   8.641
  655TIP3    H126160   3.617   0.328   8.705
  655TIP3    H226161   3.645   0.268   8.568
  656TIP3   OH226162   1.979   0.200   7.393
  656TIP3    H126163   1.883   0.206   7.397
  656TIP3    H226164   2.007   0.286   7.362
  657TIP3   OH226165   1.907   0.160   8.333
  657TIP3    H126166   1.835   0.174   8.395
  657TIP3    H226167   1.879   0.204   8.253
  658TIP3   OH226168   2.191   1.499   8.644
  658TIP3    H126169   2.096   1.515   8.648
  658TIP3    H226170   2.200   1.406   8.662
  659TIP3   OH226171   2.537   1.606   8.356
  659TIP3    H126172   2.500   1.689   8.326
  659TIP3    H226173   2.626   1.604   8.320
  660TIP3   OH226174   2.827   1.722   8.662
  660TIP3    H126175   2.847   1.683   8.747
  660TIP3    H226176   2.904   1.774   8.640
  661TIP3   OH226177   3.052   1.861   8.590
  661TIP3    H126178   3.102   1.822   8.519
  661TIP3    H226179   3.117   1.875   8.660
  662TIP3   OH226180   3.610   0.136   8.436
  662TIP3    H126181   3.558   0.175   8.367
  662TIP3    H226182   3.575   0.047   8.446
  663TIP3   OH226183   2.192   1.838   8.370
  663TIP3    H126184   2.115   1.882   8.334
  663TIP3    H226185   2.206   1.881   8.455
  664TIP3   OH226186   2.455   1.854   8.277
  664TIP3    H126187   2.360   1.855   8.289
  664TIP3    H226188   2.469   1.895   8.191
  665TIP3   OH226189   2.932   1.846   8.215
  665TIP3    H126190   2.886   1.873   8.135
  665TIP3    H226191   2.923   1.921   8.274
  666TIP3   OH226192   3.155   1.750   8.347
  666TIP3    H126193   3.081   1.779   8.294
  666TIP3    H226194   3.231   1.793   8.306
  667TIP3   OH226195   3.381   1.868   8.246
  667TIP3    H126196   3.370   1.961   8.229
  667TIP3    H226197   3.415   1.832   8.164
  668TIP3   OH226198   2.191   1.730   8.034
  668TIP3    H126199   2.187   1.682   8.117
  668TIP3    H226200   2.264   1.691   7.987
  669TIP3   OH226201   2.379   1.574   7.892
  669TIP3    H126202   2.351   1.488   7.924
  669TIP3    H226203   2.457   1.594   7.943
  670TIP3   OH226204   2.598   1.563   8.052
  670TIP3    H126205   2.615   1.471   8.031
  670TIP3    H226206   2.671   1.588   8.109
  671TIP3   OH226207   2.952   0.259   7.910
  671TIP3    H126208   2.891   0.185   7.920
  671TIP3    H226209   3.029   0.221   7.866
  672TIP3   OH226210   3.400   0.136   7.964
  672TIP3    H126211   3.467   0.170   7.904
  672TIP3    H226212   3.317   0.166   7.927
  673TIP3   OH226213   3.597   0.173   7.768
  673TIP3    H126214   3.641   0.088   7.780
  673TIP3    H226215   3.668   0.234   7.751
  674TIP3   OH226216   2.163   0.141   7.592
  674TIP3    H126217   2.097   0.164   7.526
  674TIP3    H226218   2.162   0.045   7.595
  675TIP3   OH226219   2.061   7.607   7.355
  675TIP3    H126220   2.096   7.594   7.443
  675TIP3    H226221   2.018   7.693   7.359
  676TIP3   OH226222   2.793  -0.029   7.665
  676TIP3    H126223   2.830   0.042   7.613
  676TIP3    H226224   2.787   0.006   7.754
  677TIP3   OH226225   3.170   0.138   7.789
  677TIP3    H126226   3.195   0.155   7.699
  677TIP3    H226227   3.158   0.043   7.793
  678TIP3   OH226228   3.232   0.140   7.515
  678TIP3    H126229   3.175   0.210   7.484
  678TIP3    H226230   3.216   0.067   7.455
  679TIP3   OH226231   2.027   1.735   7.360
  679TIP3    H126232   1.943   1.731   7.405
  679TIP3    H226233   2.040   1.829   7.344
  680TIP3   OH226234   2.760   0.258   7.314
  680TIP3    H126235   2.803   0.212   7.386
  680TIP3    H226236   2.742   0.346   7.348
  681TIP3   OH226237   2.191   0.030   8.725
  681TIP3    H126238   2.236  -0.054   8.735
  681TIP3    H226239   2.260   0.096   8.734
  682TIP3   OH226240   2.435   0.143   8.802
  682TIP3    H126241   2.525   0.161   8.775
  682TIP3    H226242   2.432   0.048   8.814
  683TIP3   OH226243   2.160   1.789   7.108
  683TIP3    H126244   2.136   1.874   7.144
  683TIP3    H226245   2.138   1.726   7.176
  684TIP3   OH226246   3.154   0.153   8.776
  684TIP3    H126247   3.156   0.061   8.802
  684TIP3    H226248   3.220   0.160   8.707
  685TIP3   OH226249   3.505   1.596   8.704
  685TIP3    H126250   3.436   1.585   8.639
  685TIP3    H226251   3.507   1.690   8.722
  686TIP3   OH226252   4.900   1.029   7.650
  686TIP3    H126253   4.885   1.094   7.582
  686TIP3    H226254   4.870   1.071   7.731
  687TIP3   OH226255   4.781   0.890   8.106
  687TIP3    H126256   4.853   0.851   8.154
  687TIP3    H226257   4.756   0.823   8.042
  688TIP3   OH226258   4.093   0.876   8.162
  688TIP3    H126259   4.122   0.799   8.212
  688TIP3    H226260   4.171   0.904   8.114
  689TIP3   OH226261   4.144   1.322   7.963
  689TIP3    H126262   4.142   1.242   7.912
  689TIP3    H226263   4.238   1.341   7.974
  690TIP3   OH226264   3.813   0.578   7.560
  690TIP3    H126265   3.799   0.668   7.592
  690TIP3    H226266   3.758   0.572   7.482
  691TIP3   OH226267   3.917   0.926   7.850
  691TIP3    H126268   3.959   0.844   7.877
  691TIP3    H226269   3.990   0.985   7.832
  692TIP3   OH226270   4.846   1.111   7.924
  692TIP3    H126271   4.823   1.038   7.982
  692TIP3    H226272   4.800   1.187   7.961
  693TIP3   OH226273   5.633   0.376   8.147
  693TIP3    H126274   5.639   0.453   8.204
  693TIP3    H226275   5.695   0.395   8.076
  694TIP3   OH226276   5.011   0.559   8.045
  694TIP3    H126277   5.044   0.469   8.053
  694TIP3    H226278   4.965   0.559   7.961
  695TIP3   OH226279   4.381   0.421   7.806
  695TIP3    H126280   4.387   0.506   7.763
  695TIP3    H226281   4.319   0.371   7.753
  696TIP3   OH226282   5.143   0.488   7.670
  696TIP3    H126283   5.205   0.461   7.737
  696TIP3    H226284   5.197   0.534   7.605
  697TIP3   OH226285   4.019   0.670   7.919
  697TIP3    H126286   4.101   0.653   7.964
  697TIP3    H226287   4.036   0.648   7.827
  698TIP3   OH226288   4.482   0.834   7.830
  698TIP3    H126289   4.562   0.790   7.862
  698TIP3    H226290   4.439   0.769   7.775
  699TIP3   OH226291   5.636   0.571   8.338
  699TIP3    H126292   5.554   0.621   8.335
  699TIP3    H226293   5.660   0.570   8.431
  700TIP3   OH226294   4.254   0.371   8.206
  700TIP3    H126295   4.237   0.439   8.141
  700TIP3    H226296   4.181   0.375   8.267
  701TIP3   OH226297   4.905   1.167   7.392
  701TIP3    H126298   5.000   1.178   7.384
  701TIP3    H226299   4.869   1.227   7.326
  702TIP3   OH226300   4.442   1.158   8.161
  702TIP3    H126301   4.389   1.226   8.202
  702TIP3    H226302   4.521   1.203   8.132
  703TIP3   OH226303   5.323   0.425   7.875
  703TIP3    H126304   5.266   0.394   7.945
  703TIP3    H226305   5.379   0.491   7.917
  704TIP3   OH226306   4.256   0.566   8.009
  704TIP3    H126307   4.321   0.618   8.056
  704TIP3    H226308   4.306   0.520   7.942
  705TIP3   OH226309   4.318   1.369   8.289
  705TIP3    H126310   4.326   1.463   8.272
  705TIP3    H226311   4.233   1.359   8.331
  706TIP3   OH226312   3.857   1.288   7.446
  706TIP3    H126313   3.783   1.316   7.393
  706TIP3    H226314   3.858   1.349   7.520
  707TIP3   OH226315   5.287   1.444   8.126
  707TIP3    H126316   5.194   1.450   8.149
  707TIP3    H226317   5.303   1.522   8.073
  708TIP3   OH226318   5.378   0.307   8.237
  708TIP3    H126319   5.310   0.308   8.170
  708TIP3    H226320   5.458   0.330   8.189
  709TIP3   OH226321   4.641   0.085   7.971
  709TIP3    H126322   4.619  -0.003   8.003
  709TIP3    H226323   4.565   0.138   7.992
  710TIP3   OH226324   5.345   1.724   7.735
  710TIP3    H126325   5.333   1.639   7.691
  710TIP3    H226326   5.353   1.787   7.663
  711TIP3   OH226327   5.473   1.195   8.459
  711TIP3    H126328   5.436   1.150   8.383
  711TIP3    H226329   5.455   1.288   8.443
  712TIP3   OH226330   4.851   0.922   7.271
  712TIP3    H126331   4.839   1.004   7.319
  712TIP3    H226332   4.943   0.921   7.246
  713TIP3   OH226333   4.908   0.685   7.081
  713TIP3    H126334   4.982   0.742   7.059
  713TIP3    H226335   4.846   0.697   7.009
  714TIP3   OH226336   5.521   0.969   8.243
  714TIP3    H126337   5.448   1.028   8.226
  714TIP3    H226338   5.589   0.996   8.181
  715TIP3   OH226339   5.172   0.793   8.441
  715TIP3    H126340   5.146   0.872   8.488
  715TIP3    H226341   5.102   0.779   8.377
  716TIP3   OH226342   4.368   1.041   7.651
  716TIP3    H126343   4.356   1.001   7.565
  716TIP3    H226344   4.424   0.979   7.698
  717TIP3   OH226345   4.413   1.417   7.952
  717TIP3    H126346   4.429   1.382   7.864
  717TIP3    H226347   4.489   1.390   8.003
  718TIP3   OH226348   4.318   0.955   8.020
  718TIP3    H126349   4.383   0.917   7.960
  718TIP3    H226350   4.364   1.026   8.064
  719TIP3   OH226351   5.030   1.468   8.213
  719TIP3    H126352   4.992   1.531   8.274
  719TIP3    H226353   4.980   1.387   8.228
  720TIP3   OH226354   4.481   1.362   8.516
  720TIP3    H126355   4.423   1.428   8.553
  720TIP3    H226356   4.446   1.345   8.429
  721TIP3   OH226357   5.128   0.936   7.224
  721TIP3    H126358   5.137   1.015   7.277
  721TIP3    H226359   5.205   0.936   7.167
  722TIP3   OH226360   4.147   0.836   8.530
  722TIP3    H126361   4.064   0.870   8.499
  722TIP3    H226362   4.137   0.830   8.625
  723TIP3   OH226363   4.299   1.566   8.578
  723TIP3    H126364   4.313   1.603   8.491
  723TIP3    H226365   4.205   1.572   8.592
  724TIP3   OH226366   5.498   0.213   7.266
  724TIP3    H126367   5.443   0.203   7.187
  724TIP3    H226368   5.441   0.255   7.330
  725TIP3   OH226369   4.288   0.941   7.392
  725TIP3    H126370   4.229   1.016   7.399
  725TIP3    H226371   4.235   0.871   7.355
  726TIP3   OH226372   3.917   1.147   8.359
  726TIP3    H126373   3.903   1.133   8.265
  726TIP3    H226374   3.927   1.059   8.395
  727TIP3   OH226375   3.914   1.408   8.085
  727TIP3    H126376   3.997   1.374   8.050
  727TIP3    H226377   3.941   1.465   8.158
  728TIP3   OH226378   5.684   1.563   8.637
  728TIP3    H126379   5.683   1.469   8.622
  728TIP3    H226380   5.595   1.584   8.667
  729TIP3   OH226381   4.738   1.458   8.552
  729TIP3    H126382   4.718   1.547   8.579
  729TIP3    H226383   4.654   1.421   8.525
  730TIP3   OH226384   5.089   1.936   7.203
  730TIP3    H126385   5.125   1.971   7.284
  730TIP3    H226386   4.998   1.918   7.223
  731TIP3   OH226387   5.312   0.655   8.642
  731TIP3    H126388   5.266   0.710   8.579
  731TIP3    H226389   5.323   0.571   8.598
  732TIP3   OH226390   4.083   1.354   8.428
  732TIP3    H126391   4.100   1.335   8.521
  732TIP3    H226392   4.025   1.283   8.400
  733TIP3   OH226393   4.401   0.222   8.019
  733TIP3    H126394   4.396   0.280   7.943
  733TIP3    H226395   4.349   0.266   8.087
  734TIP3   OH226396   4.760   0.145   8.353
  734TIP3    H126397   4.788   0.061   8.389
  734TIP3    H226398   4.665   0.147   8.367
  735TIP3   OH226399   5.050   0.439   8.464
  735TIP3    H126400   4.994   0.418   8.539
  735TIP3    H226401   5.023   0.527   8.439
  736TIP3   OH226402   4.622   0.540   7.179
  736TIP3    H126403   4.624   0.460   7.232
  736TIP3    H226404   4.567   0.517   7.104
  737TIP3   OH226405   4.419   0.689   8.194
  737TIP3    H126406   4.339   0.684   8.247
  737TIP3    H226407   4.451   0.778   8.208
  738TIP3   OH226408   4.342   0.656   7.670
  738TIP3    H126409   4.246   0.655   7.673
  738TIP3    H226410   4.364   0.647   7.578
  739TIP3   OH226411   4.862   0.767   7.572
  739TIP3    H126412   4.865   0.858   7.601
  739TIP3    H226413   4.936   0.760   7.510
  740TIP3   OH226414   4.807   0.711   8.670
  740TIP3    H126415   4.751   0.650   8.719
  740TIP3    H226416   4.894   0.698   8.706
  741TIP3   OH226417   4.916   0.599   7.784
  741TIP3    H126418   4.892   0.661   7.716
  741TIP3    H226419   4.992   0.553   7.748
  742TIP3   OH226420   4.178   0.660   8.324
  742TIP3    H126421   4.167   0.713   8.403
  742TIP3    H226422   4.129   0.580   8.342
  743TIP3   OH226423   4.454   0.464   6.975
  743TIP3    H126424   4.372   0.435   6.935
  743TIP3    H226425   4.523   0.418   6.927
  744TIP3   OH226426   3.808   0.335   7.701
  744TIP3    H126427   3.838   0.365   7.787
  744TIP3    H226428   3.802   0.414   7.649
  745TIP3   OH226429   4.966   0.722   8.262
  745TIP3    H126430   4.986   0.665   8.188
  745TIP3    H226431   4.897   0.676   8.310
  746TIP3   OH226432   4.650   0.418   7.719
  746TIP3    H126433   4.566   0.411   7.765
  746TIP3    H226434   4.716   0.396   7.785
  747TIP3   OH226435   4.073   0.578   7.668
  747TIP3    H126436   3.991   0.580   7.619
  747TIP3    H226437   4.111   0.493   7.648
  748TIP3   OH226438   4.390   0.601   7.404
  748TIP3    H126439   4.485   0.608   7.413
  748TIP3    H226440   4.372   0.624   7.313
  749TIP3   OH226441   5.154   0.309   8.055
  749TIP3    H126442   5.100   0.282   8.130
  749TIP3    H226443   5.124   0.253   7.983
  750TIP3   OH226444   4.319   0.643   7.138
  750TIP3    H126445   4.227   0.643   7.112
  750TIP3    H226446   4.361   0.582   7.077
  751TIP3   OH226447   5.377   1.899   8.713
  751TIP3    H126448   5.398   1.917   8.621
  751TIP3    H226449   5.449   1.937   8.762
  752TIP3   OH226450   4.109   1.294   8.701
  752TIP3    H126451   4.185   1.253   8.743
  752TIP3    H226452   4.033   1.250   8.740
  753TIP3   OH226453   4.698   0.681   7.938
  753TIP3    H126454   4.768   0.645   7.882
  753TIP3    H226455   4.688   0.616   8.008
  754TIP3   OH226456   4.196   0.335   7.619
  754TIP3    H126457   4.138   0.260   7.626
  754TIP3    H226458   4.240   0.325   7.534
  755TIP3   OH226459   4.653   0.551   8.182
  755TIP3    H126460   4.575   0.607   8.187
  755TIP3    H226461   4.702   0.571   8.262
  756TIP3   OH226462   5.322   1.158   8.227
  756TIP3    H126463   5.350   1.232   8.173
  756TIP3    H226464   5.253   1.194   8.282
  757TIP3   OH226465   4.936   0.520   7.303
  757TIP3    H126466   4.922   0.546   7.212
  757TIP3    H226467   4.983   0.593   7.343
  758TIP3   OH226468   4.823   1.188   8.549
  758TIP3    H126469   4.848   1.150   8.633
  758TIP3    H226470   4.795   1.277   8.571
  759TIP3   OH226471   5.077   0.731   7.403
  759TIP3    H126472   5.160   0.689   7.426
  759TIP3    H226473   5.102   0.801   7.342
  760TIP3   OH226474   4.155   1.072   7.831
  760TIP3    H126475   4.214   1.077   7.755
  760TIP3    H226476   4.207   1.030   7.899
  761TIP3   OH226477   3.882   0.888   8.452
  761TIP3    H126478   3.845   0.834   8.521
  761TIP3    H226479   3.813   0.893   8.386
  762TIP3   OH226480   4.626   0.926   8.670
  762TIP3    H126481   4.557   0.895   8.610
  762TIP3    H226482   4.700   0.869   8.652
  763TIP3   OH226483   5.017   1.456   8.557
  763TIP3    H126484   4.924   1.458   8.534
  763TIP3    H226485   5.019   1.462   8.652
  764TIP3   OH226486   5.673   0.715   7.280
  764TIP3    H126487   5.664   0.623   7.256
  764TIP3    H226488   5.583   0.745   7.291
  765TIP3   OH226489   5.698   1.292   8.580
  765TIP3    H126490   5.610   1.261   8.561
  765TIP3    H226491   5.752   1.261   8.507
  766TIP3   OH226492   4.455   1.320   7.705
  766TIP3    H126493   4.483   1.378   7.634
  766TIP3    H226494   4.432   1.238   7.661
  767TIP3   OH226495   4.581   1.606   8.207
  767TIP3    H126496   4.658   1.663   8.203
  767TIP3    H226497   4.614   1.519   8.182
  768TIP3   OH226498   4.901   1.230   8.288
  768TIP3    H126499   4.857   1.205   8.369
  768TIP3    H226500   4.830   1.248   8.226
  769TIP3   OH226501   5.234   1.607   8.479
  769TIP3    H126502   5.151   1.564   8.500
  769TIP3    H226503   5.214   1.663   8.404
  770TIP3   OH226504   5.598   1.702   7.281
  770TIP3    H126505   5.527   1.766   7.287
  770TIP3    H226506   5.555   1.620   7.259
  771TIP3   OH226507   4.042   0.412   8.380
  771TIP3    H126508   3.997   0.449   8.456
  771TIP3    H226509   3.991   0.334   8.358
  772TIP3   OH226510   4.009   1.586   8.287
  772TIP3    H126511   4.038   1.517   8.348
  772TIP3    H226512   4.007   1.665   8.340
  773TIP3   OH226513   4.096   1.140   7.391
  773TIP3    H126514   4.023   1.197   7.414
  773TIP3    H226515   4.137   1.182   7.316
  774TIP3   OH226516   4.998   0.251   8.266
  774TIP3    H126517   5.020   0.309   8.339
  774TIP3    H226518   4.913   0.214   8.288
  775TIP3   OH226519   4.981   0.335   7.500
  775TIP3    H126520   4.962   0.392   7.425
  775TIP3    H226521   5.030   0.391   7.560
  776TIP3   OH226522   4.657   0.592   7.504
  776TIP3    H126523   4.725   0.658   7.522
  776TIP3    H226524   4.653   0.539   7.584
  777TIP3   OH226525   4.787   0.583   8.425
  777TIP3    H126526   4.786   0.642   8.501
  777TIP3    H226527   4.788   0.495   8.463
  778TIP3   OH226528   4.753   0.206   7.572
  778TIP3    H126529   4.715   0.275   7.627
  778TIP3    H226530   4.838   0.241   7.545
  779TIP3   OH226531   4.322   0.335   7.377
  779TIP3    H126532   4.329   0.430   7.380
  779TIP3    H226533   4.411   0.304   7.359
  780TIP3   OH226534   5.323   0.437   8.480
  780TIP3    H126535   5.228   0.425   8.476
  780TIP3    H226536   5.355   0.401   8.397
  781TIP3   OH226537   5.200   0.745   7.965
  781TIP3    H126538   5.129   0.686   7.992
  781TIP3    H226539   5.280   0.697   7.985
  782TIP3   OH226540   4.248   1.202   7.166
  782TIP3    H126541   4.342   1.190   7.181
  782TIP3    H226542   4.223   1.127   7.112
  783TIP3   OH226543   4.055   0.619   7.057
  783TIP3    H126544   4.017   0.707   7.065
  783TIP3    H226545   4.047   0.598   6.964
  784TIP3   OH226546   5.349   1.701   8.011
  784TIP3    H126547   5.346   1.708   7.916
  784TIP3    H226548   5.440   1.715   8.034
  785TIP3   OH226549   4.088   0.202   7.925
  785TIP3    H126550   4.082   0.191   7.831
  785TIP3    H226551   4.076   0.114   7.961
  786TIP3   OH226552   3.799   1.500   7.609
  786TIP3    H126553   3.826   1.523   7.698
  786TIP3    H226554   3.825   1.575   7.556
  787TIP3   OH226555   3.977   1.814   8.749
  787TIP3    H126556   4.032   1.806   8.827
  787TIP3    H226557   3.985   1.729   8.705
  788TIP3   OH226558   4.355   1.591   8.851
  788TIP3    H126559   4.433   1.538   8.871
  788TIP3    H226560   4.346   1.583   8.756
  789TIP3   OH226561   5.018   1.475   8.832
  789TIP3    H126562   5.019   1.393   8.880
  789TIP3    H226563   5.097   1.521   8.859
  790TIP3   OH226564   3.872   1.197   8.804
  790TIP3    H126565   3.819   1.126   8.842
  790TIP3    H226566   3.826   1.220   8.723
  791TIP3   OH226567   4.558   1.196   8.726
  791TIP3    H126568   4.543   1.244   8.644
  791TIP3    H226569   4.596   1.113   8.699
  792TIP3   OH226570   5.135   1.233   8.428
  792TIP3    H126571   5.113   1.312   8.478
  792TIP3    H226572   5.058   1.217   8.374
  793TIP3   OH226573   4.116   0.800   8.802
  793TIP3    H126574   4.193   0.751   8.831
  793TIP3    H226575   4.087   0.847   8.879
  794TIP3   OH226576   4.497   0.835   7.220
  794TIP3    H126577   4.449   0.894   7.278
  794TIP3    H226578   4.430   0.781   7.180
  795TIP3   OH226579   4.433   0.825   8.494
  795TIP3    H126580   4.340   0.850   8.498
  795TIP3    H226581   4.466   0.868   8.415
  796TIP3   OH226582   4.944   1.064   8.775
  796TIP3    H126583   5.016   1.040   8.717
  796TIP3    H226584   4.925   0.985   8.825
  797TIP3   OH226585   4.448   0.562   8.577
  797TIP3    H126586   4.460   0.507   8.500
  797TIP3    H226587   4.448   0.652   8.543
  798TIP3   OH226588   4.486   0.402   8.350
  798TIP3    H126589   4.553   0.432   8.288
  798TIP3    H226590   4.405   0.400   8.299
  799TIP3   OH226591   4.544   0.925   8.258
  799TIP3    H126592   4.630   0.922   8.217
  799TIP3    H226593   4.508   1.010   8.234
  800TIP3   OH226594   5.054   0.647   8.794
  800TIP3    H126595   5.052   0.557   8.827
  800TIP3    H226596   5.141   0.656   8.756
  801TIP3   OH226597   5.170   1.025   8.614
  801TIP3    H126598   5.157   1.098   8.554
  801TIP3    H226599   5.265   1.012   8.617
  802TIP3   OH226600   4.298   0.574   8.807
  802TIP3    H126601   4.217   0.524   8.793
  802TIP3    H226602   4.341   0.573   8.722
  803TIP3   OH226603   4.474   0.137   8.412
  803TIP3    H126604   4.489   0.231   8.402
  803TIP3    H226605   4.382   0.124   8.387
  804TIP3   OH226606   4.640   0.509   8.770
  804TIP3    H126607   4.598   0.469   8.845
  804TIP3    H226608   4.570   0.523   8.706
  805TIP3   OH226609   4.875   0.405   8.670
  805TIP3    H126610   4.790   0.429   8.708
  805TIP3    H226611   4.930   0.385   8.746
  806TIP3   OH226612   5.048   0.382   8.889
  806TIP3    H126613   5.096   0.300   8.874
  806TIP3    H226614   5.035   0.385   8.983
  807TIP3   OH226615   4.073   0.406   8.787
  807TIP3    H126616   4.081   0.323   8.740
  807TIP3    H226617   4.071   0.381   8.879
  808TIP3   OH226618   4.518   0.075   8.689
  808TIP3    H126619   4.512  -0.020   8.687
  808TIP3    H226620   4.511   0.101   8.597
  809TIP3   OH226621   4.616   0.167   8.929
  809TIP3    H126622   4.604   0.132   8.840
  809TIP3    H226623   4.555   0.240   8.934
  810TIP3   OH226624   3.862   1.570   7.864
  810TIP3    H126625   3.868   1.502   7.932
  810TIP3    H226626   3.884   1.651   7.910
  811TIP3   OH226627   5.596   1.758   8.129
  811TIP3    H126628   5.586   1.730   8.220
  811TIP3    H226629   5.657   1.831   8.133
  812TIP3   OH226630   5.575   1.666   8.388
  812TIP3    H126631   5.527   1.585   8.376
  812TIP3    H226632   5.634   1.649   8.461
  813TIP3   OH226633   5.477   1.310   8.871
  813TIP3    H126634   5.398   1.310   8.925
  813TIP3    H226635   5.529   1.383   8.905
  814TIP3   OH226636   5.549   1.258   8.066
  814TIP3    H126637   5.623   1.198   8.076
  814TIP3    H226638   5.587   1.346   8.070
  815TIP3   OH226639   5.419   1.445   8.364
  815TIP3    H126640   5.349   1.491   8.411
  815TIP3    H226641   5.386   1.436   8.275
  816TIP3   OH226642   5.423   0.820   7.343
  816TIP3    H126643   5.401   0.859   7.258
  816TIP3    H226644   5.404   0.889   7.406
  817TIP3   OH226645   3.861   1.006   8.109
  817TIP3    H126646   3.855   0.985   8.016
  817TIP3    H226647   3.943   0.965   8.137
  818TIP3   OH226648   5.443   0.985   8.631
  818TIP3    H126649   5.495   0.909   8.605
  818TIP3    H226650   5.467   1.053   8.568
  819TIP3   OH226651   5.581   0.744   8.599
  819TIP3    H126652   5.496   0.706   8.620
  819TIP3    H226653   5.645   0.677   8.624
  820TIP3   OH226654   5.305   0.593   7.469
  820TIP3    H126655   5.341   0.505   7.460
  820TIP3    H226656   5.369   0.649   7.426
  821TIP3   OH226657   5.439   0.625   8.038
  821TIP3    H126658   5.527   0.657   8.020
  821TIP3    H226659   5.426   0.641   8.131
  822TIP3   OH226660   5.407   0.723   8.299
  822TIP3    H126661   5.325   0.739   8.345
  822TIP3    H226662   5.442   0.810   8.280
  823TIP3   OH226663   3.885   0.495   8.598
  823TIP3    H126664   3.949   0.479   8.668
  823TIP3    H226665   3.816   0.430   8.613
  824TIP3   OH226666   5.719   0.146   8.806
  824TIP3    H126667   5.809   0.149   8.776
  824TIP3    H226668   5.672   0.206   8.748
  825TIP3   OH226669   5.367   0.317   7.485
  825TIP3    H126670   5.439   0.293   7.543
  825TIP3    H226671   5.292   0.266   7.516
  826TIP3   OH226672   3.911   0.410   7.944
  826TIP3    H126673   3.983   0.348   7.951
  826TIP3    H226674   3.952   0.496   7.944
  827TIP3   OH226675   3.776   0.678   8.065
  827TIP3    H126676   3.860   0.688   8.019
  827TIP3    H226677   3.800   0.659   8.155
  828TIP3   OH226678   5.571   0.313   8.645
  828TIP3    H126679   5.498   0.331   8.704
  828TIP3    H226680   5.532   0.264   8.573
  829TIP3   OH226681   5.659   0.443   7.210
  829TIP3    H126682   5.601   0.367   7.213
  829TIP3    H226683   5.667   0.464   7.117
  830TIP3   OH226684   3.856   0.207   8.332
  830TIP3    H126685   3.781   0.193   8.390
  830TIP3    H226686   3.819   0.254   8.257
  831TIP3   OH226687   4.023   1.559   8.650
  831TIP3    H126688   3.930   1.544   8.632
  831TIP3    H226689   4.055   1.475   8.682
  832TIP3   OH226690   4.340   1.654   8.319
  832TIP3    H126691   4.315   1.742   8.289
  832TIP3    H226692   4.427   1.640   8.282
  833TIP3   OH226693   4.684   1.713   8.656
  833TIP3    H126694   4.704   1.679   8.743
  833TIP3    H226695   4.761   1.765   8.632
  834TIP3   OH226696   4.911   1.849   8.589
  834TIP3    H126697   4.953   1.797   8.522
  834TIP3    H226698   4.980   1.869   8.652
  835TIP3   OH226699   5.483   0.150   8.439
  835TIP3    H126700   5.432   0.197   8.373
  835TIP3    H226701   5.451   0.060   8.434
  836TIP3   OH226702   4.009   1.871   8.364
  836TIP3    H126703   3.931   1.913   8.329
  836TIP3    H226704   4.028   1.918   8.444
  837TIP3   OH226705   4.261   1.919   8.258
  837TIP3    H126706   4.173   1.891   8.284
  837TIP3    H226707   4.249   2.009   8.226
  838TIP3   OH226708   4.758   1.827   8.178
  838TIP3    H126709   4.709   1.874   8.111
  838TIP3    H226710   4.754   1.884   8.255
  839TIP3   OH226711   4.962   1.714   8.342
  839TIP3    H126712   4.893   1.748   8.285
  839TIP3    H226713   5.044   1.737   8.297
  840TIP3   OH226714   5.213   1.766   8.246
  840TIP3    H126715   5.230   1.860   8.252
  840TIP3    H226716   5.252   1.740   8.163
  841TIP3   OH226717   4.019   1.726   8.050
  841TIP3    H126718   4.025   1.682   8.135
  841TIP3    H226719   4.093   1.691   8.000
  842TIP3   OH226720   4.215   1.604   7.902
  842TIP3    H126721   4.155   1.535   7.872
  842TIP3    H226722   4.295   1.557   7.926
  843TIP3   OH226723   4.821   0.294   7.892
  843TIP3    H126724   4.776   0.226   7.943
  843TIP3    H226725   4.907   0.255   7.872
  844TIP3   OH226726   5.387   0.151   7.818
  844TIP3    H126727   5.458   0.158   7.755
  844TIP3    H226728   5.365   0.242   7.839
  845TIP3   OH226729   5.579   0.222   7.630
  845TIP3    H126730   5.644   0.183   7.571
  845TIP3    H226731   5.624   0.297   7.668
  846TIP3   OH226732   4.012   0.142   7.663
  846TIP3    H126733   3.927   0.187   7.663
  846TIP3    H226734   3.990   0.049   7.659
  847TIP3   OH226735   4.776  -0.008   7.747
  847TIP3    H126736   4.772   0.055   7.676
  847TIP3    H226737   4.735   0.037   7.821
  848TIP3   OH226738   5.066   0.167   7.835
  848TIP3    H126739   5.115   0.174   7.754
  848TIP3    H226740   5.050   0.074   7.846
  849TIP3   OH226741   5.164   0.142   7.565
  849TIP3    H126742   5.090   0.191   7.529
  849TIP3    H226743   5.161   0.058   7.521
  850TIP3   OH226744   3.858   1.718   7.454
  850TIP3    H126745   3.786   1.761   7.407
  850TIP3    H226746   3.899   1.789   7.503
  851TIP3   OH226747   4.607   0.344   7.375
  851TIP3    H126748   4.652   0.275   7.424
  851TIP3    H226749   4.632   0.425   7.420
  852TIP3   OH226750   4.090   0.144   8.691
  852TIP3    H126751   4.094   0.064   8.639
  852TIP3    H226752   4.162   0.136   8.753
  853TIP3   OH226753   4.299   0.109   8.864
  853TIP3    H126754   4.384   0.124   8.823
  853TIP3    H226755   4.279   0.017   8.846
  854TIP3   OH226756   4.037   1.651   7.254
  854TIP3    H126757   3.974   1.668   7.324
  854TIP3    H226758   4.122   1.675   7.293
  855TIP3   OH226759   5.191   0.146   8.889
  855TIP3    H126760   5.159   0.065   8.849
  855TIP3    H226761   5.234   0.117   8.970
  856TIP3   OH226762   5.419   1.628   8.686
  856TIP3    H126763   5.356   1.608   8.617
  856TIP3    H226764   5.403   1.720   8.707
  857TIP3   OH226765   6.855   0.927   7.599
  857TIP3    H126766   6.831   1.017   7.619
  857TIP3    H226767   6.796   0.902   7.527
  858TIP3   OH226768   6.894   0.932   8.098
  858TIP3    H126769   6.877   0.849   8.142
  858TIP3    H226770   6.854   0.998   8.155
  859TIP3   OH226771   5.919   0.855   8.155
  859TIP3    H126772   5.947   0.786   8.216
  859TIP3    H226773   5.999   0.881   8.110
  860TIP3   OH226774   7.190   1.277   7.888
  860TIP3    H126775   7.159   1.190   7.913
  860TIP3    H226776   7.196   1.325   7.971
  861TIP3   OH226777   6.225   1.369   7.808
  861TIP3    H126778   6.174   1.289   7.821
  861TIP3    H226779   6.311   1.349   7.845
  862TIP3   OH226780   5.786   0.850   7.487
  862TIP3    H126781   5.725   0.920   7.509
  862TIP3    H226782   5.751   0.810   7.408
  863TIP3   OH226783   5.836   1.015   7.850
  863TIP3    H126784   5.862   0.924   7.838
  863TIP3    H226785   5.912   1.067   7.824
  864TIP3   OH226786   6.794   1.813   7.791
  864TIP3    H126787   6.842   1.731   7.778
  864TIP3    H226788   6.715   1.803   7.737
  865TIP3   OH226789   6.617   1.169   8.054
  865TIP3    H126790   6.661   1.113   7.990
  865TIP3    H226791   6.672   1.163   8.132
  866TIP3   OH226792   7.557   0.304   8.178
  866TIP3    H126793   7.519   0.372   8.233
  866TIP3    H226794   7.559   0.342   8.090
  867TIP3   OH226795   6.191   0.346   7.832
  867TIP3    H126796   6.218   0.344   7.740
  867TIP3    H226797   6.110   0.295   7.834
  868TIP3   OH226798   5.912   0.743   7.838
  868TIP3    H126799   5.973   0.690   7.888
  868TIP3    H226800   5.907   0.701   7.752
  869TIP3   OH226801   6.276   0.771   7.821
  869TIP3    H126802   6.357   0.724   7.843
  869TIP3    H226803   6.230   0.711   7.762
  870TIP3   OH226804   7.436   0.471   8.352
  870TIP3    H126805   7.409   0.558   8.322
  870TIP3    H226806   7.362   0.438   8.403
  871TIP3   OH226807   6.101   0.380   8.208
  871TIP3    H126808   6.065   0.442   8.144
  871TIP3    H226809   6.037   0.377   8.278
  872TIP3   OH226810   6.792   1.191   7.621
  872TIP3    H126811   6.792   1.247   7.543
  872TIP3    H226812   6.757   1.247   7.691
  873TIP3   OH226813   6.353   1.118   8.139
  873TIP3    H126814   6.317   1.196   8.182
  873TIP3    H226815   6.437   1.147   8.104
  874TIP3   OH226816   6.080   0.557   7.976
  874TIP3    H126817   6.145   0.603   8.028
  874TIP3    H226818   6.131   0.499   7.919
  875TIP3   OH226819   6.257   1.334   8.297
  875TIP3    H126820   6.277   1.428   8.296
  875TIP3    H226821   6.164   1.330   8.320
  876TIP3   OH226822   5.826   1.346   7.407
  876TIP3    H126823   5.736   1.376   7.393
  876TIP3    H226824   5.864   1.410   7.466
  877TIP3   OH226825   7.202   1.456   8.109
  877TIP3    H126826   7.111   1.474   8.133
  877TIP3    H226827   7.234   1.538   8.071
  878TIP3   OH226828   7.360   0.116   8.144
  878TIP3    H126829   7.309   0.134   8.066
  878TIP3    H226830   7.429   0.182   8.144
  879TIP3   OH226831   6.497   0.098   7.906
  879TIP3    H126832   6.482   0.004   7.921
  879TIP3    H226833   6.431   0.141   7.961
  880TIP3   OH226834   6.920   1.583   7.701
  880TIP3    H126835   7.000   1.529   7.704
  880TIP3    H226836   6.921   1.622   7.614
  881TIP3   OH226837   7.161   1.444   7.669
  881TIP3    H126838   7.183   1.385   7.597
  881TIP3    H226839   7.174   1.392   7.748
  882TIP3   OH226840   7.265   1.152   8.384
  882TIP3    H126841   7.288   1.116   8.298
  882TIP3    H226842   7.290   1.244   8.380
  883TIP3   OH226843   7.545   0.907   8.203
  883TIP3    H126844   7.471   0.960   8.172
  883TIP3    H226845   7.607   0.907   8.130
  884TIP3   OH226846   7.104   1.019   7.490
  884TIP3    H126847   7.016   1.003   7.524
  884TIP3    H226848   7.157   0.947   7.526
  885TIP3   OH226849   6.997   0.721   8.477
  885TIP3    H126850   6.987   0.804   8.524
  885TIP3    H226851   6.950   0.735   8.394
  886TIP3   OH226852   6.248   0.994   7.647
  886TIP3    H126853   6.179   0.981   7.582
  886TIP3    H226854   6.258   0.909   7.689
  887TIP3   OH226855   6.487   1.367   7.907
  887TIP3    H126856   6.550   1.391   7.839
  887TIP3    H226857   6.533   1.301   7.960
  888TIP3   OH226858   6.175   0.929   8.034
  888TIP3    H126859   6.218   0.885   7.960
  888TIP3    H226860   6.240   0.992   8.065
  889TIP3   OH226861   6.950   1.514   8.201
  889TIP3    H126862   6.934   1.592   8.254
  889TIP3    H226863   6.863   1.481   8.179
  890TIP3   OH226864   6.412   1.306   8.531
  890TIP3    H126865   6.355   1.369   8.574
  890TIP3    H226866   6.370   1.290   8.446
  891TIP3   OH226867   5.991   0.873   8.511
  891TIP3    H126868   5.999   0.925   8.591
  891TIP3    H226869   5.903   0.891   8.479
  892TIP3   OH226870   6.687   1.433   7.729
  892TIP3    H126871   6.766   1.485   7.739
  892TIP3    H226872   6.671   1.430   7.635
  893TIP3   OH226873   6.233   1.504   8.597
  893TIP3    H126874   6.252   1.549   8.514
  893TIP3    H226875   6.138   1.502   8.603
  894TIP3   OH226876   7.333   0.069   7.044
  894TIP3    H126877   7.254   0.123   7.051
  894TIP3    H226878   7.404   0.127   7.072
  895TIP3   OH226879   6.036   0.967   7.474
  895TIP3    H126880   6.016   1.032   7.407
  895TIP3    H226881   5.952   0.926   7.494
  896TIP3   OH226882   5.818   1.170   8.360
  896TIP3    H126883   5.797   1.162   8.267
  896TIP3    H226884   5.797   1.085   8.397
  897TIP3   OH226885   5.693   1.500   8.087
  897TIP3    H126886   5.768   1.514   8.145
  897TIP3    H226887   5.646   1.583   8.088
  898TIP3   OH226888   7.574   1.560   8.655
  898TIP3    H126889   7.580   1.469   8.624
  898TIP3    H226890   7.483   1.568   8.684
  899TIP3   OH226891   6.627   1.486   8.504
  899TIP3    H126892   6.603   1.561   8.558
  899TIP3    H226893   6.557   1.422   8.520
  900TIP3   OH226894   6.923   1.709   7.458
  900TIP3    H126895   6.850   1.695   7.399
  900TIP3    H226896   6.948   1.801   7.444
  901TIP3   OH226897   6.125   1.683   7.658
  901TIP3    H126898   6.134   1.659   7.750
  901TIP3    H226899   6.057   1.624   7.625
  902TIP3   OH226900   6.997   1.963   7.137
  902TIP3    H126901   7.014   2.005   7.052
  902TIP3    H226902   7.048   1.882   7.134
  903TIP3   OH226903   7.145   1.699   7.283
  903TIP3    H126904   7.071   1.672   7.338
  903TIP3    H226905   7.166   1.621   7.232
  904TIP3   OH226906   7.211   0.612   8.617
  904TIP3    H126907   7.136   0.651   8.572
  904TIP3    H226908   7.217   0.524   8.581
  905TIP3   OH226909   5.996   1.380   8.394
  905TIP3    H126910   5.983   1.404   8.485
  905TIP3    H226911   5.939   1.304   8.380
  906TIP3   OH226912   6.264   0.214   8.058
  906TIP3    H126913   6.256   0.258   7.974
  906TIP3    H226914   6.205   0.261   8.116
  907TIP3   OH226915   6.702   0.206   8.255
  907TIP3    H126916   6.728   0.123   8.294
  907TIP3    H226917   6.607   0.202   8.251
  908TIP3   OH226918   6.946   0.449   8.456
  908TIP3    H126919   6.883   0.421   8.522
  908TIP3    H226920   6.958   0.542   8.472
  909TIP3   OH226921   6.229   0.694   8.170
  909TIP3    H126922   6.164   0.677   8.237
  909TIP3    H226923   6.213   0.784   8.142
  910TIP3   OH226924   6.163   0.595   7.643
  910TIP3    H126925   6.071   0.605   7.621
  910TIP3    H226926   6.187   0.510   7.606
  911TIP3   OH226927   6.674   0.696   8.689
  911TIP3    H126928   6.624   0.624   8.728
  911TIP3    H226929   6.762   0.685   8.724
  912TIP3   OH226930   6.013   0.661   8.333
  912TIP3    H126931   6.004   0.718   8.410
  912TIP3    H226932   5.971   0.579   8.359
  913TIP3   OH226933   6.314   0.523   7.187
  913TIP3    H126934   6.302   0.433   7.219
  913TIP3    H226935   6.409   0.534   7.185
  914TIP3   OH226936   5.717   0.437   7.718
  914TIP3    H126937   5.742   0.437   7.810
  914TIP3    H226938   5.773   0.503   7.678
  915TIP3   OH226939   5.879   0.456   7.373
  915TIP3    H126940   5.946   0.399   7.336
  915TIP3    H226941   5.810   0.459   7.307
  916TIP3   OH226942   6.839   0.702   8.242
  916TIP3    H126943   6.854   0.614   8.207
  916TIP3    H226944   6.762   0.693   8.298
  917TIP3   OH226945   5.891   0.619   7.590
  917TIP3    H126946   5.852   0.700   7.556
  917TIP3    H226947   5.887   0.558   7.516
  918TIP3   OH226948   7.274   1.876   8.705
  918TIP3    H126949   7.298   1.898   8.615
  918TIP3    H226950   7.347   1.910   8.758
  919TIP3   OH226951   5.999   1.021   8.743
  919TIP3    H126952   6.074   1.047   8.797
  919TIP3    H226953   5.929   1.080   8.770
  920TIP3   OH226954   6.199   0.328   7.553
  920TIP3    H126955   6.125   0.268   7.548
  920TIP3    H226956   6.255   0.304   7.479
  921TIP3   OH226957   6.485   0.593   8.191
  921TIP3    H126958   6.406   0.647   8.185
  921TIP3    H226959   6.534   0.631   8.265
  922TIP3   OH226960   6.619   1.208   7.294
  922TIP3    H126961   6.693   1.157   7.262
  922TIP3    H226962   6.579   1.151   7.360
  923TIP3   OH226963   7.337   1.070   8.131
  923TIP3    H126964   7.390   1.136   8.086
  923TIP3    H226965   7.265   1.051   8.071
  924TIP3   OH226966   6.613   1.105   8.492
  924TIP3    H126967   6.658   1.079   8.573
  924TIP3    H226968   6.558   1.179   8.518
  925TIP3   OH226969   6.101   1.123   7.841
  925TIP3    H126970   6.151   1.085   7.769
  925TIP3    H226971   6.111   1.062   7.913
  926TIP3   OH226972   6.709   1.414   7.454
  926TIP3    H126973   6.722   1.493   7.403
  926TIP3    H226974   6.674   1.350   7.392
  927TIP3   OH226975   5.721   0.921   8.438
  927TIP3    H126976   5.685   0.856   8.498
  927TIP3    H226977   5.655   0.928   8.369
  928TIP3   OH226978   6.472   0.890   8.685
  928TIP3    H126979   6.401   0.855   8.632
  928TIP3    H226980   6.545   0.830   8.670
  929TIP3   OH226981   6.893   1.416   8.541
  929TIP3    H126982   6.804   1.437   8.513
  929TIP3    H226983   6.890   1.420   8.636
  930TIP3   OH226984   7.519   0.611   7.351
  930TIP3    H126985   7.552   0.521   7.359
  930TIP3    H226986   7.566   0.646   7.275
  931TIP3   OH226987   7.522   1.328   8.507
  931TIP3    H126988   7.442   1.360   8.466
  931TIP3    H226989   7.564   1.273   8.440
  932TIP3   OH226990   7.418   1.474   7.401
  932TIP3    H126991   7.339   1.430   7.432
  932TIP3    H226992   7.482   1.403   7.390
  933TIP3   OH226993   7.127   1.005   7.967
  933TIP3    H126994   7.043   0.988   8.009
  933TIP3    H226995   7.146   0.926   7.916
  934TIP3   OH226996   6.350   1.392   7.555
  934TIP3    H126997   6.371   1.486   7.552
  934TIP3    H226998   6.292   1.383   7.631
  935TIP3   OH226999   6.450   1.133   7.507
  935TIP3    H127000   6.423   1.224   7.525
  935TIP3    H227001   6.386   1.080   7.554
  936TIP3   OH227002   6.565   1.594   8.260
  936TIP3    H127003   6.617   1.673   8.252
  936TIP3    H227004   6.599   1.550   8.338
  937TIP3   OH227005   6.377   1.671   7.548
  937TIP3    H127006   6.291   1.686   7.586
  937TIP3    H227007   6.435   1.732   7.595
  938TIP3   OH227008   6.780   1.116   8.274
  938TIP3    H127009   6.715   1.106   8.344
  938TIP3    H227010   6.861   1.139   8.320
  939TIP3   OH227011   7.108   1.575   8.480
  939TIP3    H127012   7.036   1.517   8.501
  939TIP3    H227013   7.068   1.649   8.434
  940TIP3   OH227014   5.905   0.408   8.403
  940TIP3    H127015   5.857   0.446   8.476
  940TIP3    H227016   5.856   0.328   8.381
  941TIP3   OH227017   7.248   1.259   7.477
  941TIP3    H127018   7.190   1.183   7.474
  941TIP3    H227019   7.330   1.229   7.438
  942TIP3   OH227020   5.902   1.607   8.253
  942TIP3    H127021   5.943   1.533   8.297
  942TIP3    H227022   5.914   1.681   8.312
  943TIP3   OH227023   6.422   1.405   7.282
  943TIP3    H127024   6.485   1.333   7.274
  943TIP3    H227025   6.378   1.388   7.366
  944TIP3   OH227026   5.932   1.127   7.274
  944TIP3    H127027   5.899   1.202   7.322
  944TIP3    H227028   5.927   1.153   7.182
  945TIP3   OH227029   6.857   0.428   8.195
  945TIP3    H127030   6.901   0.425   8.280
  945TIP3    H227031   6.798   0.353   8.196
  946TIP3   OH227032   6.721   1.642   7.287
  946TIP3    H127033   6.627   1.653   7.277
  946TIP3    H227034   6.752   1.617   7.200
  947TIP3   OH227035   6.646   0.625   8.422
  947TIP3    H127036   6.652   0.661   8.511
  947TIP3    H227037   6.654   0.530   8.434
  948TIP3   OH227038   6.447   1.677   7.282
  948TIP3    H127039   6.430   1.585   7.260
  948TIP3    H227040   6.419   1.685   7.373
  949TIP3   OH227041   6.341   0.259   7.291
  949TIP3    H127042   6.435   0.253   7.312
  949TIP3    H227043   6.326   0.188   7.229
  950TIP3   OH227044   7.209   0.372   8.477
  950TIP3    H127045   7.115   0.380   8.460
  950TIP3    H227046   7.229   0.280   8.463
  951TIP3   OH227047   7.170   0.741   7.858
  951TIP3    H127048   7.103   0.678   7.833
  951TIP3    H227049   7.228   0.693   7.917
  952TIP3   OH227050   7.300   1.711   8.038
  952TIP3    H127051   7.288   1.765   7.960
  952TIP3    H227052   7.394   1.715   8.056
  953TIP3   OH227053   5.961   0.200   7.846
  953TIP3    H127054   5.954   0.188   7.751
  953TIP3    H227055   5.951   0.112   7.882
  954TIP3   OH227056   5.888   1.566   7.571
  954TIP3    H127057   5.843   1.563   7.656
  954TIP3    H227058   5.850   1.643   7.528
  955TIP3   OH227059   5.817   1.800   8.722
  955TIP3    H127060   5.879   1.764   8.786
  955TIP3    H227061   5.771   1.723   8.689
  956TIP3   OH227062   6.229   1.550   8.870
  956TIP3    H127063   6.305   1.503   8.907
  956TIP3    H227064   6.241   1.542   8.775
  957TIP3   OH227065   6.812   1.566   7.042
  957TIP3    H127066   6.861   1.594   6.965
  957TIP3    H227067   6.810   1.470   7.035
  958TIP3   OH227068   6.888   1.437   8.814
  958TIP3    H127069   6.895   1.349   8.851
  958TIP3    H227070   6.969   1.480   8.840
  959TIP3   OH227071   5.787   1.185   8.821
  959TIP3    H127072   5.713   1.131   8.849
  959TIP3    H227073   5.756   1.228   8.741
  960TIP3   OH227074   6.434   1.153   8.763
  960TIP3    H127075   6.423   1.199   8.680
  960TIP3    H227076   6.459   1.064   8.738
  961TIP3   OH227077   6.991   1.174   8.443
  961TIP3    H127078   7.084   1.179   8.422
  961TIP3    H227079   6.968   1.261   8.474
  962TIP3   OH227080   5.941   0.770   8.854
  962TIP3    H127081   5.965   0.842   8.796
  962TIP3    H227082   5.925   0.811   8.939
  963TIP3   OH227083   6.265   0.797   8.519
  963TIP3    H127084   6.174   0.825   8.516
  963TIP3    H227085   6.309   0.848   8.451
  964TIP3   OH227086   6.768   1.027   8.723
  964TIP3    H127087   6.848   0.989   8.686
  964TIP3    H227088   6.743   0.967   8.793
  965TIP3   OH227089   6.326   0.540   8.593
  965TIP3    H127090   6.329   0.489   8.512
  965TIP3    H227091   6.306   0.629   8.565
  966TIP3   OH227092   6.338   0.419   8.345
  966TIP3    H127093   6.392   0.470   8.285
  966TIP3    H227094   6.253   0.412   8.301
  967TIP3   OH227095   6.414   0.954   8.356
  967TIP3    H127096   6.488   0.998   8.397
  967TIP3    H227097   6.394   1.008   8.279
  968TIP3   OH227098   6.917   0.657   8.832
  968TIP3    H127099   6.941   0.565   8.837
  968TIP3    H227100   6.998   0.704   8.855
  969TIP3   OH227101   7.021   0.964   8.619
  969TIP3    H127102   6.999   1.037   8.561
  969TIP3    H227103   7.116   0.960   8.619
  970TIP3   OH227104   6.181   0.528   8.827
  970TIP3    H127105   6.088   0.509   8.813
  970TIP3    H227106   6.218   0.535   8.739
  971TIP3   OH227107   6.425   0.168   8.276
  971TIP3    H127108   6.402   0.248   8.324
  971TIP3    H227109   6.378   0.175   8.193
  972TIP3   OH227110   6.527   0.475   8.773
  972TIP3    H127111   6.488   0.436   8.851
  972TIP3    H227112   6.454   0.490   8.714
  973TIP3   OH227113   6.773   0.404   8.662
  973TIP3    H127114   6.687   0.414   8.702
  973TIP3    H227115   6.832   0.386   8.735
  974TIP3   OH227116   6.963   0.374   8.866
  974TIP3    H127117   6.984   0.281   8.856
  974TIP3    H227118   6.952   0.386   8.960
  975TIP3   OH227119   5.928   0.408   8.804
  975TIP3    H127120   5.941   0.328   8.752
  975TIP3    H227121   5.931   0.378   8.895
  976TIP3   OH227122   6.424   0.075   8.722
  976TIP3    H127123   6.402  -0.015   8.698
  976TIP3    H227124   6.467   0.110   8.644
  977TIP3   OH227125   6.499   0.131   8.981
  977TIP3    H127126   6.491   0.096   8.892
  977TIP3    H227127   6.442   0.208   8.981
  978TIP3   OH227128   5.785   1.582   7.825
  978TIP3    H127129   5.741   1.523   7.886
  978TIP3    H227130   5.829   1.646   7.881
  979TIP3   OH227131   7.563   1.733   8.151
  979TIP3    H127132   7.545   1.696   8.237
  979TIP3    H227133   7.577   1.826   8.167
  980TIP3   OH227134   7.492   1.640   8.399
  980TIP3    H127135   7.437   1.563   8.383
  980TIP3    H227136   7.539   1.619   8.479
  981TIP3   OH227137   7.414   1.272   8.907
  981TIP3    H127138   7.325   1.283   8.941
  981TIP3    H227139   7.465   1.340   8.951
  982TIP3   OH227140   7.537   1.219   7.409
  982TIP3    H127141   7.628   1.218   7.381
  982TIP3    H227142   7.525   1.136   7.455
  983TIP3   OH227143   7.436   1.019   7.577
  983TIP3    H127144   7.370   0.951   7.584
  983TIP3    H227145   7.401   1.092   7.629
  984TIP3   OH227146   7.539   1.233   8.036
  984TIP3    H127147   7.594   1.196   7.967
  984TIP3    H227148   7.543   1.328   8.022
  985TIP3   OH227149   7.308   1.428   8.360
  985TIP3    H127150   7.238   1.477   8.403
  985TIP3    H227151   7.285   1.430   8.267
  986TIP3   OH227152   7.354   0.512   7.122
  986TIP3    H127153   7.380   0.566   7.197
  986TIP3    H227154   7.371   0.567   7.046
  987TIP3   OH227155   7.252   0.820   7.607
  987TIP3    H127156   7.268   0.734   7.567
  987TIP3    H227157   7.232   0.800   7.698
  988TIP3   OH227158   5.746   1.060   8.103
  988TIP3    H127159   5.761   1.061   8.008
  988TIP3    H227160   5.803   0.990   8.136
  989TIP3   OH227161   7.294   0.974   8.602
  989TIP3    H127162   7.362   0.906   8.590
  989TIP3    H227163   7.306   1.032   8.527
  990TIP3   OH227164   7.453   0.740   8.614
  990TIP3    H127165   7.370   0.692   8.610
  990TIP3    H227166   7.498   0.705   8.691
  991TIP3   OH227167   7.292   0.568   7.510
  991TIP3    H127168   7.283   0.473   7.520
  991TIP3    H227169   7.369   0.580   7.456
  992TIP3   OH227170   7.279   0.553   8.018
  992TIP3    H127171   7.350   0.495   7.989
  992TIP3    H227172   7.309   0.588   8.102
  993TIP3   OH227173   7.350   0.708   8.245
  993TIP3    H127174   7.280   0.767   8.272
  993TIP3    H227175   7.424   0.766   8.225
  994TIP3   OH227176   5.748   0.517   8.613
  994TIP3    H127177   5.810   0.508   8.685
  994TIP3    H227178   5.686   0.446   8.626
  995TIP3   OH227179   7.634   0.145   8.810
  995TIP3    H127180   7.724   0.160   8.779
  995TIP3    H227181   7.579   0.180   8.740
  996TIP3   OH227182   7.269   0.289   7.531
  996TIP3    H127183   7.308   0.232   7.598
  996TIP3    H227184   7.209   0.232   7.484
  997TIP3   OH227185   5.840   0.417   7.965
  997TIP3    H127186   5.877   0.335   7.932
  997TIP3    H227187   5.915   0.475   7.974
  998TIP3   OH227188   5.692   0.737   8.015
  998TIP3    H127189   5.750   0.738   7.939
  998TIP3    H227190   5.747   0.765   8.088
  999TIP3   OH227191   7.467   0.257   8.618
  999TIP3    H127192   7.397   0.282   8.678
  999TIP3    H227193   7.422   0.212   8.546
 1000TIP3   OH227194   7.509   0.275   7.129
 1000TIP3    H127195   7.601   0.301   7.116
 1000TIP3    H227196   7.460   0.356   7.114
 1001TIP3   OH227197   5.748   0.188   7.403
 1001TIP3    H127198   5.667   0.191   7.351
 1001TIP3    H227199   5.784   0.277   7.397
 1002TIP3   OH227200   7.223   1.715   7.604
 1002TIP3    H127201   7.206   1.622   7.620
 1002TIP3    H227202   7.234   1.753   7.691
 1003TIP3   OH227203   5.731   0.198   8.331
 1003TIP3    H127204   5.653   0.188   8.385
 1003TIP3    H227205   5.702   0.250   8.256
 1004TIP3   OH227206   5.959   1.488   8.651
 1004TIP3    H127207   5.869   1.520   8.642
 1004TIP3    H227208   5.974   1.483   8.745
 1005TIP3   OH227209   6.302   1.605   8.350
 1005TIP3    H127210   6.266   1.692   8.334
 1005TIP3    H227211   6.392   1.611   8.318
 1006TIP3   OH227212   6.580   1.712   8.657
 1006TIP3    H127213   6.599   1.671   8.741
 1006TIP3    H227214   6.658   1.765   8.638
 1007TIP3   OH227215   6.812   1.849   8.596
 1007TIP3    H127216   6.863   1.814   8.522
 1007TIP3    H227217   6.877   1.862   8.665
 1008TIP3   OH227218   7.323   0.122   8.421
 1008TIP3    H127219   7.326   0.124   8.325
 1008TIP3    H227220   7.324   0.028   8.442
 1009TIP3   OH227221   5.938   1.855   8.394
 1009TIP3    H127222   5.857   1.890   8.357
 1009TIP3    H227223   5.952   1.906   8.474
 1010TIP3   OH227224   6.202   1.859   8.310
 1010TIP3    H127225   6.110   1.855   8.337
 1010TIP3    H227226   6.200   1.901   8.224
 1011TIP3   OH227227   6.684   1.837   8.221
 1011TIP3    H127228   6.614   1.856   8.158
 1011TIP3    H227229   6.674   1.905   8.288
 1012TIP3   OH227230   6.926   1.758   8.345
 1012TIP3    H127231   6.852   1.793   8.295
 1012TIP3    H227232   7.003   1.801   8.307
 1013TIP3   OH227233   7.169   1.839   8.247
 1013TIP3    H127234   7.187   1.929   8.219
 1013TIP3    H227235   7.205   1.785   8.176
 1014TIP3   OH227236   5.934   1.733   8.006
 1014TIP3    H127237   5.916   1.697   8.093
 1014TIP3    H227238   6.015   1.690   7.978
 1015TIP3   OH227239   6.160   1.607   7.922
 1015TIP3    H127240   6.167   1.519   7.886
 1015TIP3    H227241   6.243   1.620   7.969
 1016TIP3   OH227242   6.414   1.603   8.031
 1016TIP3    H127243   6.436   1.527   7.977
 1016TIP3    H227244   6.466   1.592   8.110
 1017TIP3   OH227245   7.224   0.147   7.897
 1017TIP3    H127246   7.292   0.148   7.830
 1017TIP3    H227247   7.143   0.167   7.849
 1018TIP3   OH227248   7.418   0.123   7.702
 1018TIP3    H127249   7.447   0.034   7.684
 1018TIP3    H227250   7.498   0.175   7.700
 1019TIP3   OH227251   5.977   0.145   7.575
 1019TIP3    H127252   5.909   0.156   7.509
 1019TIP3    H227253   5.984   0.051   7.587
 1020TIP3   OH227254   5.825   7.624   7.281
 1020TIP3    H127255   5.902   7.655   7.233
 1020TIP3    H227256   5.798   7.699   7.335
 1021TIP3   OH227257   6.644   0.038   7.671
 1021TIP3    H127258   6.694   0.105   7.624
 1021TIP3    H227259   6.604   0.085   7.744
 1022TIP3   OH227260   6.976   0.178   7.752
 1022TIP3    H127261   6.923   0.190   7.673
 1022TIP3    H227262   6.960   0.086   7.777
 1023TIP3   OH227263   7.106   0.121   7.394
 1023TIP3    H127264   7.034   0.181   7.376
 1023TIP3    H227265   7.083   0.041   7.346
 1024TIP3   OH227266   5.804   1.796   7.436
 1024TIP3    H127267   5.729   1.751   7.396
 1024TIP3    H227268   5.806   1.881   7.392
 1025TIP3   OH227269   6.055   0.277   7.276
 1025TIP3    H127270   6.031   0.197   7.230
 1025TIP3    H227271   6.151   0.273   7.282
 1026TIP3   OH227272   7.468   1.740   7.394
 1026TIP3    H127273   7.454   1.646   7.400
 1026TIP3    H227274   7.497   1.755   7.304
 1027TIP3   OH227275   5.969   0.156   8.693
 1027TIP3    H127276   5.977   0.081   8.634
 1027TIP3    H227277   6.045   0.149   8.752
 1028TIP3   OH227278   6.182   0.116   8.862
 1028TIP3    H127279   6.271   0.130   8.830
 1028TIP3    H227280   6.161   0.027   8.836
 1029TIP3   OH227281   7.053   0.117   8.859
 1029TIP3    H127282   7.033   0.032   8.819
 1029TIP3    H227283   7.122   0.097   8.923
 1030TIP3   OH227284   7.300   1.604   8.678
 1030TIP3    H127285   7.236   1.587   8.608
 1030TIP3    H227286   7.292   1.698   8.695
 1031TIP3   OH227287   7.611   0.804   7.531
 1031TIP3    H127288   7.554   0.881   7.534
 1031TIP3    H227289   7.564   0.743   7.473
 1032TIP3   OH227290   7.607   1.167   8.299
 1032TIP3    H127291   7.591   1.202   8.212
 1032TIP3    H227292   7.595   1.072   8.289
 1033TIP3   OH227293   7.613   1.498   8.008
 1033TIP3    H127294   7.702   1.466   8.025
 1033TIP3    H227295   7.606   1.577   8.062
 1034TIP3   OH227296   7.606   0.343   7.666
 1034TIP3    H127297   7.695   0.377   7.655
 1034TIP3    H227298   7.569   0.343   7.577
 1035TIP3   OH227299   7.657   0.785   8.433
 1035TIP3    H127300   7.582   0.766   8.489
 1035TIP3    H227301   7.618   0.820   8.352
 1036TIP3   OH227302   7.598   1.176   8.726
 1036TIP3    H127303   7.535   1.205   8.793
 1036TIP3    H227304   7.573   1.224   8.647
 1037TIP3   OH227305   7.591   1.845   7.621
 1037TIP3    H127306   7.562   1.800   7.542
 1037TIP3    H227307   7.621   1.775   7.679
 1038TIP3   OH227308   0.011   1.652   7.788
 1038TIP3    H127309  -0.043   1.601   7.849
 1038TIP3    H227310   0.086   1.597   7.768
 1039TIP3   OH227311   0.038   0.930   7.983
 1039TIP3    H127312   0.058   0.905   7.893
 1039TIP3    H227313   0.108   0.989   8.008
 1040TIP3   OH227314   7.541   0.475   8.793
 1040TIP3    H127315   7.628   0.514   8.779
 1040TIP3    H227316   7.529   0.417   8.718
 1041TIP3   OH227317   7.510   0.421   7.928
 1041TIP3    H127318   7.537   0.392   7.841
 1041TIP3    H227319   7.553   0.506   7.939
 1042TIP3   OH227320   7.509   0.334   7.402
 1042TIP3    H127321   7.421   0.311   7.433
 1042TIP3    H227322   7.515   0.292   7.316
 1043TIP3   OH227323   7.682   0.220   8.412
 1043TIP3    H127324   7.621   0.246   8.480
 1043TIP3    H227325   7.636   0.237   8.330
 1044TIP3   OH227326   1.260   2.856   7.488
 1044TIP3    H127327   1.251   2.946   7.517
 1044TIP3    H227328   1.170   2.824   7.480
 1045TIP3   OH227329   1.147   2.799   8.082
 1045TIP3    H127330   1.176   2.733   8.145
 1045TIP3    H227331   1.084   2.753   8.026
 1046TIP3   OH227332   0.328   2.723   8.145
 1046TIP3    H127333   0.362   2.657   8.206
 1046TIP3    H227334   0.405   2.755   8.098
 1047TIP3   OH227335   1.430   3.125   7.874
 1047TIP3    H127336   1.419   3.034   7.900
 1047TIP3    H227337   1.353   3.170   7.909
 1048TIP3   OH227338   0.419   3.201   7.935
 1048TIP3    H127339   0.387   3.116   7.904
 1048TIP3    H227340   0.514   3.194   7.929
 1049TIP3   OH227341   0.145   2.526   7.618
 1049TIP3    H127342   0.173   2.594   7.679
 1049TIP3    H227343   0.050   2.534   7.615
 1050TIP3   OH227344   0.184   2.707   7.829
 1050TIP3    H127345   0.223   2.636   7.880
 1050TIP3    H227346   0.246   2.779   7.836
 1051TIP3   OH227347   1.227   3.585   7.924
 1051TIP3    H127348   1.259   3.540   7.846
 1051TIP3    H227349   1.183   3.517   7.975
 1052TIP3   OH227350   0.909   3.133   8.070
 1052TIP3    H127351   0.986   3.176   8.033
 1052TIP3    H227352   0.943   3.077   8.140
 1053TIP3   OH227353   1.831   2.177   8.171
 1053TIP3    H127354   1.815   2.260   8.217
 1053TIP3    H227355   1.899   2.198   8.107
 1054TIP3   OH227356   1.296   2.441   8.067
 1054TIP3    H127357   1.338   2.355   8.078
 1054TIP3    H227358   1.260   2.439   7.979
 1055TIP3   OH227359   0.664   2.249   7.720
 1055TIP3    H127360   0.671   2.333   7.675
 1055TIP3    H227361   0.638   2.187   7.652
 1056TIP3   OH227362   1.428   2.351   7.716
 1056TIP3    H127363   1.478   2.293   7.774
 1056TIP3    H227364   1.489   2.372   7.645
 1057TIP3   OH227365   0.251   2.442   7.928
 1057TIP3    H127366   0.337   2.402   7.922
 1057TIP3    H227367   0.194   2.385   7.876
 1058TIP3   OH227368   0.729   2.681   7.801
 1058TIP3    H127369   0.818   2.666   7.833
 1058TIP3    H227370   0.715   2.613   7.735
 1059TIP3   OH227371   1.780   2.403   8.319
 1059TIP3    H127372   1.722   2.470   8.283
 1059TIP3    H227373   1.843   2.451   8.373
 1060TIP3   OH227374   0.495   2.212   8.187
 1060TIP3    H127375   0.487   2.255   8.102
 1060TIP3    H227376   0.422   2.246   8.239
 1061TIP3   OH227377   1.209   3.122   7.546
 1061TIP3    H127378   1.168   3.124   7.460
 1061TIP3    H227379   1.150   3.172   7.602
 1062TIP3   OH227380   0.675   2.995   8.168
 1062TIP3    H127381   0.629   3.066   8.213
 1062TIP3    H227382   0.752   3.036   8.130
 1063TIP3   OH227383   1.591   2.218   7.890
 1063TIP3    H127384   1.679   2.186   7.868
 1063TIP3    H227385   1.607   2.296   7.944
 1064TIP3   OH227386   0.504   2.326   7.935
 1064TIP3    H127387   0.553   2.399   7.972
 1064TIP3    H227388   0.557   2.296   7.861
 1065TIP3   OH227389   0.576   3.221   8.299
 1065TIP3    H127390   0.620   3.289   8.247
 1065TIP3    H227391   0.487   3.253   8.311
 1066TIP3   OH227392   0.085   3.051   7.510
 1066TIP3    H127393   0.122   3.034   7.596
 1066TIP3    H227394   0.117   3.139   7.487
 1067TIP3   OH227395   1.430   3.432   8.143
 1067TIP3    H127396   1.376   3.387   8.078
 1067TIP3    H227397   1.470   3.505   8.096
 1068TIP3   OH227398   1.588   2.053   8.239
 1068TIP3    H127399   1.515   2.105   8.205
 1068TIP3    H227400   1.666   2.094   8.200
 1069TIP3   OH227401   0.685   1.875   7.944
 1069TIP3    H127402   0.699   1.781   7.957
 1069TIP3    H227403   0.656   1.908   8.029
 1070TIP3   OH227404   1.315   3.435   7.706
 1070TIP3    H127405   1.322   3.355   7.757
 1070TIP3    H227406   1.405   3.455   7.679
 1071TIP3   OH227407   1.480   3.168   7.600
 1071TIP3    H127408   1.390   3.153   7.572
 1071TIP3    H227409   1.480   3.152   7.694
 1072TIP3   OH227410   1.626   3.124   8.394
 1072TIP3    H127411   1.610   3.084   8.309
 1072TIP3    H227412   1.627   3.219   8.377
 1073TIP3   OH227413   1.019   2.743   7.407
 1073TIP3    H127414   0.958   2.814   7.388
 1073TIP3    H227415   1.011   2.684   7.332
 1074TIP3   OH227416   1.008   2.569   7.195
 1074TIP3    H127417   1.054   2.495   7.156
 1074TIP3    H227418   0.948   2.599   7.127
 1075TIP3   OH227419   1.753   2.832   8.202
 1075TIP3    H127420   1.697   2.906   8.178
 1075TIP3    H227421   1.822   2.832   8.137
 1076TIP3   OH227422   1.525   2.789   7.444
 1076TIP3    H127423   1.437   2.816   7.472
 1076TIP3    H227424   1.570   2.766   7.525
 1077TIP3   OH227425   1.408   2.645   8.465
 1077TIP3    H127426   1.388   2.718   8.523
 1077TIP3    H227427   1.341   2.650   8.397
 1078TIP3   OH227428   0.565   2.861   7.635
 1078TIP3    H127429   0.549   2.823   7.549
 1078TIP3    H227430   0.630   2.803   7.675
 1079TIP3   OH227431   0.692   3.195   7.907
 1079TIP3    H127432   0.721   3.234   7.825
 1079TIP3    H227433   0.772   3.161   7.948
 1080TIP3   OH227434   0.570   2.793   8.008
 1080TIP3    H127435   0.631   2.773   7.937
 1080TIP3    H227436   0.613   2.862   8.058
 1081TIP3   OH227437   1.176   3.394   8.266
 1081TIP3    H127438   1.260   3.435   8.248
 1081TIP3    H227439   1.158   3.341   8.188
 1082TIP3   OH227440   0.704   3.216   8.548
 1082TIP3    H127441   0.645   3.283   8.583
 1082TIP3    H227442   0.672   3.200   8.460
 1083TIP3   OH227443   1.299   2.703   7.256
 1083TIP3    H127444   1.289   2.765   7.329
 1083TIP3    H227445   1.213   2.700   7.215
 1084TIP3   OH227446   0.440   2.848   8.579
 1084TIP3    H127447   0.455   2.940   8.601
 1084TIP3    H227448   0.355   2.847   8.535
 1085TIP3   OH227449   1.059   3.308   7.699
 1085TIP3    H127450   1.079   3.287   7.790
 1085TIP3    H227451   1.125   3.373   7.673
 1086TIP3   OH227452   0.534   3.430   8.604
 1086TIP3    H127453   0.589   3.480   8.545
 1086TIP3    H227454   0.454   3.412   8.553
 1087TIP3   OH227455   1.672   1.901   7.301
 1087TIP3    H127456   1.589   1.936   7.333
 1087TIP3    H227457   1.730   1.977   7.297
 1088TIP3   OH227458   0.517   2.725   7.394
 1088TIP3    H127459   0.549   2.711   7.305
 1088TIP3    H227460   0.473   2.643   7.417
 1089TIP3   OH227461   0.178   3.074   8.376
 1089TIP3    H127462   0.084   3.082   8.360
 1089TIP3    H227463   0.187   2.992   8.425
 1090TIP3   OH227464   0.207   3.375   8.008
 1090TIP3    H127465   0.271   3.307   7.987
 1090TIP3    H227466   0.234   3.408   8.094
 1091TIP3   OH227467   1.889   3.446   8.672
 1091TIP3    H127468   1.882   3.355   8.643
 1091TIP3    H227469   1.801   3.471   8.699
 1092TIP3   OH227470   0.956   3.319   8.586
 1092TIP3    H127471   0.940   3.413   8.597
 1092TIP3    H227472   0.869   3.283   8.568
 1093TIP3   OH227473   1.009   3.711   7.470
 1093TIP3    H127474   0.969   3.692   7.385
 1093TIP3    H227475   0.991   3.804   7.484
 1094TIP3   OH227476   0.463   3.615   7.742
 1094TIP3    H127477   0.491   3.568   7.821
 1094TIP3    H227478   0.368   3.603   7.740
 1095TIP3   OH227479   1.257   3.679   7.580
 1095TIP3    H127480   1.168   3.679   7.544
 1095TIP3    H227481   1.271   3.589   7.610
 1096TIP3   OH227482   1.618   2.537   8.617
 1096TIP3    H127483   1.551   2.580   8.564
 1096TIP3    H227484   1.613   2.445   8.591
 1097TIP3   OH227485   0.318   3.287   8.475
 1097TIP3    H127486   0.364   3.237   8.542
 1097TIP3    H227487   0.266   3.221   8.428
 1098TIP3   OH227488   1.019   2.050   8.445
 1098TIP3    H127489   1.059   1.990   8.508
 1098TIP3    H227490   0.924   2.037   8.457
 1099TIP3   OH227491   1.346   2.367   8.484
 1099TIP3    H127492   1.305   2.358   8.569
 1099TIP3    H227493   1.359   2.461   8.473
 1100TIP3   OH227494   1.070   2.042   7.258
 1100TIP3    H127495   1.005   2.078   7.320
 1100TIP3    H227496   1.142   2.105   7.260
 1101TIP3   OH227497   0.605   2.530   8.093
 1101TIP3    H127498   0.545   2.525   8.167
 1101TIP3    H227499   0.596   2.619   8.059
 1102TIP3   OH227500   0.662   2.495   7.591
 1102TIP3    H127501   0.570   2.502   7.566
 1102TIP3    H227502   0.710   2.498   7.508
 1103TIP3   OH227503   1.101   2.518   7.550
 1103TIP3    H127504   1.064   2.599   7.514
 1103TIP3    H227505   1.186   2.510   7.507
 1104TIP3   OH227506   1.054   2.596   8.627
 1104TIP3    H127507   1.012   2.522   8.672
 1104TIP3    H227508   1.136   2.609   8.674
 1105TIP3   OH227509   1.208   2.479   7.801
 1105TIP3    H127510   1.158   2.500   7.722
 1105TIP3    H227511   1.280   2.425   7.770
 1106TIP3   OH227512   0.430   2.521   8.303
 1106TIP3    H127513   0.481   2.551   8.379
 1106TIP3    H227514   0.378   2.448   8.336
 1107TIP3   OH227515   0.616   2.282   7.205
 1107TIP3    H127516   0.547   2.274   7.272
 1107TIP3    H227517   0.672   2.352   7.237
 1108TIP3   OH227518   0.089   2.290   7.755
 1108TIP3    H127519   0.005   2.266   7.715
 1108TIP3    H227520   0.127   2.355   7.696
 1109TIP3   OH227521   1.227   2.610   8.266
 1109TIP3    H127522   1.258   2.549   8.199
 1109TIP3    H227523   1.141   2.575   8.292
 1110TIP3   OH227524   0.933   2.201   7.795
 1110TIP3    H127525   0.839   2.220   7.791
 1110TIP3    H227526   0.941   2.135   7.864
 1111TIP3   OH227527   0.401   2.488   7.490
 1111TIP3    H127528   0.311   2.492   7.523
 1111TIP3    H227529   0.409   2.401   7.452
 1112TIP3   OH227530   0.752   2.504   7.324
 1112TIP3    H127531   0.842   2.518   7.294
 1112TIP3    H227532   0.699   2.562   7.269
 1113TIP3   OH227533   1.354   2.172   8.142
 1113TIP3    H127534   1.269   2.191   8.184
 1113TIP3    H227535   1.331   2.115   8.069
 1114TIP3   OH227536   1.607   3.790   8.711
 1114TIP3    H127537   1.634   3.794   8.619
 1114TIP3    H227538   1.678   3.834   8.758
 1115TIP3   OH227539   0.415   3.117   8.672
 1115TIP3    H127540   0.482   3.109   8.740
 1115TIP3    H227541   0.332   3.111   8.719
 1116TIP3   OH227542   0.985   2.600   7.936
 1116TIP3    H127543   1.059   2.558   7.891
 1116TIP3    H227544   0.950   2.531   7.993
 1117TIP3   OH227545   0.861   2.437   8.131
 1117TIP3    H127546   0.776   2.480   8.120
 1117TIP3    H227547   0.900   2.478   8.208
 1118TIP3   OH227548   0.846   2.942   7.324
 1118TIP3    H127549   0.775   2.929   7.260
 1118TIP3    H227550   0.805   2.991   7.395
 1119TIP3   OH227551   1.575   3.033   8.136
 1119TIP3    H127552   1.585   3.103   8.072
 1119TIP3    H227553   1.507   2.976   8.098
 1120TIP3   OH227554   1.055   3.049   8.529
 1120TIP3    H127555   1.088   3.014   8.612
 1120TIP3    H227556   1.028   3.138   8.550
 1121TIP3   OH227557   1.350   2.492   7.434
 1121TIP3    H127558   1.443   2.490   7.454
 1121TIP3    H227559   1.343   2.556   7.363
 1122TIP3   OH227560   0.384   2.916   7.838
 1122TIP3    H127561   0.434   2.909   7.756
 1122TIP3    H227562   0.442   2.880   7.905
 1123TIP3   OH227563   1.069   3.111   7.315
 1123TIP3    H127564   1.047   3.182   7.255
 1123TIP3    H227565   0.997   3.049   7.307
 1124TIP3   OH227566   0.172   2.829   8.511
 1124TIP3    H127567   0.180   2.770   8.586
 1124TIP3    H227568   0.088   2.806   8.471
 1125TIP3   OH227569   0.864   2.805   8.649
 1125TIP3    H127570   0.830   2.825   8.562
 1125TIP3    H227571   0.934   2.742   8.634
 1126TIP3   OH227572   1.222   3.324   8.524
 1126TIP3    H127573   1.201   3.340   8.432
 1126TIP3    H227574   1.137   3.322   8.568
 1127TIP3   OH227575   1.796   2.553   7.299
 1127TIP3    H127576   1.754   2.514   7.222
 1127TIP3    H227577   1.812   2.644   7.274
 1128TIP3   OH227578   1.851   3.197   8.570
 1128TIP3    H127579   1.760   3.179   8.550
 1128TIP3    H227580   1.900   3.158   8.498
 1129TIP3   OH227581   1.678   3.256   7.425
 1129TIP3    H127582   1.606   3.232   7.483
 1129TIP3    H227583   1.735   3.178   7.424
 1130TIP3   OH227584   1.399   2.875   7.994
 1130TIP3    H127585   1.308   2.862   8.020
 1130TIP3    H227586   1.423   2.796   7.947
 1131TIP3   OH227587   0.783   3.312   7.675
 1131TIP3    H127588   0.879   3.309   7.674
 1131TIP3    H227589   0.761   3.402   7.651
 1132TIP3   OH227590   0.724   3.075   7.527
 1132TIP3    H127591   0.737   3.155   7.579
 1132TIP3    H227592   0.663   3.023   7.579
 1133TIP3   OH227593   0.924   3.518   8.271
 1133TIP3    H127594   0.960   3.603   8.247
 1133TIP3    H227595   1.001   3.462   8.283
 1134TIP3   OH227596   0.711   3.583   7.612
 1134TIP3    H127597   0.624   3.595   7.649
 1134TIP3    H227598   0.758   3.664   7.635
 1135TIP3   OH227599   1.003   2.964   8.270
 1135TIP3    H127600   1.042   2.995   8.352
 1135TIP3    H227601   1.076   2.924   8.222
 1136TIP3   OH227602   1.423   3.506   8.523
 1136TIP3    H127603   1.355   3.442   8.540
 1136TIP3    H227604   1.379   3.576   8.474
 1137TIP3   OH227605   1.811   3.689   7.174
 1137TIP3    H127606   1.901   3.703   7.145
 1137TIP3    H227607   1.804   3.737   7.256
 1138TIP3   OH227608   0.284   2.275   8.358
 1138TIP3    H127609   0.238   2.295   8.440
 1138TIP3    H227610   0.243   2.195   8.326
 1139TIP3   OH227611   0.279   3.472   8.261
 1139TIP3    H127612   0.289   3.418   8.339
 1139TIP3    H227613   0.278   3.562   8.294
 1140TIP3   OH227614   0.751   3.247   7.018
 1140TIP3    H127615   0.837   3.267   7.054
 1140TIP3    H227616   0.741   3.308   6.945
 1141TIP3   OH227617   0.583   3.285   7.244
 1141TIP3    H127618   0.638   3.259   7.170
 1141TIP3    H227619   0.641   3.335   7.301
 1142TIP3   OH227620   1.145   2.261   8.327
 1142TIP3    H127621   1.223   2.283   8.378
 1142TIP3    H227622   1.106   2.187   8.374
 1143TIP3   OH227623   1.288   2.217   7.464
 1143TIP3    H127624   1.292   2.205   7.369
 1143TIP3    H227625   1.305   2.310   7.476
 1144TIP3   OH227626   0.948   3.334   7.195
 1144TIP3    H127627   0.888   3.349   7.268
 1144TIP3    H227628   0.977   3.421   7.169
 1145TIP3   OH227629   0.953   2.281   7.531
 1145TIP3    H127630   0.998   2.365   7.522
 1145TIP3    H227631   0.947   2.267   7.626
 1146TIP3   OH227632   0.996   2.497   8.364
 1146TIP3    H127633   1.008   2.526   8.454
 1146TIP3    H227634   1.038   2.411   8.361
 1147TIP3   OH227635   1.178   2.101   7.696
 1147TIP3    H127636   1.110   2.160   7.728
 1147TIP3    H227637   1.220   2.149   7.625
 1148TIP3   OH227638   0.758   3.472   7.360
 1148TIP3    H127639   0.818   3.533   7.317
 1148TIP3    H227640   0.747   3.507   7.448
 1149TIP3   OH227641   1.609   2.286   8.504
 1149TIP3    H127642   1.516   2.289   8.480
 1149TIP3    H227643   1.655   2.308   8.423
 1150TIP3   OH227644   1.454   2.633   7.869
 1150TIP3    H127645   1.372   2.591   7.844
 1150TIP3    H227646   1.501   2.566   7.919
 1151TIP3   OH227647   0.368   3.158   7.125
 1151TIP3    H127648   0.424   3.207   7.185
 1151TIP3    H227649   0.428   3.106   7.073
 1152TIP3   OH227650   1.591   3.644   8.054
 1152TIP3    H127651   1.585   3.679   7.965
 1152TIP3    H227652   1.685   3.639   8.072
 1153TIP3   OH227653   0.158   3.316   7.441
 1153TIP3    H127654   0.106   3.396   7.435
 1153TIP3    H227655   0.242   3.344   7.476
 1154TIP3   OH227656   0.118   3.696   8.765
 1154TIP3    H127657   0.189   3.686   8.828
 1154TIP3    H227658   0.118   3.614   8.715
 1155TIP3   OH227659   0.544   3.477   8.875
 1155TIP3    H127660   0.621   3.429   8.902
 1155TIP3    H227661   0.538   3.463   8.781
 1156TIP3   OH227662   1.207   3.378   8.902
 1156TIP3    H127663   1.217   3.284   8.916
 1156TIP3    H227664   1.297   3.412   8.899
 1157TIP3   OH227665   0.203   3.070   8.837
 1157TIP3    H127666   0.248   3.002   8.888
 1157TIP3    H227667   0.119   3.031   8.814
 1158TIP3   OH227668   0.579   3.040   7.005
 1158TIP3    H127669   0.649   3.105   7.002
 1158TIP3    H227670   0.620   2.959   6.977
 1159TIP3   OH227671   0.790   3.060   8.757
 1159TIP3    H127672   0.769   3.109   8.678
 1159TIP3    H227673   0.832   2.980   8.726
 1160TIP3   OH227674   1.392   3.109   8.556
 1160TIP3    H127675   1.460   3.132   8.492
 1160TIP3    H227676   1.328   3.179   8.549
 1161TIP3   OH227677   0.264   2.685   8.738
 1161TIP3    H127678   0.348   2.721   8.712
 1161TIP3    H227679   0.241   2.731   8.818
 1162TIP3   OH227680   0.606   2.648   8.482
 1162TIP3    H127681   0.550   2.713   8.526
 1162TIP3    H227682   0.675   2.700   8.441
 1163TIP3   OH227683   1.160   2.929   8.765
 1163TIP3    H127684   1.238   2.890   8.726
 1163TIP3    H227685   1.126   2.862   8.824
 1164TIP3   OH227686   0.705   2.408   8.580
 1164TIP3    H127687   0.717   2.358   8.500
 1164TIP3    H227688   0.680   2.496   8.551
 1165TIP3   OH227689   0.724   2.282   8.328
 1165TIP3    H127690   0.786   2.318   8.265
 1165TIP3    H227691   0.644   2.267   8.277
 1166TIP3   OH227692   0.781   2.838   8.378
 1166TIP3    H127693   0.868   2.867   8.351
 1166TIP3    H227694   0.721   2.883   8.318
 1167TIP3   OH227695   1.283   2.588   8.810
 1167TIP3    H127696   1.272   2.496   8.786
 1167TIP3    H227697   1.373   2.593   8.842
 1168TIP3   OH227698   1.417   2.860   8.649
 1168TIP3    H127699   1.392   2.948   8.620
 1168TIP3    H227700   1.511   2.854   8.630
 1169TIP3   OH227701   0.539   2.415   8.805
 1169TIP3    H127702   0.459   2.366   8.783
 1169TIP3    H227703   0.589   2.414   8.723
 1170TIP3   OH227704   0.742   2.023   8.417
 1170TIP3    H127705   0.738   2.116   8.399
 1170TIP3    H227706   0.705   1.981   8.339
 1171TIP3   OH227707   0.941   2.372   8.741
 1171TIP3    H127708   0.925   2.330   8.826
 1171TIP3    H227709   0.855   2.373   8.698
 1172TIP3   OH227710   1.219   2.337   8.723
 1172TIP3    H127711   1.124   2.329   8.729
 1172TIP3    H227712   1.253   2.263   8.774
 1173TIP3   OH227713   1.322   2.137   8.880
 1173TIP3    H127714   1.313   2.044   8.858
 1173TIP3    H227715   1.278   2.146   8.965
 1174TIP3   OH227716   0.334   2.212   8.803
 1174TIP3    H127717   0.366   2.126   8.777
 1174TIP3    H227718   0.323   2.205   8.898
 1175TIP3   OH227719   0.663   1.902   8.652
 1175TIP3    H127720   0.727   1.831   8.653
 1175TIP3    H227721   0.682   1.951   8.572
 1176TIP3   OH227722   0.787   2.008   8.880
 1176TIP3    H127723   0.751   1.966   8.803
 1176TIP3    H227724   0.723   2.075   8.904
 1177TIP3   OH227725   0.110   3.181   7.206
 1177TIP3    H127726   0.131   3.235   7.282
 1177TIP3    H227727   0.195   3.162   7.165
 1178TIP3   OH227728   0.051   3.779   7.579
 1178TIP3    H127729  -0.043   3.771   7.596
 1178TIP3    H227730   0.093   3.743   7.657
 1179TIP3   OH227731   0.187   3.589   7.827
 1179TIP3    H127732   0.190   3.504   7.871
 1179TIP3    H227733   0.225   3.650   7.891
 1180TIP3   OH227734   1.854   3.640   8.141
 1180TIP3    H127735   1.863   3.595   8.225
 1180TIP3    H227736   1.944   3.652   8.110
 1181TIP3   OH227737   1.855   3.506   8.391
 1181TIP3    H127738   1.774   3.459   8.372
 1181TIP3    H227739   1.869   3.493   8.484
 1182TIP3   OH227740   1.688   3.195   8.857
 1182TIP3    H127741   1.606   3.190   8.905
 1182TIP3    H227742   1.737   3.265   8.902
 1183TIP3   OH227743   1.859   3.041   7.426
 1183TIP3    H127744   1.942   3.087   7.424
 1183TIP3    H227745   1.866   2.979   7.499
 1184TIP3   OH227746   1.869   2.826   7.605
 1184TIP3    H127747   1.787   2.785   7.633
 1184TIP3    H227748   1.926   2.823   7.682
 1185TIP3   OH227749   1.923   3.093   8.107
 1185TIP3    H127750   1.940   3.011   8.060
 1185TIP3    H227751   1.973   3.159   8.058
 1186TIP3   OH227752   1.606   3.396   8.352
 1186TIP3    H127753   1.547   3.435   8.417
 1186TIP3    H227754   1.558   3.403   8.269
 1187TIP3   OH227755   1.863   2.829   7.250
 1187TIP3    H127756   1.956   2.825   7.230
 1187TIP3    H227757   1.854   2.899   7.315
 1188TIP3   OH227758   1.643   2.680   7.669
 1188TIP3    H127759   1.639   2.594   7.627
 1188TIP3    H227760   1.582   2.674   7.743
 1189TIP3   OH227761   0.107   2.887   8.148
 1189TIP3    H127762   0.137   2.967   8.190
 1189TIP3    H227763   0.184   2.830   8.146
 1190TIP3   OH227764   1.680   2.910   8.570
 1190TIP3    H127765   1.757   2.872   8.526
 1190TIP3    H227766   1.653   2.981   8.512
 1191TIP3   OH227767   1.881   2.559   8.535
 1191TIP3    H127768   1.795   2.556   8.577
 1191TIP3    H227769   1.928   2.484   8.572
 1192TIP3   OH227770   1.621   2.451   7.505
 1192TIP3    H127771   1.643   2.358   7.511
 1192TIP3    H227772   1.679   2.485   7.437
 1193TIP3   OH227773   1.623   2.463   8.016
 1193TIP3    H127774   1.712   2.494   7.998
 1193TIP3    H227775   1.601   2.501   8.101
 1194TIP3   OH227776   1.606   2.603   8.258
 1194TIP3    H127777   1.535   2.628   8.316
 1194TIP3    H227778   1.648   2.686   8.235
 1195TIP3   OH227779   0.143   2.254   8.604
 1195TIP3    H127780   0.204   2.269   8.677
 1195TIP3    H227781   0.138   2.159   8.595
 1196TIP3   OH227782   1.859   1.965   8.823
 1196TIP3    H127783   1.929   1.907   8.792
 1196TIP3    H227784   1.849   2.029   8.753
 1197TIP3   OH227785   1.656   2.182   7.540
 1197TIP3    H127786   1.695   2.142   7.619
 1197TIP3    H227787   1.588   2.121   7.514
 1198TIP3   OH227788   0.111   2.522   8.151
 1198TIP3    H127789   0.164   2.488   8.079
 1198TIP3    H227790   0.158   2.601   8.180
 1199TIP3   OH227791   1.798   2.124   8.612
 1199TIP3    H127792   1.726   2.185   8.593
 1199TIP3    H227793   1.786   2.054   8.548
 1200TIP3   OH227794   1.983   2.085   6.983
 1200TIP3    H127795   2.013   2.081   7.074
 1200TIP3    H227796   1.969   2.178   6.966
 1201TIP3   OH227797   1.563   3.533   7.652
 1201TIP3    H127798   1.644   3.523   7.601
 1201TIP3    H227799   1.578   3.611   7.705
 1202TIP3   OH227800   0.164   2.015   8.319
 1202TIP3    H127801   0.161   2.004   8.414
 1202TIP3    H227802   0.073   2.008   8.290
 1203TIP3   OH227803   0.131   3.467   8.614
 1203TIP3    H127804   0.188   3.402   8.575
 1203TIP3    H227805   0.046   3.424   8.621
 1204TIP3   OH227806   0.684   3.551   8.416
 1204TIP3    H127807   0.652   3.629   8.371
 1204TIP3    H227808   0.771   3.536   8.380
 1205TIP3   OH227809   0.925   3.594   8.649
 1205TIP3    H127810   0.939   3.567   8.740
 1205TIP3    H227811   1.001   3.649   8.629
 1206TIP3   OH227812   1.147   3.754   8.602
 1206TIP3    H127813   1.200   3.727   8.527
 1206TIP3    H227814   1.210   3.765   8.673
 1207TIP3   OH227815   1.721   1.919   8.447
 1207TIP3    H127816   1.667   1.952   8.376
 1207TIP3    H227817   1.740   1.828   8.423
 1208TIP3   OH227818   0.293   3.764   8.309
 1208TIP3    H127819   0.245   3.833   8.262
 1208TIP3    H227820   0.280   3.785   8.402
 1209TIP3   OH227821   0.576   3.774   8.295
 1209TIP3    H127822   0.481   3.770   8.297
 1209TIP3    H227823   0.597   3.798   8.205
 1210TIP3   OH227824   1.051   3.757   8.210
 1210TIP3    H127825   1.030   3.788   8.123
 1210TIP3    H227826   1.038   3.833   8.267
 1211TIP3   OH227827   1.284   3.693   8.371
 1211TIP3    H127828   1.214   3.699   8.306
 1211TIP3    H227829   1.359   3.737   8.329
 1212TIP3   OH227830   1.515   3.804   8.265
 1212TIP3    H127831   1.538   3.893   8.236
 1212TIP3    H227832   1.533   3.750   8.188
 1213TIP3   OH227833   0.331   3.690   8.036
 1213TIP3    H127834   0.321   3.700   8.131
 1213TIP3    H227835   0.395   3.619   8.027
 1214TIP3   OH227836   0.502   3.475   7.977
 1214TIP3    H127837   0.471   3.386   7.959
 1214TIP3    H227838   0.579   3.462   8.032
 1215TIP3   OH227839   0.716   3.394   8.133
 1215TIP3    H127840   0.761   3.332   8.076
 1215TIP3    H227841   0.787   3.440   8.178
 1216TIP3   OH227842   0.950   1.963   7.948
 1216TIP3    H127843   0.860   1.933   7.935
 1216TIP3    H227844   1.003   1.897   7.905
 1217TIP3   OH227845   1.559   1.917   7.857
 1217TIP3    H127846   1.624   1.984   7.837
 1217TIP3    H227847   1.483   1.967   7.888
 1218TIP3   OH227848   1.784   2.058   7.755
 1218TIP3    H127849   1.820   1.970   7.740
 1218TIP3    H227850   1.860   2.116   7.750
 1219TIP3   OH227851   0.631   1.845   7.665
 1219TIP3    H127852   0.621   1.928   7.619
 1219TIP3    H227853   0.657   1.870   7.754
 1220TIP3   OH227854   1.296   2.000   7.932
 1220TIP3    H127855   1.258   2.034   7.850
 1220TIP3    H227856   1.266   1.909   7.937
 1221TIP3   OH227857   1.464   2.000   7.461
 1221TIP3    H127858   1.394   2.066   7.461
 1221TIP3    H227859   1.425   1.924   7.503
 1222TIP3   OH227860   7.699   3.554   7.410
 1222TIP3    H127861   7.604   3.546   7.405
 1222TIP3    H227862   7.714   3.632   7.463
 1223TIP3   OH227863   0.833   2.053   7.443
 1223TIP3    H127864   0.741   2.058   7.466
 1223TIP3    H227865   0.868   2.140   7.464
 1224TIP3   OH227866   0.944   3.621   7.213
 1224TIP3    H127867   1.039   3.633   7.212
 1224TIP3    H227868   0.915   3.654   7.128
 1225TIP3   OH227869   1.799   3.497   7.487
 1225TIP3    H127870   1.753   3.417   7.462
 1225TIP3    H227871   1.878   3.498   7.433
 1226TIP3   OH227872   0.171   1.978   8.590
 1226TIP3    H127873   0.117   1.910   8.632
 1226TIP3    H227874   0.256   1.971   8.634
 1227TIP3   OH227875   0.401   1.941   8.742
 1227TIP3    H127876   0.491   1.926   8.713
 1227TIP3    H227877   0.378   1.860   8.789
 1228TIP3   OH227878   1.340   1.873   8.792
 1228TIP3    H127879   1.344   1.826   8.875
 1228TIP3    H227880   1.430   1.875   8.760
 1229TIP3   OH227881   1.628   3.517   8.706
 1229TIP3    H127882   1.558   3.498   8.644
 1229TIP3    H227883   1.621   3.612   8.721
 1230TIP3   OH227884   3.150   3.048   7.554
 1230TIP3    H127885   3.120   3.138   7.550
 1230TIP3    H227886   3.072   2.995   7.540
 1231TIP3   OH227887   2.953   2.787   8.024
 1231TIP3    H127888   2.993   2.742   8.099
 1231TIP3    H227889   2.911   2.717   7.974
 1232TIP3   OH227890   2.187   2.729   8.199
 1232TIP3    H127891   2.181   2.638   8.227
 1232TIP3    H227892   2.268   2.733   8.147
 1233TIP3   OH227893   2.389   3.238   8.027
 1233TIP3    H127894   2.361   3.153   7.992
 1233TIP3    H227895   2.482   3.243   8.004
 1234TIP3   OH227896   1.993   2.597   7.493
 1234TIP3    H127897   1.951   2.676   7.527
 1234TIP3    H227898   1.930   2.563   7.429
 1235TIP3   OH227899   2.076   2.786   7.788
 1235TIP3    H127900   2.096   2.695   7.811
 1235TIP3    H227901   2.130   2.803   7.711
 1236TIP3   OH227902   3.085   3.659   7.772
 1236TIP3    H127903   3.099   3.636   7.680
 1236TIP3    H227904   3.026   3.592   7.806
 1237TIP3   OH227905   2.839   3.041   8.065
 1237TIP3    H127906   2.870   2.957   8.031
 1237TIP3    H227907   2.914   3.078   8.111
 1238TIP3   OH227908   3.630   2.184   8.100
 1238TIP3    H127909   3.653   2.252   8.163
 1238TIP3    H227910   3.691   2.198   8.027
 1239TIP3   OH227911   3.141   2.506   8.043
 1239TIP3    H127912   3.145   2.411   8.053
 1239TIP3    H227913   3.143   2.521   7.948
 1240TIP3   OH227914   2.441   2.388   7.849
 1240TIP3    H127915   2.456   2.441   7.770
 1240TIP3    H227916   2.476   2.302   7.826
 1241TIP3   OH227917   3.322   2.364   7.633
 1241TIP3    H127918   3.371   2.317   7.701
 1241TIP3    H227919   3.275   2.295   7.587
 1242TIP3   OH227920   2.124   2.529   7.867
 1242TIP3    H127921   2.178   2.482   7.932
 1242TIP3    H227922   2.153   2.494   7.783
 1243TIP3   OH227923   2.562   2.693   7.836
 1243TIP3    H127924   2.648   2.657   7.860
 1243TIP3    H227925   2.533   2.638   7.763
 1244TIP3   OH227926   3.658   2.350   8.324
 1244TIP3    H127927   3.615   2.435   8.314
 1244TIP3    H227928   3.719   2.362   8.396
 1245TIP3   OH227929   2.341   2.178   8.224
 1245TIP3    H127930   2.309   2.242   8.160
 1245TIP3    H227931   2.274   2.179   8.293
 1246TIP3   OH227932   2.614   2.939   8.194
 1246TIP3    H127933   2.564   3.015   8.226
 1246TIP3    H227934   2.690   2.977   8.150
 1247TIP3   OH227935   3.481   2.290   7.854
 1247TIP3    H127936   3.490   2.216   7.913
 1247TIP3    H227937   3.495   2.367   7.909
 1248TIP3   OH227938   2.279   2.388   8.057
 1248TIP3    H127939   2.326   2.441   8.122
 1248TIP3    H227940   2.339   2.381   7.983
 1249TIP3   OH227941   2.452   3.150   8.286
 1249TIP3    H127942   2.433   3.191   8.201
 1249TIP3    H227943   2.369   3.153   8.333
 1250TIP3   OH227944   2.110   3.173   7.408
 1250TIP3    H127945   2.149   3.226   7.339
 1250TIP3    H227946   2.127   3.222   7.489
 1251TIP3   OH227947   3.368   2.135   8.203
 1251TIP3    H127948   3.296   2.178   8.155
 1251TIP3    H227949   3.447   2.162   8.157
 1252TIP3   OH227950   2.772   1.936   8.010
 1252TIP3    H127951   2.765   1.901   7.922
 1252TIP3    H227952   2.683   1.963   8.033
 1253TIP3   OH227953   3.527   3.143   8.393
 1253TIP3    H127954   3.500   3.085   8.321
 1253TIP3    H227955   3.511   3.231   8.360
 1254TIP3   OH227956   2.948   2.874   7.467
 1254TIP3    H127957   2.861   2.884   7.428
 1254TIP3    H227958   3.005   2.858   7.392
 1255TIP3   OH227959   2.808   2.517   7.106
 1255TIP3    H127960   2.848   2.535   7.191
 1255TIP3    H227961   2.763   2.434   7.119
 1256TIP3   OH227962   3.643   2.820   8.275
 1256TIP3    H127963   3.570   2.876   8.253
 1256TIP3    H227964   3.708   2.836   8.206
 1257TIP3   OH227965   3.388   2.958   7.447
 1257TIP3    H127966   3.306   2.986   7.489
 1257TIP3    H227967   3.428   2.899   7.510
 1258TIP3   OH227968   3.265   2.638   8.452
 1258TIP3    H127969   3.262   2.716   8.507
 1258TIP3    H227970   3.203   2.656   8.381
 1259TIP3   OH227971   2.403   2.886   7.704
 1259TIP3    H127972   2.347   2.842   7.640
 1259TIP3    H227973   2.461   2.817   7.735
 1260TIP3   OH227974   2.657   3.243   7.966
 1260TIP3    H127975   2.648   3.240   7.871
 1260TIP3    H227976   2.724   3.177   7.986
 1261TIP3   OH227977   2.436   2.770   8.066
 1261TIP3    H127978   2.475   2.743   7.983
 1261TIP3    H227979   2.500   2.830   8.104
 1262TIP3   OH227980   3.250   3.309   8.201
 1262TIP3    H127981   3.189   3.382   8.200
 1262TIP3    H227982   3.195   3.231   8.198
 1263TIP3   OH227983   2.627   3.206   8.500
 1263TIP3    H127984   2.554   3.257   8.534
 1263TIP3    H227985   2.595   3.172   8.416
 1264TIP3   OH227986   3.133   2.811   7.276
 1264TIP3    H127987   3.160   2.726   7.311
 1264TIP3    H227988   3.215   2.858   7.262
 1265TIP3   OH227989   2.182   2.786   8.477
 1265TIP3    H127990   2.194   2.780   8.382
 1265TIP3    H227991   2.088   2.798   8.489
 1266TIP3   OH227992   2.402   3.347   8.571
 1266TIP3    H127993   2.435   3.427   8.530
 1266TIP3    H227994   2.333   3.317   8.511
 1267TIP3   OH227995   2.205   2.778   7.540
 1267TIP3    H127996   2.195   2.831   7.460
 1267TIP3    H227997   2.160   2.696   7.520
 1268TIP3   OH227998   3.918   3.285   7.208
 1268TIP3    H127999   3.827   3.285   7.178
 1268TIP3    H228000   3.963   3.345   7.149
 1269TIP3   OH228001   1.980   3.067   8.369
 1269TIP3    H128002   1.953   3.080   8.278
 1269TIP3    H228003   1.960   2.975   8.387
 1270TIP3   OH228004   2.104   3.287   8.026
 1270TIP3    H128005   2.195   3.260   8.017
 1270TIP3    H228006   2.100   3.332   8.111
 1271TIP3   OH228007   3.625   3.397   8.583
 1271TIP3    H128008   3.579   3.371   8.503
 1271TIP3    H228009   3.558   3.437   8.638
 1272TIP3   OH228010   2.866   3.339   8.506
 1272TIP3    H128011   2.847   3.419   8.555
 1272TIP3    H228012   2.783   3.293   8.502
 1273TIP3   OH228013   2.864   3.843   7.357
 1273TIP3    H128014   2.925   3.786   7.310
 1273TIP3    H228015   2.920   3.901   7.409
 1274TIP3   OH228016   2.324   3.567   7.695
 1274TIP3    H128017   2.334   3.546   7.787
 1274TIP3    H228018   2.270   3.496   7.659
 1275TIP3   OH228019   3.398   2.524   8.681
 1275TIP3    H128020   3.375   2.532   8.589
 1275TIP3    H228021   3.412   2.430   8.695
 1276TIP3   OH228022   2.210   3.198   8.433
 1276TIP3    H128023   2.219   3.163   8.522
 1276TIP3    H228024   2.134   3.152   8.397
 1277TIP3   OH228025   2.502   2.011   8.056
 1277TIP3    H128026   2.503   2.035   7.963
 1277TIP3    H228027   2.442   2.074   8.096
 1278TIP3   OH228028   2.905   2.030   8.424
 1278TIP3    H128029   2.951   1.979   8.491
 1278TIP3    H228030   2.812   2.013   8.439
 1279TIP3   OH228031   3.185   2.367   8.491
 1279TIP3    H128032   3.139   2.359   8.575
 1279TIP3    H228033   3.199   2.461   8.481
 1280TIP3   OH228034   2.458   2.538   8.208
 1280TIP3    H128035   2.438   2.564   8.298
 1280TIP3    H228036   2.456   2.620   8.158
 1281TIP3   OH228037   2.455   2.552   7.626
 1281TIP3    H128038   2.363   2.529   7.614
 1281TIP3    H228039   2.496   2.530   7.543
 1282TIP3   OH228040   2.977   2.617   7.575
 1282TIP3    H128041   2.955   2.709   7.559
 1282TIP3    H228042   3.046   2.598   7.511
 1283TIP3   OH228043   2.897   2.585   8.628
 1283TIP3    H128044   2.855   2.513   8.675
 1283TIP3    H228045   2.984   2.592   8.669
 1284TIP3   OH228046   3.167   2.545   7.771
 1284TIP3    H128047   3.093   2.571   7.717
 1284TIP3    H228048   3.214   2.480   7.718
 1285TIP3   OH228049   2.194   2.487   8.344
 1285TIP3    H128050   2.254   2.515   8.413
 1285TIP3    H228051   2.179   2.394   8.360
 1286TIP3   OH228052   2.000   2.219   7.747
 1286TIP3    H128053   2.017   2.239   7.839
 1286TIP3    H228054   2.087   2.207   7.708
 1287TIP3   OH228055   1.971   2.329   7.238
 1287TIP3    H128056   2.054   2.345   7.193
 1287TIP3    H228057   1.931   2.416   7.247
 1288TIP3   OH228058   3.072   2.656   8.255
 1288TIP3    H128059   3.106   2.602   8.183
 1288TIP3    H228060   2.992   2.611   8.283
 1289TIP3   OH228061   2.778   2.313   7.770
 1289TIP3    H128062   2.702   2.256   7.765
 1289TIP3    H228063   2.844   2.261   7.816
 1290TIP3   OH228064   2.198   2.448   7.614
 1290TIP3    H128065   2.122   2.474   7.562
 1290TIP3    H228066   2.207   2.354   7.600
 1291TIP3   OH228067   2.557   2.467   7.383
 1291TIP3    H128068   2.643   2.438   7.414
 1291TIP3    H228069   2.533   2.402   7.316
 1292TIP3   OH228070   3.125   2.235   8.090
 1292TIP3    H128071   3.063   2.245   8.162
 1292TIP3    H228072   3.073   2.197   8.019
 1293TIP3   OH228073   3.476   3.797   8.747
 1293TIP3    H128074   3.479   3.838   8.661
 1293TIP3    H228075   3.562   3.814   8.785
 1294TIP3   OH228076   2.223   3.102   8.693
 1294TIP3    H128077   2.259   3.016   8.713
 1294TIP3    H228078   2.134   3.100   8.728
 1295TIP3   OH228079   2.790   2.553   7.924
 1295TIP3    H128080   2.802   2.490   7.853
 1295TIP3    H228081   2.764   2.500   7.999
 1296TIP3   OH228082   2.254   2.166   7.633
 1296TIP3    H128083   2.222   2.076   7.635
 1296TIP3    H228084   2.342   2.161   7.669
 1297TIP3   OH228085   2.698   2.422   8.154
 1297TIP3    H128086   2.610   2.459   8.162
 1297TIP3    H228087   2.749   2.466   8.222
 1298TIP3   OH228088   2.699   2.893   7.353
 1298TIP3    H128089   2.627   2.838   7.322
 1298TIP3    H228090   2.659   2.951   7.417
 1299TIP3   OH228091   3.452   2.991   8.176
 1299TIP3    H128092   3.503   3.041   8.111
 1299TIP3    H228093   3.377   2.959   8.127
 1300TIP3   OH228094   2.980   3.063   8.475
 1300TIP3    H128095   2.994   3.022   8.560
 1300TIP3    H228096   2.946   3.150   8.495
 1301TIP3   OH228097   3.181   2.567   7.403
 1301TIP3    H128098   3.270   2.575   7.438
 1301TIP3    H228099   3.182   2.486   7.353
 1302TIP3   OH228100   2.317   2.994   7.941
 1302TIP3    H128101   2.334   2.971   7.850
 1302TIP3    H228102   2.336   2.914   7.990
 1303TIP3   OH228103   1.901   2.807   8.431
 1303TIP3    H128104   1.900   2.717   8.463
 1303TIP3    H228105   1.853   2.804   8.348
 1304TIP3   OH228106   2.735   2.807   8.643
 1304TIP3    H128107   2.693   2.805   8.557
 1304TIP3    H228108   2.804   2.741   8.638
 1305TIP3   OH228109   3.140   3.354   8.540
 1305TIP3    H128110   3.051   3.344   8.508
 1305TIP3    H228111   3.132   3.356   8.635
 1306TIP3   OH228112   3.723   2.525   7.263
 1306TIP3    H128113   3.630   2.508   7.244
 1306TIP3    H228114   3.766   2.441   7.246
 1307TIP3   OH228115   3.762   3.107   8.536
 1307TIP3    H128116   3.679   3.113   8.488
 1307TIP3    H228117   3.826   3.086   8.468
 1308TIP3   OH228118   3.238   2.879   8.035
 1308TIP3    H128119   3.147   2.862   8.008
 1308TIP3    H228120   3.290   2.819   7.981
 1309TIP3   OH228121   2.567   3.276   7.704
 1309TIP3    H128122   2.595   3.364   7.678
 1309TIP3    H228123   2.485   3.262   7.657
 1310TIP3   OH228124   2.583   3.036   7.555
 1310TIP3    H128125   2.609   3.111   7.609
 1310TIP3    H228126   2.520   2.989   7.608
 1311TIP3   OH228127   2.747   3.502   8.297
 1311TIP3    H128128   2.804   3.574   8.267
 1311TIP3    H228129   2.807   3.440   8.338
 1312TIP3   OH228130   2.592   3.538   7.623
 1312TIP3    H128131   2.501   3.563   7.640
 1312TIP3    H228132   2.639   3.622   7.621
 1313TIP3   OH228133   3.080   3.083   8.213
 1313TIP3    H128134   3.052   3.065   8.303
 1313TIP3    H228135   3.132   3.006   8.188
 1314TIP3   OH228136   3.267   3.592   8.479
 1314TIP3    H128137   3.209   3.517   8.468
 1314TIP3    H228138   3.273   3.631   8.392
 1315TIP3   OH228139   3.788   3.881   7.294
 1315TIP3    H128140   3.837   3.804   7.265
 1315TIP3    H228141   3.749   3.916   7.214
 1316TIP3   OH228142   2.170   2.219   8.445
 1316TIP3    H128143   2.099   2.260   8.493
 1316TIP3    H228144   2.182   2.134   8.487
 1317TIP3   OH228145   3.341   2.991   7.176
 1317TIP3    H128146   3.370   2.992   7.267
 1317TIP3    H228147   3.352   3.082   7.147
 1318TIP3   OH228148   2.098   3.418   8.273
 1318TIP3    H128149   2.140   3.358   8.334
 1318TIP3    H228150   2.017   3.444   8.316
 1319TIP3   OH228151   2.535   3.328   7.225
 1319TIP3    H128152   2.596   3.275   7.174
 1319TIP3    H228153   2.591   3.382   7.281
 1320TIP3   OH228154   2.144   2.917   7.303
 1320TIP3    H128155   2.132   3.006   7.336
 1320TIP3    H228156   2.210   2.925   7.235
 1321TIP3   OH228157   2.978   2.281   8.332
 1321TIP3    H128158   3.060   2.295   8.379
 1321TIP3    H228159   2.949   2.194   8.359
 1322TIP3   OH228160   3.186   2.190   7.466
 1322TIP3    H128161   3.217   2.221   7.381
 1322TIP3    H228162   3.210   2.097   7.468
 1323TIP3   OH228163   2.801   2.410   7.510
 1323TIP3    H128164   2.859   2.484   7.527
 1323TIP3    H228165   2.786   2.371   7.596
 1324TIP3   OH228166   2.850   2.524   8.362
 1324TIP3    H128167   2.864   2.545   8.454
 1324TIP3    H228168   2.888   2.437   8.351
 1325TIP3   OH228169   2.984   2.024   7.647
 1325TIP3    H128170   2.953   2.069   7.568
 1325TIP3    H228171   3.069   1.988   7.622
 1326TIP3   OH228172   2.706   3.483   7.374
 1326TIP3    H128173   2.798   3.456   7.378
 1326TIP3    H228174   2.682   3.497   7.466
 1327TIP3   OH228175   3.452   2.283   8.510
 1327TIP3    H128176   3.359   2.287   8.489
 1327TIP3    H228177   3.496   2.289   8.425
 1328TIP3   OH228178   3.381   2.688   7.878
 1328TIP3    H128179   3.307   2.637   7.844
 1328TIP3    H228180   3.434   2.624   7.924
 1329TIP3   OH228181   2.250   3.351   7.242
 1329TIP3    H128182   2.345   3.336   7.239
 1329TIP3    H228183   2.226   3.371   7.152
 1330TIP3   OH228184   2.191   2.383   7.076
 1330TIP3    H128185   2.267   2.334   7.108
 1330TIP3    H228186   2.223   2.473   7.068
 1331TIP3   OH228187   3.511   3.614   8.038
 1331TIP3    H128188   3.512   3.654   7.951
 1331TIP3    H228189   3.603   3.612   8.065
 1332TIP3   OH228190   2.162   1.992   7.947
 1332TIP3    H128191   2.174   1.976   7.853
 1332TIP3    H228192   2.177   1.907   7.988
 1333TIP3   OH228193   2.136   3.380   7.609
 1333TIP3    H128194   2.078   3.405   7.680
 1333TIP3    H228195   2.102   3.425   7.532
 1334TIP3   OH228196   2.017   3.684   8.753
 1334TIP3    H128197   2.059   3.649   8.831
 1334TIP3    H228198   1.975   3.609   8.712
 1335TIP3   OH228199   2.498   3.469   8.829
 1335TIP3    H128200   2.572   3.426   8.871
 1335TIP3    H228201   2.534   3.504   8.747
 1336TIP3   OH228202   3.109   3.356   8.815
 1336TIP3    H128203   3.108   3.267   8.849
 1336TIP3    H228204   3.180   3.399   8.862
 1337TIP3   OH228205   1.970   3.090   8.799
 1337TIP3    H128206   1.911   3.021   8.829
 1337TIP3    H228207   1.921   3.135   8.730
 1338TIP3   OH228208   2.707   3.073   8.730
 1338TIP3    H128209   2.692   3.115   8.645
 1338TIP3    H228210   2.738   2.985   8.709
 1339TIP3   OH228211   3.302   3.119   8.558
 1339TIP3    H128212   3.381   3.132   8.506
 1339TIP3    H228213   3.248   3.196   8.540
 1340TIP3   OH228214   2.256   2.836   8.760
 1340TIP3    H128215   2.223   2.797   8.679
 1340TIP3    H228216   2.205   2.795   8.830
 1341TIP3   OH228217   2.504   2.711   7.264
 1341TIP3    H128218   2.519   2.632   7.316
 1341TIP3    H228219   2.538   2.691   7.177
 1342TIP3   OH228220   2.415   2.627   8.472
 1342TIP3    H128221   2.347   2.692   8.492
 1342TIP3    H228222   2.494   2.678   8.457
 1343TIP3   OH228223   2.584   2.642   7.006
 1343TIP3    H128224   2.618   2.715   6.955
 1343TIP3    H228225   2.662   2.593   7.034
 1344TIP3   OH228226   3.033   2.927   8.726
 1344TIP3    H128227   3.114   2.890   8.691
 1344TIP3    H228228   3.000   2.861   8.786
 1345TIP3   OH228229   2.525   2.394   8.583
 1345TIP3    H128230   2.544   2.336   8.509
 1345TIP3    H228231   2.493   2.475   8.542
 1346TIP3   OH228232   2.575   2.251   8.346
 1346TIP3    H128233   2.633   2.286   8.278
 1346TIP3    H228234   2.495   2.226   8.300
 1347TIP3   OH228235   2.649   2.743   8.387
 1347TIP3    H128236   2.719   2.684   8.358
 1347TIP3    H228237   2.645   2.810   8.319
 1348TIP3   OH228238   3.138   2.583   8.771
 1348TIP3    H128239   3.117   2.489   8.772
 1348TIP3    H228240   3.231   2.586   8.751
 1349TIP3   OH228241   3.292   2.859   8.635
 1349TIP3    H128242   3.286   2.951   8.608
 1349TIP3    H228243   3.386   2.840   8.631
 1350TIP3   OH228244   2.360   2.400   8.807
 1350TIP3    H128245   2.291   2.336   8.791
 1350TIP3    H228246   2.411   2.401   8.726
 1351TIP3   OH228247   2.630   1.996   8.437
 1351TIP3    H128248   2.613   2.086   8.407
 1351TIP3    H228249   2.577   1.941   8.380
 1352TIP3   OH228250   2.756   2.378   8.748
 1352TIP3    H128251   2.716   2.354   8.832
 1352TIP3    H228252   2.682   2.377   8.686
 1353TIP3   OH228253   3.051   2.330   8.732
 1353TIP3    H128254   2.958   2.311   8.748
 1353TIP3    H228255   3.097   2.262   8.781
 1354TIP3   OH228256   3.207   2.157   8.879
 1354TIP3    H128257   3.209   2.064   8.857
 1354TIP3    H228258   3.191   2.159   8.973
 1355TIP3   OH228259   2.167   2.204   8.797
 1355TIP3    H128260   2.175   2.129   8.738
 1355TIP3    H228261   2.187   2.168   8.884
 1356TIP3   OH228262   2.614   1.892   8.688
 1356TIP3    H128263   2.674   1.818   8.682
 1356TIP3    H228264   2.613   1.930   8.600
 1357TIP3   OH228265   2.724   2.054   8.880
 1357TIP3    H128266   2.695   1.998   8.808
 1357TIP3    H228267   2.669   2.132   8.873
 1358TIP3   OH228268   1.917   3.671   7.667
 1358TIP3    H128269   1.875   3.622   7.597
 1358TIP3    H228270   1.939   3.605   7.733
 1359TIP3   OH228271   2.018   3.482   7.845
 1359TIP3    H128272   2.025   3.397   7.888
 1359TIP3    H228273   2.045   3.545   7.912
 1360TIP3   OH228274   3.776   3.622   8.101
 1360TIP3    H128275   3.795   3.686   8.171
 1360TIP3    H228276   3.853   3.626   8.044
 1361TIP3   OH228277   3.629   3.638   8.418
 1361TIP3    H128278   3.582   3.588   8.352
 1361TIP3    H228279   3.659   3.572   8.481
 1362TIP3   OH228280   3.576   3.198   8.853
 1362TIP3    H128281   3.492   3.187   8.897
 1362TIP3    H228282   3.617   3.272   8.898
 1363TIP3   OH228283   3.801   3.090   7.544
 1363TIP3    H128284   3.889   3.100   7.508
 1363TIP3    H228285   3.793   2.997   7.564
 1364TIP3   OH228286   3.777   2.816   7.606
 1364TIP3    H128287   3.683   2.805   7.625
 1364TIP3    H228288   3.819   2.811   7.692
 1365TIP3   OH228289   3.657   3.128   8.042
 1365TIP3    H128290   3.717   3.054   8.049
 1365TIP3    H228291   3.712   3.205   8.055
 1366TIP3   OH228292   3.452   3.409   8.357
 1366TIP3    H128293   3.397   3.469   8.406
 1366TIP3    H228294   3.395   3.375   8.288
 1367TIP3   OH228295   3.502   2.770   7.632
 1367TIP3    H128296   3.485   2.693   7.578
 1367TIP3    H228297   3.460   2.749   7.716
 1368TIP3   OH228298   1.979   2.827   8.040
 1368TIP3    H128299   2.015   2.827   7.951
 1368TIP3    H228300   2.052   2.799   8.095
 1369TIP3   OH228301   3.566   2.823   8.629
 1369TIP3    H128302   3.595   2.732   8.629
 1369TIP3    H228303   3.629   2.869   8.573
 1370TIP3   OH228304   3.671   2.564   8.611
 1370TIP3    H128305   3.589   2.533   8.648
 1370TIP3    H228306   3.726   2.486   8.602
 1371TIP3   OH228307   3.450   2.547   7.472
 1371TIP3    H128308   3.421   2.473   7.525
 1371TIP3    H228309   3.473   2.509   7.388
 1372TIP3   OH228310   3.545   2.503   8.027
 1372TIP3    H128311   3.640   2.503   8.034
 1372TIP3    H228312   3.515   2.522   8.116
 1373TIP3   OH228313   3.506   2.579   8.299
 1373TIP3    H128314   3.424   2.601   8.343
 1373TIP3    H228315   3.553   2.663   8.294
 1374TIP3   OH228316   1.986   2.323   8.628
 1374TIP3    H128317   2.043   2.295   8.701
 1374TIP3    H228318   1.918   2.256   8.625
 1375TIP3   OH228319   3.754   1.965   8.806
 1375TIP3    H128320   3.832   1.916   8.781
 1375TIP3    H228321   3.735   2.022   8.732
 1376TIP3   OH228322   2.054   2.229   8.019
 1376TIP3    H128323   2.095   2.144   8.002
 1376TIP3    H228324   2.128   2.288   8.038
 1377TIP3   OH228325   1.872   2.568   7.984
 1377TIP3    H128326   1.949   2.534   7.938
 1377TIP3    H228327   1.894   2.659   8.004
 1378TIP3   OH228328   3.649   2.113   8.599
 1378TIP3    H128329   3.575   2.172   8.590
 1378TIP3    H228330   3.632   2.044   8.534
 1379TIP3   OH228331   1.829   2.121   7.332
 1379TIP3    H128332   1.777   2.155   7.406
 1379TIP3    H228333   1.872   2.199   7.297
 1380TIP3   OH228334   1.964   1.974   8.305
 1380TIP3    H128335   1.889   1.951   8.361
 1380TIP3    H228336   1.932   2.046   8.252
 1381TIP3   OH228337   2.147   3.396   8.781
 1381TIP3    H128338   2.061   3.407   8.743
 1381TIP3    H228339   2.151   3.463   8.851
 1382TIP3   OH228340   2.518   3.556   8.445
 1382TIP3    H128341   2.487   3.640   8.412
 1382TIP3    H228342   2.597   3.537   8.394
 1383TIP3   OH228343   2.835   3.580   8.650
 1383TIP3    H128344   2.848   3.554   8.741
 1383TIP3    H228345   2.912   3.634   8.630
 1384TIP3   OH228346   3.063   3.735   8.616
 1384TIP3    H128347   3.135   3.695   8.568
 1384TIP3    H228348   3.101   3.764   8.699
 1385TIP3   OH228349   3.570   1.892   8.448
 1385TIP3    H128350   3.496   1.890   8.387
 1385TIP3    H228351   3.617   1.810   8.431
 1386TIP3   OH228352   2.212   3.923   8.429
 1386TIP3    H128353   2.120   3.911   8.405
 1386TIP3    H228354   2.215   3.904   8.523
 1387TIP3   OH228355   2.443   3.801   8.337
 1387TIP3    H128356   2.361   3.841   8.364
 1387TIP3    H228357   2.449   3.818   8.243
 1388TIP3   OH228358   2.891   3.714   8.197
 1388TIP3    H128359   2.839   3.754   8.129
 1388TIP3    H228360   2.903   3.783   8.263
 1389TIP3   OH228361   3.108   3.545   8.220
 1389TIP3    H128362   3.030   3.598   8.203
 1389TIP3    H228363   3.181   3.605   8.204
 1390TIP3   OH228364   3.338   3.700   8.230
 1390TIP3    H128365   3.363   3.792   8.231
 1390TIP3    H228366   3.390   3.661   8.161
 1391TIP3   OH228367   2.135   3.612   8.071
 1391TIP3    H128368   2.128   3.558   8.150
 1391TIP3    H228369   2.218   3.586   8.031
 1392TIP3   OH228370   2.365   3.508   7.964
 1392TIP3    H128371   2.362   3.414   7.981
 1392TIP3    H228372   2.455   3.533   7.987
 1393TIP3   OH228373   2.631   3.512   8.043
 1393TIP3    H128374   2.651   3.426   8.006
 1393TIP3    H228375   2.663   3.507   8.133
 1394TIP3   OH228376   2.950   2.129   7.901
 1394TIP3    H128377   2.892   2.065   7.941
 1394TIP3    H228378   2.974   2.091   7.817
 1395TIP3   OH228379   3.565   1.979   7.825
 1395TIP3    H128380   3.640   2.037   7.834
 1395TIP3    H228381   3.525   2.004   7.742
 1396TIP3   OH228382   3.755   2.185   7.834
 1396TIP3    H128383   3.824   2.178   7.767
 1396TIP3    H228384   3.695   2.250   7.798
 1397TIP3   OH228385   2.150   1.910   7.675
 1397TIP3    H128386   2.056   1.892   7.675
 1397TIP3    H228387   2.191   1.825   7.657
 1398TIP3   OH228388   2.059   1.998   7.256
 1398TIP3    H128389   2.127   2.057   7.288
 1398TIP3    H228390   1.977   2.037   7.286
 1399TIP3   OH228391   2.758   1.896   7.738
 1399TIP3    H128392   2.838   1.932   7.699
 1399TIP3    H228393   2.695   1.968   7.733
 1400TIP3   OH228394   2.060   3.507   7.380
 1400TIP3    H128395   2.118   3.457   7.322
 1400TIP3    H228396   2.081   3.599   7.360
 1401TIP3   OH228397   2.244   2.170   7.348
 1401TIP3    H128398   2.312   2.214   7.297
 1401TIP3    H228399   2.271   2.183   7.439
 1402TIP3   OH228400   2.911   2.165   7.415
 1402TIP3    H128401   3.004   2.187   7.417
 1402TIP3    H228402   2.866   2.249   7.431
 1403TIP3   OH228403   3.050   3.690   7.223
 1403TIP3    H128404   3.125   3.707   7.165
 1403TIP3    H228405   3.066   3.602   7.257
 1404TIP3   OH228406   3.646   3.733   7.481
 1404TIP3    H128407   3.689   3.790   7.416
 1404TIP3    H228408   3.582   3.789   7.524
 1405TIP3   OH228409   2.192   1.984   8.620
 1405TIP3    H128410   2.129   1.918   8.647
 1405TIP3    H228411   2.271   1.964   8.671
 1406TIP3   OH228412   2.372   1.917   8.818
 1406TIP3    H128413   2.458   1.898   8.781
 1406TIP3    H228414   2.341   1.833   8.852
 1407TIP3   OH228415   3.233   1.891   8.804
 1407TIP3    H128416   3.227   1.843   8.887
 1407TIP3    H228417   3.324   1.881   8.776
 1408TIP3   OH228418   3.422   3.533   8.702
 1408TIP3    H128419   3.358   3.545   8.632
 1408TIP3    H228420   3.445   3.622   8.729
 1409TIP3   OH228421   5.011   2.951   7.657
 1409TIP3    H128422   5.010   3.045   7.639
 1409TIP3    H228423   4.942   2.915   7.602
 1410TIP3   OH228424   4.843   2.806   8.074
 1410TIP3    H128425   4.903   2.741   8.112
 1410TIP3    H228426   4.859   2.885   8.125
 1411TIP3   OH228427   4.002   2.755   8.227
 1411TIP3    H128428   4.005   2.659   8.225
 1411TIP3    H228429   4.047   2.778   8.308
 1412TIP3   OH228430   5.319   3.133   7.865
 1412TIP3    H128431   5.288   3.043   7.863
 1412TIP3    H228432   5.410   3.127   7.894
 1413TIP3   OH228433   4.281   3.210   7.994
 1413TIP3    H128434   4.232   3.134   7.963
 1413TIP3    H228435   4.365   3.205   7.949
 1414TIP3   OH228436   3.879   2.582   7.491
 1414TIP3    H128437   3.834   2.658   7.528
 1414TIP3    H228438   3.822   2.553   7.419
 1415TIP3   OH228439   3.929   2.799   7.847
 1415TIP3    H128440   3.962   2.711   7.860
 1415TIP3    H228441   4.005   2.856   7.857
 1416TIP3   OH228442   4.909   3.686   7.926
 1416TIP3    H128443   4.942   3.656   7.841
 1416TIP3    H228444   4.915   3.609   7.982
 1417TIP3   OH228445   4.734   3.077   7.998
 1417TIP3    H128446   4.770   3.008   7.943
 1417TIP3    H228447   4.796   3.085   8.070
 1418TIP3   OH228448   5.648   2.184   8.159
 1418TIP3    H128449   5.627   2.261   8.212
 1418TIP3    H228450   5.729   2.207   8.115
 1419TIP3   OH228451   5.048   2.397   8.031
 1419TIP3    H128452   5.055   2.305   8.057
 1419TIP3    H228453   5.031   2.394   7.937
 1420TIP3   OH228454   4.451   2.311   7.833
 1420TIP3    H128455   4.412   2.371   7.768
 1420TIP3    H228456   4.490   2.241   7.780
 1421TIP3   OH228457   5.056   2.235   7.550
 1421TIP3    H128458   5.094   2.159   7.507
 1421TIP3    H228459   5.064   2.306   7.486
 1422TIP3   OH228460   4.026   2.531   7.895
 1422TIP3    H128461   4.102   2.491   7.938
 1422TIP3    H228462   4.023   2.491   7.809
 1423TIP3   OH228463   4.456   2.686   7.833
 1423TIP3    H128464   4.542   2.655   7.861
 1423TIP3    H228465   4.417   2.612   7.787
 1424TIP3   OH228466   5.589   2.381   8.353
 1424TIP3    H128467   5.540   2.463   8.343
 1424TIP3    H228468   5.647   2.396   8.427
 1425TIP3   OH228469   4.219   2.186   8.194
 1425TIP3    H128470   4.213   2.254   8.127
 1425TIP3    H228471   4.146   2.204   8.253
 1426TIP3   OH228472   5.005   3.210   7.560
 1426TIP3    H128473   5.031   3.185   7.471
 1426TIP3    H228474   4.941   3.281   7.547
 1427TIP3   OH228475   4.534   2.994   8.171
 1427TIP3    H128476   4.493   3.075   8.201
 1427TIP3    H228477   4.602   3.023   8.110
 1428TIP3   OH228478   4.251   2.392   8.012
 1428TIP3    H128479   4.287   2.461   8.068
 1428TIP3    H228480   4.323   2.369   7.952
 1429TIP3   OH228481   4.405   3.231   8.244
 1429TIP3    H128482   4.422   3.324   8.256
 1429TIP3    H228483   4.349   3.226   8.166
 1430TIP3   OH228484   4.049   3.154   7.417
 1430TIP3    H128485   4.007   3.201   7.345
 1430TIP3    H228486   4.077   3.223   7.477
 1431TIP3   OH228487   5.245   3.409   8.039
 1431TIP3    H128488   5.223   3.333   8.094
 1431TIP3    H228489   5.212   3.386   7.952
 1432TIP3   OH228490   5.265   2.034   8.276
 1432TIP3    H128491   5.191   2.070   8.228
 1432TIP3    H228492   5.296   2.106   8.331
 1433TIP3   OH228493   4.629   1.997   7.980
 1433TIP3    H128494   4.609   2.018   7.889
 1433TIP3    H228495   4.601   2.074   8.029
 1434TIP3   OH228496   5.011   3.557   7.704
 1434TIP3    H128497   5.063   3.482   7.732
 1434TIP3    H228498   5.065   3.599   7.637
 1435TIP3   OH228499   5.146   3.323   7.777
 1435TIP3    H128500   5.101   3.283   7.702
 1435TIP3    H228501   5.211   3.257   7.803
 1436TIP3   OH228502   5.431   3.088   8.438
 1436TIP3    H128503   5.441   3.062   8.346
 1436TIP3    H228504   5.350   3.138   8.439
 1437TIP3   OH228505   4.826   2.855   7.473
 1437TIP3    H128506   4.745   2.905   7.467
 1437TIP3    H228507   4.859   2.851   7.384
 1438TIP3   OH228508   5.565   2.800   8.211
 1438TIP3    H128509   5.508   2.875   8.197
 1438TIP3    H228510   5.611   2.790   8.128
 1439TIP3   OH228511   5.238   2.850   7.529
 1439TIP3    H128512   5.173   2.890   7.586
 1439TIP3    H228513   5.292   2.797   7.588
 1440TIP3   OH228514   5.166   2.678   8.383
 1440TIP3    H128515   5.143   2.766   8.413
 1440TIP3    H228516   5.105   2.660   8.311
 1441TIP3   OH228517   4.304   2.871   7.695
 1441TIP3    H128518   4.245   2.812   7.648
 1441TIP3    H228519   4.369   2.813   7.734
 1442TIP3   OH228520   4.539   3.237   7.889
 1442TIP3    H128521   4.528   3.201   7.801
 1442TIP3    H228522   4.613   3.190   7.927
 1443TIP3   OH228523   4.354   2.824   8.050
 1443TIP3    H128524   4.398   2.786   7.975
 1443TIP3    H228525   4.420   2.879   8.091
 1444TIP3   OH228526   4.963   3.428   8.227
 1444TIP3    H128527   5.021   3.493   8.270
 1444TIP3    H228528   5.015   3.348   8.226
 1445TIP3   OH228529   4.495   3.211   8.509
 1445TIP3    H128530   4.433   3.278   8.538
 1445TIP3    H228531   4.469   3.192   8.419
 1446TIP3   OH228532   5.074   2.702   7.365
 1446TIP3    H128533   5.127   2.763   7.417
 1446TIP3    H228534   5.029   2.758   7.302
 1447TIP3   OH228535   4.076   2.837   8.483
 1447TIP3    H128536   4.120   2.838   8.568
 1447TIP3    H228537   3.986   2.812   8.503
 1448TIP3   OH228538   4.842   3.433   7.513
 1448TIP3    H128539   4.893   3.482   7.576
 1448TIP3    H228540   4.793   3.500   7.465
 1449TIP3   OH228541   4.311   3.423   8.535
 1449TIP3    H128542   4.364   3.458   8.464
 1449TIP3    H228543   4.240   3.377   8.492
 1450TIP3   OH228544   4.122   2.698   7.571
 1450TIP3    H128545   4.125   2.762   7.500
 1450TIP3    H228546   4.044   2.646   7.554
 1451TIP3   OH228547   5.808   3.378   7.331
 1451TIP3    H128548   5.736   3.438   7.315
 1451TIP3    H228549   5.872   3.398   7.263
 1452TIP3   OH228550   3.952   3.052   8.338
 1452TIP3    H128551   3.927   3.024   8.250
 1452TIP3    H228552   4.005   2.980   8.372
 1453TIP3   OH228553   3.824   3.349   8.081
 1453TIP3    H128554   3.901   3.350   8.139
 1453TIP3    H228555   3.785   3.436   8.092
 1454TIP3   OH228556   5.669   3.439   8.654
 1454TIP3    H128557   5.665   3.348   8.624
 1454TIP3    H228558   5.580   3.458   8.685
 1455TIP3   OH228559   4.754   3.301   8.529
 1455TIP3    H128560   4.746   3.396   8.539
 1455TIP3    H228561   4.664   3.270   8.520
 1456TIP3   OH228562   4.689   3.606   7.341
 1456TIP3    H128563   4.747   3.562   7.278
 1456TIP3    H228564   4.691   3.698   7.315
 1457TIP3   OH228565   4.179   3.613   7.715
 1457TIP3    H128566   4.229   3.572   7.786
 1457TIP3    H228567   4.164   3.542   7.652
 1458TIP3   OH228568   5.353   2.568   8.683
 1458TIP3    H128569   5.312   2.654   8.684
 1458TIP3    H228570   5.303   2.518   8.619
 1459TIP3   OH228571   4.096   3.263   8.452
 1459TIP3    H128572   4.135   3.208   8.519
 1459TIP3    H228573   4.046   3.203   8.397
 1460TIP3   OH228574   4.751   1.981   8.403
 1460TIP3    H128575   4.794   1.942   8.479
 1460TIP3    H228576   4.659   1.983   8.426
 1461TIP3   OH228577   5.179   2.433   8.518
 1461TIP3    H128578   5.096   2.396   8.547
 1461TIP3    H228579   5.154   2.513   8.471
 1462TIP3   OH228580   4.352   2.583   8.181
 1462TIP3    H128581   4.312   2.596   8.267
 1462TIP3    H228582   4.345   2.669   8.139
 1463TIP3   OH228583   4.320   2.494   7.678
 1463TIP3    H128584   4.225   2.496   7.665
 1463TIP3    H228585   4.356   2.529   7.596
 1464TIP3   OH228586   4.927   2.617   7.592
 1464TIP3    H128587   4.876   2.698   7.592
 1464TIP3    H228588   4.979   2.621   7.512
 1465TIP3   OH228589   4.865   2.557   8.618
 1465TIP3    H128590   4.810   2.494   8.665
 1465TIP3    H228591   4.894   2.618   8.685
 1466TIP3   OH228592   5.044   2.424   7.756
 1466TIP3    H128593   4.999   2.496   7.712
 1466TIP3    H228594   5.054   2.356   7.689
 1467TIP3   OH228595   4.033   2.483   8.292
 1467TIP3    H128596   4.106   2.521   8.340
 1467TIP3    H228597   4.028   2.392   8.322
 1468TIP3   OH228598   4.982   2.603   8.196
 1468TIP3    H128599   5.010   2.535   8.135
 1468TIP3    H228600   4.914   2.561   8.248
 1469TIP3   OH228601   4.729   2.349   7.862
 1469TIP3    H128602   4.634   2.341   7.867
 1469TIP3    H228603   4.747   2.440   7.883
 1470TIP3   OH228604   4.027   2.405   7.650
 1470TIP3    H128605   3.973   2.452   7.587
 1470TIP3    H228606   3.997   2.314   7.644
 1471TIP3   OH228607   4.459   2.584   7.456
 1471TIP3    H128608   4.544   2.566   7.494
 1471TIP3    H228609   4.455   2.527   7.378
 1472TIP3   OH228610   5.055   2.132   8.128
 1472TIP3    H128611   4.998   2.160   8.199
 1472TIP3    H228612   4.999   2.078   8.072
 1473TIP3   OH228613   4.237   2.397   7.230
 1473TIP3    H128614   4.199   2.387   7.318
 1473TIP3    H228615   4.330   2.382   7.243
 1474TIP3   OH228616   5.387   3.792   8.735
 1474TIP3    H128617   5.407   3.798   8.642
 1474TIP3    H228618   5.471   3.812   8.778
 1475TIP3   OH228619   4.178   3.107   8.658
 1475TIP3    H128620   4.208   3.128   8.746
 1475TIP3    H228621   4.198   3.014   8.647
 1476TIP3   OH228622   4.689   2.606   7.959
 1476TIP3    H128623   4.741   2.680   7.990
 1476TIP3    H228624   4.667   2.557   8.038
 1477TIP3   OH228625   4.597   2.454   8.181
 1477TIP3    H128626   4.524   2.515   8.194
 1477TIP3    H228627   4.660   2.478   8.248
 1478TIP3   OH228628   4.610   3.020   7.431
 1478TIP3    H128629   4.654   3.094   7.389
 1478TIP3    H228630   4.575   3.056   7.512
 1479TIP3   OH228631   5.414   3.024   8.172
 1479TIP3    H128632   5.458   3.072   8.102
 1479TIP3    H228633   5.327   3.062   8.177
 1480TIP3   OH228634   4.830   3.024   8.503
 1480TIP3    H128635   4.826   2.984   8.590
 1480TIP3    H228636   4.806   3.115   8.517
 1481TIP3   OH228637   5.136   2.438   7.384
 1481TIP3    H128638   5.100   2.525   7.372
 1481TIP3    H228639   5.161   2.410   7.296
 1482TIP3   OH228640   4.160   2.962   7.910
 1482TIP3    H128641   4.204   2.943   7.827
 1482TIP3    H228642   4.209   2.911   7.975
 1483TIP3   OH228643   4.962   2.900   7.211
 1483TIP3    H128644   4.996   2.982   7.245
 1483TIP3    H228645   4.921   2.924   7.128
 1484TIP3   OH228646   3.813   2.770   8.492
 1484TIP3    H128647   3.777   2.690   8.531
 1484TIP3    H228648   3.764   2.782   8.411
 1485TIP3   OH228649   4.493   2.651   8.536
 1485TIP3    H128650   4.542   2.707   8.477
 1485TIP3    H228651   4.507   2.688   8.623
 1486TIP3   OH228652   5.032   3.309   8.543
 1486TIP3    H128653   5.063   3.264   8.465
 1486TIP3    H228654   4.936   3.302   8.539
 1487TIP3   OH228655   5.663   3.183   8.554
 1487TIP3    H128656   5.575   3.167   8.521
 1487TIP3    H228657   5.721   3.147   8.487
 1488TIP3   OH228658   5.208   2.882   7.844
 1488TIP3    H128659   5.126   2.900   7.798
 1488TIP3    H228660   5.203   2.790   7.868
 1489TIP3   OH228661   4.343   3.321   7.577
 1489TIP3    H128662   4.389   3.403   7.558
 1489TIP3    H228663   4.251   3.346   7.580
 1490TIP3   OH228664   4.470   3.096   7.659
 1490TIP3    H128665   4.420   3.170   7.625
 1490TIP3    H228666   4.407   3.024   7.662
 1491TIP3   OH228667   4.710   3.528   8.199
 1491TIP3    H128668   4.748   3.615   8.208
 1491TIP3    H228669   4.784   3.468   8.210
 1492TIP3   OH228670   4.464   3.565   7.517
 1492TIP3    H128671   4.448   3.656   7.544
 1492TIP3    H228672   4.544   3.569   7.465
 1493TIP3   OH228673   4.892   3.039   8.222
 1493TIP3    H128674   4.866   3.037   8.314
 1493TIP3    H228675   4.977   3.083   8.222
 1494TIP3   OH228676   5.062   3.145   7.296
 1494TIP3    H128677   5.157   3.148   7.282
 1494TIP3    H228678   5.025   3.193   7.222
 1495TIP3   OH228679   5.205   3.515   8.543
 1495TIP3    H128680   5.144   3.443   8.559
 1495TIP3    H228681   5.158   3.574   8.484
 1496TIP3   OH228682   5.594   3.554   7.317
 1496TIP3    H128683   5.552   3.554   7.231
 1496TIP3    H228684   5.524   3.579   7.378
 1497TIP3   OH228685   4.031   2.223   8.399
 1497TIP3    H128686   3.943   2.244   8.429
 1497TIP3    H228687   4.061   2.155   8.460
 1498TIP3   OH228688   5.333   3.047   7.359
 1498TIP3    H128689   5.294   2.986   7.423
 1498TIP3    H228690   5.425   3.020   7.354
 1499TIP3   OH228691   4.031   3.471   8.264
 1499TIP3    H128692   4.059   3.402   8.324
 1499TIP3    H228693   4.052   3.552   8.310
 1500TIP3   OH228694   4.139   2.892   7.382
 1500TIP3    H128695   4.126   2.984   7.406
 1500TIP3    H228696   4.233   2.883   7.370
 1501TIP3   OH228697   4.908   2.202   8.355
 1501TIP3    H128698   4.943   2.219   8.443
 1501TIP3    H228699   4.847   2.129   8.366
 1502TIP3   OH228700   4.741   3.240   7.331
 1502TIP3    H128701   4.779   3.305   7.391
 1502TIP3    H228702   4.796   3.243   7.253
 1503TIP3   OH228703   4.701   2.463   7.539
 1503TIP3    H128704   4.725   2.452   7.447
 1503TIP3    H228705   4.775   2.509   7.579
 1504TIP3   OH228706   4.805   2.472   8.361
 1504TIP3    H128707   4.822   2.507   8.448
 1504TIP3    H228708   4.838   2.382   8.365
 1505TIP3   OH228709   4.857   2.152   7.723
 1505TIP3    H128710   4.825   2.233   7.762
 1505TIP3    H228711   4.915   2.181   7.653
 1506TIP3   OH228712   4.482   3.598   7.136
 1506TIP3    H128713   4.544   3.655   7.091
 1506TIP3    H228714   4.522   3.582   7.222
 1507TIP3   OH228715   5.358   2.242   8.427
 1507TIP3    H128716   5.294   2.308   8.454
 1507TIP3    H228717   5.429   2.293   8.387
 1508TIP3   OH228718   5.226   2.606   7.883
 1508TIP3    H128719   5.156   2.544   7.861
 1508TIP3    H228720   5.270   2.568   7.959
 1509TIP3   OH228721   5.366   3.652   8.093
 1509TIP3    H128722   5.329   3.566   8.077
 1509TIP3    H228723   5.460   3.637   8.102
 1510TIP3   OH228724   4.072   3.383   7.588
 1510TIP3    H128725   4.016   3.379   7.665
 1510TIP3    H228726   4.020   3.430   7.522
 1511TIP3   OH228727   3.933   3.672   8.705
 1511TIP3    H128728   3.975   3.638   8.784
 1511TIP3    H228729   3.912   3.595   8.654
 1512TIP3   OH228730   4.305   3.513   8.800
 1512TIP3    H128731   4.379   3.468   8.841
 1512TIP3    H228732   4.308   3.486   8.708
 1513TIP3   OH228733   4.951   3.356   8.939
 1513TIP3    H128734   4.956   3.260   8.932
 1513TIP3    H228735   5.040   3.386   8.922
 1514TIP3   OH228736   3.885   3.068   8.813
 1514TIP3    H128737   3.910   2.994   8.869
 1514TIP3    H228738   3.896   3.035   8.724
 1515TIP3   OH228739   4.532   3.116   8.766
 1515TIP3    H128740   4.530   3.133   8.672
 1515TIP3    H228741   4.549   3.022   8.774
 1516TIP3   OH228742   5.099   2.935   8.466
 1516TIP3    H128743   5.130   3.005   8.408
 1516TIP3    H228744   5.007   2.957   8.483
 1517TIP3   OH228745   4.224   2.832   8.714
 1517TIP3    H128746   4.319   2.823   8.724
 1517TIP3    H228747   4.188   2.805   8.799
 1518TIP3   OH228748   4.405   2.849   7.356
 1518TIP3    H128749   4.427   2.760   7.384
 1518TIP3    H228750   4.484   2.901   7.376
 1519TIP3   OH228751   4.240   2.616   8.428
 1519TIP3    H128752   4.324   2.621   8.473
 1519TIP3    H228753   4.194   2.696   8.455
 1520TIP3   OH228754   4.828   2.905   8.758
 1520TIP3    H128755   4.880   2.829   8.784
 1520TIP3    H228756   4.737   2.878   8.773
 1521TIP3   OH228757   4.477   2.379   8.583
 1521TIP3    H128758   4.474   2.335   8.498
 1521TIP3    H228759   4.492   2.472   8.562
 1522TIP3   OH228760   4.458   2.258   8.325
 1522TIP3    H128761   4.511   2.315   8.269
 1522TIP3    H228762   4.377   2.245   8.276
 1523TIP3   OH228763   4.625   2.837   8.383
 1523TIP3    H128764   4.696   2.891   8.419
 1523TIP3    H228765   4.594   2.885   8.307
 1524TIP3   OH228766   5.129   2.467   8.847
 1524TIP3    H128767   5.123   2.372   8.845
 1524TIP3    H228768   5.212   2.487   8.805
 1525TIP3   OH228769   5.248   2.823   8.673
 1525TIP3    H128770   5.184   2.860   8.612
 1525TIP3    H228771   5.332   2.859   8.645
 1526TIP3   OH228772   4.276   2.415   8.775
 1526TIP3    H128773   4.192   2.384   8.741
 1526TIP3    H228774   4.336   2.407   8.701
 1527TIP3   OH228775   4.475   2.000   8.422
 1527TIP3    H128776   4.473   2.092   8.398
 1527TIP3    H228777   4.407   1.960   8.368
 1528TIP3   OH228778   4.725   2.345   8.730
 1528TIP3    H128779   4.714   2.324   8.823
 1528TIP3    H228780   4.635   2.346   8.695
 1529TIP3   OH228781   4.969   2.265   8.616
 1529TIP3    H128782   4.885   2.294   8.652
 1529TIP3    H228783   5.017   2.231   8.691
 1530TIP3   OH228784   5.103   2.178   8.850
 1530TIP3    H128785   5.091   2.085   8.832
 1530TIP3    H228786   5.059   2.193   8.934
 1531TIP3   OH228787   4.025   2.259   8.743
 1531TIP3    H128788   4.047   2.176   8.701
 1531TIP3    H228789   4.042   2.243   8.836
 1532TIP3   OH228790   4.483   1.901   8.678
 1532TIP3    H128791   4.537   1.822   8.670
 1532TIP3    H228792   4.477   1.935   8.589
 1533TIP3   OH228793   4.583   2.025   8.903
 1533TIP3    H128794   4.558   1.978   8.823
 1533TIP3    H228795   4.521   2.097   8.909
 1534TIP3   OH228796   4.699   3.764   7.081
 1534TIP3    H128797   4.772   3.702   7.068
 1534TIP3    H228798   4.726   3.843   7.034
 1535TIP3   OH228799   3.826   3.682   7.680
 1535TIP3    H128800   3.774   3.687   7.599
 1535TIP3    H228801   3.855   3.592   7.684
 1536TIP3   OH228802   3.907   3.432   7.810
 1536TIP3    H128803   3.874   3.372   7.877
 1536TIP3    H228804   3.956   3.498   7.859
 1537TIP3   OH228805   5.641   3.666   8.148
 1537TIP3    H128806   5.636   3.633   8.238
 1537TIP3    H228807   5.732   3.652   8.123
 1538TIP3   OH228808   5.599   3.563   8.404
 1538TIP3    H128809   5.531   3.501   8.380
 1538TIP3    H228810   5.644   3.523   8.478
 1539TIP3   OH228811   5.490   3.174   8.936
 1539TIP3    H128812   5.398   3.176   8.963
 1539TIP3    H228813   5.533   3.237   8.993
 1540TIP3   OH228814   5.602   2.919   7.352
 1540TIP3    H128815   5.645   2.998   7.385
 1540TIP3    H228816   5.606   2.857   7.425
 1541TIP3   OH228817   5.625   2.730   7.553
 1541TIP3    H128818   5.546   2.718   7.604
 1541TIP3    H228819   5.695   2.740   7.618
 1542TIP3   OH228820   5.574   3.148   7.984
 1542TIP3    H128821   5.658   3.104   7.996
 1542TIP3    H228822   5.594   3.241   7.989
 1543TIP3   OH228823   5.387   3.399   8.371
 1543TIP3    H128824   5.323   3.438   8.430
 1543TIP3    H228825   5.336   3.336   8.319
 1544TIP3   OH228826   5.389   2.654   7.668
 1544TIP3    H128827   5.374   2.569   7.628
 1544TIP3    H228828   5.340   2.652   7.750
 1545TIP3   OH228829   3.831   2.907   8.085
 1545TIP3    H128830   3.842   2.882   7.993
 1545TIP3    H228831   3.895   2.853   8.131
 1546TIP3   OH228832   5.507   2.892   8.609
 1546TIP3    H128833   5.565   2.832   8.563
 1546TIP3    H228834   5.488   2.961   8.546
 1547TIP3   OH228835   5.618   2.607   8.587
 1547TIP3    H128836   5.528   2.598   8.619
 1547TIP3    H228837   5.662   2.526   8.614
 1548TIP3   OH228838   5.358   2.410   7.541
 1548TIP3    H128839   5.364   2.315   7.553
 1548TIP3    H228840   5.276   2.423   7.493
 1549TIP3   OH228841   5.396   2.493   8.071
 1549TIP3    H128842   5.487   2.499   8.041
 1549TIP3    H228843   5.398   2.521   8.162
 1550TIP3   OH228844   5.423   2.597   8.326
 1550TIP3    H128845   5.335   2.625   8.351
 1550TIP3    H228846   5.465   2.675   8.292
 1551TIP3   OH228847   3.818   2.328   8.568
 1551TIP3    H128848   3.888   2.323   8.632
 1551TIP3    H228849   3.764   2.251   8.585
 1552TIP3   OH228850   5.630   1.984   8.809
 1552TIP3    H128851   5.698   1.929   8.771
 1552TIP3    H228852   5.616   2.052   8.744
 1553TIP3   OH228853   3.821   2.494   8.080
 1553TIP3    H128854   3.881   2.510   8.008
 1553TIP3    H228855   3.877   2.484   8.157
 1554TIP3   OH228856   5.523   2.175   8.641
 1554TIP3    H128857   5.465   2.198   8.714
 1554TIP3    H228858   5.466   2.177   8.564
 1555TIP3   OH228859   3.778   2.011   8.293
 1555TIP3    H128860   3.703   1.971   8.337
 1555TIP3    H228861   3.740   2.058   8.219
 1556TIP3   OH228862   3.957   3.381   8.671
 1556TIP3    H128863   4.018   3.350   8.604
 1556TIP3    H228864   4.013   3.410   8.742
 1557TIP3   OH228865   4.458   3.495   8.312
 1557TIP3    H128866   4.423   3.583   8.297
 1557TIP3    H228867   4.549   3.500   8.283
 1558TIP3   OH228868   4.726   3.583   8.600
 1558TIP3    H128869   4.736   3.559   8.692
 1558TIP3    H228870   4.793   3.649   8.584
 1559TIP3   OH228871   4.926   3.779   8.574
 1559TIP3    H128872   4.983   3.738   8.509
 1559TIP3    H228873   4.981   3.785   8.653
 1560TIP3   OH228874   5.457   1.912   8.448
 1560TIP3    H128875   5.389   1.939   8.386
 1560TIP3    H228876   5.478   1.822   8.421
 1561TIP3   OH228877   4.078   3.728   8.374
 1561TIP3    H128878   3.994   3.759   8.340
 1561TIP3    H228879   4.092   3.779   8.454
 1562TIP3   OH228880   4.344   3.745   8.284
 1562TIP3    H128881   4.253   3.736   8.314
 1562TIP3    H228882   4.337   3.780   8.195
 1563TIP3   OH228883   4.865   3.761   8.197
 1563TIP3    H128884   4.876   3.773   8.103
 1563TIP3    H228885   4.842   3.848   8.230
 1564TIP3   OH228886   5.069   3.673   8.361
 1564TIP3    H128887   4.996   3.695   8.302
 1564TIP3    H228888   5.141   3.727   8.330
 1565TIP3   OH228889   5.277   3.831   8.275
 1565TIP3    H128890   5.292   3.919   8.242
 1565TIP3    H228891   5.306   3.774   8.204
 1566TIP3   OH228892   4.037   3.590   8.013
 1566TIP3    H128893   4.035   3.549   8.099
 1566TIP3    H228894   4.123   3.565   7.977
 1567TIP3   OH228895   4.275   3.482   7.939
 1567TIP3    H128896   4.267   3.388   7.956
 1567TIP3    H228897   4.368   3.500   7.952
 1568TIP3   OH228898   4.545   3.509   7.974
 1568TIP3    H128899   4.557   3.423   7.934
 1568TIP3    H228900   4.605   3.511   8.048
 1569TIP3   OH228901   4.904   1.996   7.939
 1569TIP3    H128902   4.812   1.990   7.966
 1569TIP3    H228903   4.902   2.049   7.860
 1570TIP3   OH228904   4.587   2.090   7.720
 1570TIP3    H128905   4.553   2.118   7.635
 1570TIP3    H228906   4.682   2.101   7.713
 1571TIP3   OH228907   3.916   3.496   7.399
 1571TIP3    H128908   3.907   3.422   7.339
 1571TIP3    H228909   3.912   3.573   7.343
 1572TIP3   OH228910   4.517   2.257   7.514
 1572TIP3    H128911   4.498   2.269   7.420
 1572TIP3    H228912   4.581   2.325   7.535
 1573TIP3   OH228913   4.872   3.518   7.156
 1573TIP3    H128914   4.958   3.558   7.143
 1573TIP3    H228915   4.884   3.426   7.132
 1574TIP3   OH228916   4.080   2.020   8.600
 1574TIP3    H128917   4.031   1.951   8.644
 1574TIP3    H228918   4.165   2.020   8.644
 1575TIP3   OH228919   4.257   1.979   8.813
 1575TIP3    H128920   4.340   1.953   8.774
 1575TIP3    H228921   4.229   1.903   8.864
 1576TIP3   OH228922   5.109   1.906   8.788
 1576TIP3    H128923   5.109   1.861   8.873
 1576TIP3    H228924   5.200   1.900   8.759
 1577TIP3   OH228925   5.409   3.513   8.724
 1577TIP3    H128926   5.343   3.498   8.656
 1577TIP3    H228927   5.401   3.606   8.745
 1578TIP3   OH228928   6.009   2.773   8.098
 1578TIP3    H128929   5.929   2.724   8.079
 1578TIP3    H228930   5.982   2.864   8.100
 1579TIP3   OH228931   7.230   3.159   7.971
 1579TIP3    H128932   7.191   3.168   7.884
 1579TIP3    H228933   7.195   3.234   8.020
 1580TIP3   OH228934   6.122   3.238   8.056
 1580TIP3    H128935   6.044   3.181   8.057
 1580TIP3    H228936   6.177   3.201   7.987
 1581TIP3   OH228937   5.586   2.497   7.405
 1581TIP3    H128938   5.608   2.579   7.449
 1581TIP3    H228939   5.506   2.468   7.448
 1582TIP3   OH228940   5.836   2.734   7.735
 1582TIP3    H128941   5.857   2.644   7.757
 1582TIP3    H228942   5.920   2.774   7.714
 1583TIP3   OH228943   6.850   3.566   7.942
 1583TIP3    H128944   6.809   3.514   7.873
 1583TIP3    H228945   6.848   3.510   8.019
 1584TIP3   OH228946   6.643   3.127   8.012
 1584TIP3    H128947   6.704   3.163   7.948
 1584TIP3    H228948   6.689   3.133   8.096
 1585TIP3   OH228949   7.479   2.224   8.129
 1585TIP3    H128950   7.459   2.271   8.209
 1585TIP3    H228951   7.514   2.291   8.069
 1586TIP3   OH228952   6.866   2.408   8.031
 1586TIP3    H128953   6.920   2.329   8.031
 1586TIP3    H228954   6.777   2.377   8.049
 1587TIP3   OH228955   6.276   2.278   7.756
 1587TIP3    H128956   6.262   2.363   7.714
 1587TIP3    H228957   6.232   2.215   7.699
 1588TIP3   OH228958   7.078   2.181   7.605
 1588TIP3    H128959   7.109   2.221   7.686
 1588TIP3    H228960   7.145   2.203   7.540
 1589TIP3   OH228961   5.884   2.473   7.809
 1589TIP3    H128962   5.958   2.446   7.864
 1589TIP3    H228963   5.901   2.432   7.724
 1590TIP3   OH228964   6.336   2.697   7.760
 1590TIP3    H128965   6.308   2.707   7.851
 1590TIP3    H228966   6.285   2.623   7.727
 1591TIP3   OH228967   7.410   2.358   8.353
 1591TIP3    H128968   7.376   2.444   8.330
 1591TIP3    H228969   7.473   2.375   8.423
 1592TIP3   OH228970   6.082   2.194   8.243
 1592TIP3    H128971   6.011   2.203   8.179
 1592TIP3    H228972   6.041   2.215   8.327
 1593TIP3   OH228973   6.430   2.970   8.121
 1593TIP3    H128974   6.374   3.034   8.167
 1593TIP3    H228975   6.493   3.024   8.074
 1594TIP3   OH228976   7.161   2.287   7.844
 1594TIP3    H128977   7.109   2.243   7.911
 1594TIP3    H228978   7.216   2.349   7.892
 1595TIP3   OH228979   6.097   2.367   7.950
 1595TIP3    H128980   6.145   2.410   8.021
 1595TIP3    H228981   6.166   2.330   7.895
 1596TIP3   OH228982   6.273   3.149   8.273
 1596TIP3    H128983   6.240   3.194   8.196
 1596TIP3    H228984   6.197   3.139   8.329
 1597TIP3   OH228985   5.737   3.142   7.449
 1597TIP3    H128986   5.748   3.222   7.399
 1597TIP3    H228987   5.707   3.170   7.535
 1598TIP3   OH228988   7.134   3.371   8.115
 1598TIP3    H128989   7.039   3.384   8.123
 1598TIP3    H228990   7.168   3.456   8.087
 1599TIP3   OH228991   7.240   2.086   8.164
 1599TIP3    H128992   7.170   2.132   8.119
 1599TIP3    H228993   7.320   2.133   8.140
 1600TIP3   OH228994   6.454   1.877   8.063
 1600TIP3    H128995   6.430   1.787   8.043
 1600TIP3    H228996   6.371   1.924   8.068
 1601TIP3   OH228997   7.097   3.219   7.740
 1601TIP3    H128998   7.004   3.205   7.721
 1601TIP3    H228999   7.112   3.312   7.724
 1602TIP3   OH229000   7.185   3.095   7.513
 1602TIP3    H129001   7.099   3.098   7.472
 1602TIP3    H229002   7.172   3.136   7.599
 1603TIP3   OH229003   7.283   3.058   8.387
 1603TIP3    H129004   7.272   3.018   8.301
 1603TIP3    H229005   7.310   3.148   8.369
 1604TIP3   OH229006   7.450   2.791   8.188
 1604TIP3    H129007   7.382   2.855   8.165
 1604TIP3    H229008   7.503   2.782   8.109
 1605TIP3   OH229009   7.211   2.823   7.432
 1605TIP3    H129010   7.201   2.915   7.456
 1605TIP3    H229011   7.208   2.776   7.516
 1606TIP3   OH229012   7.078   2.667   8.444
 1606TIP3    H129013   7.039   2.743   8.489
 1606TIP3    H229014   7.015   2.646   8.375
 1607TIP3   OH229015   6.095   2.821   7.670
 1607TIP3    H129016   6.091   2.822   7.574
 1607TIP3    H229017   6.184   2.794   7.690
 1608TIP3   OH229018   6.416   3.275   7.927
 1608TIP3    H129019   6.427   3.290   7.833
 1608TIP3    H229020   6.490   3.219   7.951
 1609TIP3   OH229021   6.272   2.752   8.025
 1609TIP3    H129022   6.180   2.775   8.040
 1609TIP3    H229023   6.319   2.833   8.046
 1610TIP3   OH229024   6.864   3.402   8.178
 1610TIP3    H129025   6.859   3.462   8.253
 1610TIP3    H229026   6.822   3.322   8.209
 1611TIP3   OH229027   6.410   3.193   8.511
 1611TIP3    H129028   6.345   3.248   8.554
 1611TIP3    H229029   6.374   3.176   8.424
 1612TIP3   OH229030   6.004   2.750   8.525
 1612TIP3    H129031   6.016   2.836   8.566
 1612TIP3    H229032   5.922   2.757   8.477
 1613TIP3   OH229033   6.734   3.404   7.746
 1613TIP3    H129034   6.778   3.324   7.716
 1613TIP3    H229035   6.643   3.393   7.719
 1614TIP3   OH229036   6.217   3.360   8.617
 1614TIP3    H129037   6.233   3.427   8.550
 1614TIP3    H229038   6.122   3.360   8.627
 1615TIP3   OH229039   7.340   1.984   7.243
 1615TIP3    H129040   7.404   1.932   7.193
 1615TIP3    H229041   7.335   2.067   7.196
 1616TIP3   OH229042   6.080   2.816   7.392
 1616TIP3    H129043   6.053   2.906   7.377
 1616TIP3    H229044   6.013   2.763   7.349
 1617TIP3   OH229045   5.806   3.042   8.366
 1617TIP3    H129046   5.814   3.050   8.271
 1617TIP3    H229047   5.788   2.949   8.381
 1618TIP3   OH229048   5.782   3.349   8.046
 1618TIP3    H129049   5.809   3.257   8.040
 1618TIP3    H229050   5.820   3.380   8.128
 1619TIP3   OH229051   7.556   3.358   8.627
 1619TIP3    H129052   7.556   3.262   8.628
 1619TIP3    H229053   7.473   3.382   8.668
 1620TIP3   OH229054   6.623   3.375   8.487
 1620TIP3    H129055   6.602   3.446   8.548
 1620TIP3    H229056   6.552   3.312   8.499
 1621TIP3   OH229057   6.741   3.737   7.420
 1621TIP3    H129058   6.665   3.748   7.363
 1621TIP3    H229059   6.722   3.792   7.496
 1622TIP3   OH229060   6.074   3.565   7.701
 1622TIP3    H129061   6.079   3.541   7.793
 1622TIP3    H229062   6.002   3.513   7.666
 1623TIP3   OH229063   6.896   3.575   7.585
 1623TIP3    H129064   6.846   3.621   7.517
 1623TIP3    H229065   6.831   3.521   7.630
 1624TIP3   OH229066   7.184   2.517   8.648
 1624TIP3    H129067   7.148   2.569   8.577
 1624TIP3    H229068   7.189   2.428   8.614
 1625TIP3   OH229069   6.051   3.144   8.434
 1625TIP3    H129070   6.057   3.109   8.523
 1625TIP3    H229071   5.966   3.113   8.402
 1626TIP3   OH229072   6.202   2.003   8.075
 1626TIP3    H129073   6.138   1.997   8.004
 1626TIP3    H229074   6.173   2.078   8.127
 1627TIP3   OH229075   6.661   2.015   8.425
 1627TIP3    H129076   6.700   1.974   8.502
 1627TIP3    H229077   6.568   2.024   8.446
 1628TIP3   OH229078   6.920   2.312   8.472
 1628TIP3    H129079   6.893   2.295   8.562
 1628TIP3    H229080   6.855   2.373   8.438
 1629TIP3   OH229081   6.225   2.508   8.152
 1629TIP3    H129082   6.165   2.513   8.226
 1629TIP3    H229083   6.224   2.595   8.113
 1630TIP3   OH229084   6.205   2.501   7.616
 1630TIP3    H129085   6.115   2.477   7.593
 1630TIP3    H229086   6.252   2.501   7.533
 1631TIP3   OH229087   6.672   2.577   8.655
 1631TIP3    H129088   6.630   2.503   8.700
 1631TIP3    H229089   6.760   2.579   8.691
 1632TIP3   OH229090   6.073   2.503   8.382
 1632TIP3    H129091   6.039   2.576   8.434
 1632TIP3    H229092   6.035   2.425   8.422
 1633TIP3   OH229093   5.700   2.430   7.150
 1633TIP3    H129094   5.749   2.499   7.105
 1633TIP3    H229095   5.658   2.475   7.223
 1634TIP3   OH229096   6.905   2.594   8.238
 1634TIP3    H129097   6.904   2.530   8.166
 1634TIP3    H229098   6.834   2.567   8.296
 1635TIP3   OH229099   6.547   2.233   7.756
 1635TIP3    H129100   6.453   2.244   7.769
 1635TIP3    H229101   6.572   2.166   7.820
 1636TIP3   OH229102   5.966   2.360   7.571
 1636TIP3    H129103   5.902   2.342   7.501
 1636TIP3    H229104   6.023   2.284   7.571
 1637TIP3   OH229105   6.375   2.475   7.397
 1637TIP3    H129106   6.450   2.439   7.444
 1637TIP3    H229107   6.410   2.552   7.352
 1638TIP3   OH229108   7.002   2.167   8.038
 1638TIP3    H129109   6.952   2.140   8.115
 1638TIP3    H229110   6.989   2.096   7.975
 1639TIP3   OH229111   7.300   3.735   8.726
 1639TIP3    H129112   7.322   3.756   8.636
 1639TIP3    H229113   7.376   3.763   8.777
 1640TIP3   OH229114   6.022   2.985   8.670
 1640TIP3    H129115   6.082   2.984   8.745
 1640TIP3    H229116   5.938   3.012   8.708
 1641TIP3   OH229117   6.139   2.148   7.556
 1641TIP3    H129118   6.092   2.065   7.558
 1641TIP3    H229119   6.171   2.155   7.466
 1642TIP3   OH229120   6.472   2.528   8.272
 1642TIP3    H129121   6.394   2.521   8.217
 1642TIP3    H229122   6.479   2.620   8.294
 1643TIP3   OH229123   7.229   2.946   8.140
 1643TIP3    H129124   7.230   3.018   8.077
 1643TIP3    H229125   7.148   2.898   8.122
 1644TIP3   OH229126   6.627   3.009   8.472
 1644TIP3    H129127   6.670   2.992   8.555
 1644TIP3    H229128   6.559   3.074   8.493
 1645TIP3   OH229129   6.929   2.540   7.440
 1645TIP3    H129130   7.024   2.547   7.431
 1645TIP3    H229131   6.894   2.607   7.382
 1646TIP3   OH229132   6.124   3.005   7.882
 1646TIP3    H129133   6.109   2.954   7.803
 1646TIP3    H229134   6.038   3.013   7.922
 1647TIP3   OH229135   5.747   2.773   8.416
 1647TIP3    H129136   5.708   2.708   8.474
 1647TIP3    H229137   5.689   2.775   8.340
 1648TIP3   OH229138   6.491   2.784   8.672
 1648TIP3    H129139   6.415   2.755   8.623
 1648TIP3    H229140   6.560   2.721   8.650
 1649TIP3   OH229141   6.898   3.348   8.521
 1649TIP3    H129142   6.805   3.356   8.496
 1649TIP3    H229143   6.897   3.345   8.616
 1650TIP3   OH229144   7.476   2.567   7.395
 1650TIP3    H129145   7.521   2.493   7.353
 1650TIP3    H229146   7.541   2.637   7.395
 1651TIP3   OH229147   7.537   3.082   8.585
 1651TIP3    H129148   7.442   3.071   8.580
 1651TIP3    H229149   7.567   3.072   8.494
 1652TIP3   OH229150   7.341   3.267   7.346
 1652TIP3    H129151   7.278   3.222   7.402
 1652TIP3    H229152   7.297   3.275   7.261
 1653TIP3   OH229153   7.010   2.794   8.077
 1653TIP3    H129154   6.968   2.739   8.144
 1653TIP3    H229155   7.026   2.735   8.004
 1654TIP3   OH229156   6.472   3.345   7.665
 1654TIP3    H129157   6.425   3.427   7.650
 1654TIP3    H229158   6.467   3.298   7.582
 1655TIP3   OH229159   5.836   2.840   7.219
 1655TIP3    H129160   5.885   2.920   7.235
 1655TIP3    H229161   5.748   2.859   7.252
 1656TIP3   OH229162   6.516   3.513   8.272
 1656TIP3    H129163   6.574   3.588   8.257
 1656TIP3    H229164   6.564   3.458   8.334
 1657TIP3   OH229165   6.334   3.578   7.613
 1657TIP3    H129166   6.240   3.570   7.631
 1657TIP3    H229167   6.359   3.662   7.651
 1658TIP3   OH229168   6.774   3.139   8.263
 1658TIP3    H129169   6.712   3.098   8.324
 1658TIP3    H229170   6.860   3.116   8.298
 1659TIP3   OH229171   7.127   3.498   8.473
 1659TIP3    H129172   7.040   3.460   8.483
 1659TIP3    H229173   7.113   3.576   8.419
 1660TIP3   OH229174   7.324   3.553   7.131
 1660TIP3    H129175   7.339   3.607   7.053
 1660TIP3    H229176   7.290   3.471   7.097
 1661TIP3   OH229177   5.957   2.259   8.482
 1661TIP3    H129178   5.876   2.297   8.515
 1661TIP3    H229179   5.967   2.178   8.531
 1662TIP3   OH229180   5.978   3.380   8.258
 1662TIP3    H129181   6.035   3.340   8.193
 1662TIP3    H229182   5.995   3.330   8.338
 1663TIP3   OH229183   6.450   3.260   7.392
 1663TIP3    H129184   6.540   3.229   7.404
 1663TIP3    H229185   6.459   3.352   7.368
 1664TIP3   OH229186   5.978   3.058   7.323
 1664TIP3    H129187   5.905   3.100   7.369
 1664TIP3    H229188   6.042   3.128   7.309
 1665TIP3   OH229189   6.860   2.134   8.268
 1665TIP3    H129190   6.895   2.193   8.335
 1665TIP3    H229191   6.784   2.093   8.311
 1666TIP3   OH229192   6.848   2.286   7.497
 1666TIP3    H129193   6.875   2.373   7.469
 1666TIP3    H229194   6.926   2.250   7.540
 1667TIP3   OH229195   6.594   2.387   7.535
 1667TIP3    H129196   6.683   2.360   7.514
 1667TIP3    H229197   6.570   2.335   7.612
 1668TIP3   OH229198   6.713   2.486   8.398
 1668TIP3    H129199   6.692   2.522   8.485
 1668TIP3    H229200   6.630   2.484   8.352
 1669TIP3   OH229201   6.672   2.078   7.561
 1669TIP3    H129202   6.628   2.130   7.628
 1669TIP3    H229203   6.741   2.136   7.528
 1670TIP3   OH229204   6.453   3.532   7.366
 1670TIP3    H129205   6.471   3.617   7.324
 1670TIP3    H229206   6.407   3.555   7.447
 1671TIP3   OH229207   6.245   2.234   7.309
 1671TIP3    H129208   6.227   2.240   7.215
 1671TIP3    H229209   6.281   2.320   7.331
 1672TIP3   OH229210   7.198   2.275   8.516
 1672TIP3    H129211   7.107   2.272   8.485
 1672TIP3    H229212   7.250   2.284   8.437
 1673TIP3   OH229213   7.045   2.581   7.901
 1673TIP3    H129214   6.978   2.520   7.929
 1673TIP3    H229215   7.127   2.546   7.936
 1674TIP3   OH229216   6.195   3.228   7.270
 1674TIP3    H129217   6.275   3.243   7.320
 1674TIP3    H229218   6.223   3.178   7.193
 1675TIP3   OH229219   7.268   3.608   8.070
 1675TIP3    H129220   7.250   3.644   7.984
 1675TIP3    H229221   7.364   3.602   8.075
 1676TIP3   OH229222   5.985   1.981   7.893
 1676TIP3    H129223   5.984   1.970   7.798
 1676TIP3    H229224   5.957   1.896   7.927
 1677TIP3   OH229225   5.841   3.459   7.595
 1677TIP3    H129226   5.844   3.412   7.512
 1677TIP3    H229227   5.803   3.544   7.572
 1678TIP3   OH229228   5.790   3.649   8.802
 1678TIP3    H129229   5.865   3.614   8.850
 1678TIP3    H229230   5.757   3.574   8.751
 1679TIP3   OH229231   6.234   3.428   8.886
 1679TIP3    H129232   6.319   3.391   8.910
 1679TIP3    H229233   6.225   3.409   8.792
 1680TIP3   OH229234   6.900   3.339   8.796
 1680TIP3    H129235   6.901   3.254   8.840
 1680TIP3    H229236   6.977   3.384   8.830
 1681TIP3   OH229237   5.775   3.057   8.775
 1681TIP3    H129238   5.708   3.001   8.814
 1681TIP3    H229239   5.730   3.101   8.703
 1682TIP3   OH229240   6.232   3.047   7.055
 1682TIP3    H129241   6.277   2.985   7.113
 1682TIP3    H229242   6.150   3.005   7.033
 1683TIP3   OH229243   6.434   3.045   8.747
 1683TIP3    H129244   6.423   3.091   8.664
 1683TIP3    H229245   6.466   2.958   8.722
 1684TIP3   OH229246   7.003   3.106   8.430
 1684TIP3    H129247   7.096   3.114   8.410
 1684TIP3    H229248   6.978   3.194   8.460
 1685TIP3   OH229249   6.010   2.643   8.802
 1685TIP3    H129250   5.994   2.683   8.716
 1685TIP3    H229251   5.973   2.705   8.865
 1686TIP3   OH229252   6.312   2.858   7.239
 1686TIP3    H129253   6.237   2.840   7.297
 1686TIP3    H229254   6.385   2.812   7.280
 1687TIP3   OH229255   6.288   2.695   8.511
 1687TIP3    H129256   6.194   2.715   8.502
 1687TIP3    H229257   6.328   2.736   8.435
 1688TIP3   OH229258   6.531   2.686   7.289
 1688TIP3    H129259   6.519   2.684   7.194
 1688TIP3    H229260   6.624   2.702   7.301
 1689TIP3   OH229261   6.786   2.944   8.728
 1689TIP3    H129262   6.868   2.926   8.683
 1689TIP3    H229263   6.774   2.871   8.788
 1690TIP3   OH229264   6.346   2.433   8.587
 1690TIP3    H129265   6.333   2.374   8.514
 1690TIP3    H229266   6.328   2.520   8.551
 1691TIP3   OH229267   6.328   2.275   8.356
 1691TIP3    H129268   6.374   2.344   8.309
 1691TIP3    H229269   6.246   2.263   8.307
 1692TIP3   OH229270   6.479   2.801   8.333
 1692TIP3    H129271   6.536   2.858   8.384
 1692TIP3    H229272   6.459   2.852   8.254
 1693TIP3   OH229273   6.927   2.548   8.763
 1693TIP3    H129274   6.903   2.456   8.759
 1693TIP3    H229275   7.020   2.550   8.741
 1694TIP3   OH229276   7.035   2.899   8.608
 1694TIP3    H129277   7.015   2.969   8.547
 1694TIP3    H229278   7.131   2.891   8.605
 1695TIP3   OH229279   6.222   2.473   8.830
 1695TIP3    H129280   6.146   2.530   8.819
 1695TIP3    H229281   6.257   2.462   8.742
 1696TIP3   OH229282   6.383   2.019   8.453
 1696TIP3    H129283   6.364   2.109   8.425
 1696TIP3    H229284   6.323   1.965   8.402
 1697TIP3   OH229285   6.547   2.351   8.763
 1697TIP3    H129286   6.501   2.314   8.838
 1697TIP3    H229287   6.478   2.369   8.699
 1698TIP3   OH229288   6.825   2.296   8.732
 1698TIP3    H129289   6.732   2.295   8.752
 1698TIP3    H229290   6.864   2.234   8.794
 1699TIP3   OH229291   6.964   2.128   8.903
 1699TIP3    H129292   6.963   2.037   8.874
 1699TIP3    H229293   6.932   2.124   8.993
 1700TIP3   OH229294   5.872   2.229   8.815
 1700TIP3    H129295   5.904   2.159   8.759
 1700TIP3    H229296   5.912   2.212   8.901
 1701TIP3   OH229297   6.367   1.887   8.696
 1701TIP3    H129298   6.426   1.814   8.680
 1701TIP3    H229299   6.368   1.938   8.614
 1702TIP3   OH229300   6.471   2.010   8.919
 1702TIP3    H129301   6.440   1.962   8.842
 1702TIP3    H229302   6.418   2.089   8.921
 1703TIP3   OH229303   6.513   3.788   7.262
 1703TIP3    H129304   6.498   3.770   7.170
 1703TIP3    H229305   6.488   3.880   7.274
 1704TIP3   OH229306   6.023   3.419   7.150
 1704TIP3    H129307   6.086   3.368   7.201
 1704TIP3    H229308   6.030   3.384   7.061
 1705TIP3   OH229309   5.781   3.549   7.853
 1705TIP3    H129310   5.795   3.501   7.771
 1705TIP3    H229311   5.775   3.482   7.920
 1706TIP3   OH229312   7.541   3.607   8.145
 1706TIP3    H129313   7.538   3.575   8.235
 1706TIP3    H229314   7.564   3.700   8.153
 1707TIP3   OH229315   7.491   3.511   8.401
 1707TIP3    H129316   7.432   3.442   8.369
 1707TIP3    H229317   7.536   3.471   8.476
 1708TIP3   OH229318   7.400   3.187   8.886
 1708TIP3    H129319   7.317   3.195   8.933
 1708TIP3    H229320   7.459   3.247   8.932
 1709TIP3   OH229321   7.450   2.986   7.559
 1709TIP3    H129322   7.364   3.028   7.555
 1709TIP3    H229323   7.446   2.928   7.635
 1710TIP3   OH229324   7.443   2.786   7.744
 1710TIP3    H129325   7.354   2.752   7.748
 1710TIP3    H229326   7.470   2.790   7.836
 1711TIP3   OH229327   7.481   3.157   8.090
 1711TIP3    H129328   7.400   3.153   8.040
 1711TIP3    H229329   7.529   3.232   8.053
 1712TIP3   OH229330   7.292   3.329   8.336
 1712TIP3    H129331   7.235   3.384   8.390
 1712TIP3    H229332   7.252   3.333   8.249
 1713TIP3   OH229333   7.632   2.788   7.458
 1713TIP3    H129334   7.569   2.840   7.507
 1713TIP3    H229335   7.716   2.833   7.471
 1714TIP3   OH229336   7.195   2.672   7.680
 1714TIP3    H129337   7.196   2.602   7.615
 1714TIP3    H229338   7.137   2.640   7.749
 1715TIP3   OH229339   5.729   2.782   7.985
 1715TIP3    H129340   5.750   2.774   7.892
 1715TIP3    H229341   5.762   2.869   8.010
 1716TIP3   OH229342   7.310   2.874   8.588
 1716TIP3    H129343   7.362   2.796   8.569
 1716TIP3    H229344   7.311   2.925   8.507
 1717TIP3   OH229345   7.436   2.619   8.576
 1717TIP3    H129346   7.354   2.588   8.615
 1717TIP3    H229347   7.496   2.546   8.586
 1718TIP3   OH229348   7.212   2.500   7.462
 1718TIP3    H129349   7.222   2.407   7.443
 1718TIP3    H229350   7.293   2.540   7.430
 1719TIP3   OH229351   7.272   2.475   8.021
 1719TIP3    H129352   7.367   2.472   8.010
 1719TIP3    H229353   7.259   2.505   8.112
 1720TIP3   OH229354   7.284   2.588   8.275
 1720TIP3    H129355   7.219   2.625   8.334
 1720TIP3    H229356   7.340   2.662   8.251
 1721TIP3   OH229357   5.728   2.352   8.616
 1721TIP3    H129358   5.779   2.334   8.695
 1721TIP3    H229359   5.655   2.291   8.619
 1722TIP3   OH229360   7.523   1.962   8.816
 1722TIP3    H129361   7.596   1.912   8.778
 1722TIP3    H229362   7.509   2.034   8.755
 1723TIP3   OH229363   7.256   2.230   7.401
 1723TIP3    H129364   7.319   2.164   7.428
 1723TIP3    H229365   7.268   2.238   7.306
 1724TIP3   OH229366   5.896   2.201   8.035
 1724TIP3    H129367   5.916   2.124   7.983
 1724TIP3    H229368   5.952   2.270   7.998
 1725TIP3   OH229369   5.656   2.512   7.974
 1725TIP3    H129370   5.727   2.483   7.916
 1725TIP3    H229371   5.671   2.605   7.986
 1726TIP3   OH229372   7.399   2.181   8.688
 1726TIP3    H129373   7.344   2.193   8.766
 1726TIP3    H229374   7.340   2.195   8.614
 1727TIP3   OH229375   5.778   2.294   7.376
 1727TIP3    H129376   5.707   2.347   7.412
 1727TIP3    H229377   5.786   2.322   7.285
 1728TIP3   OH229378   7.133   3.483   7.687
 1728TIP3    H129379   7.054   3.515   7.643
 1728TIP3    H229380   7.166   3.558   7.737
 1729TIP3   OH229381   5.701   1.965   8.314
 1729TIP3    H129382   5.625   1.960   8.373
 1729TIP3    H229383   5.685   2.044   8.262
 1730TIP3   OH229384   5.949   3.379   8.687
 1730TIP3    H129385   5.864   3.399   8.647
 1730TIP3    H229386   5.928   3.351   8.776
 1731TIP3   OH229387   6.281   3.536   8.420
 1731TIP3    H129388   6.236   3.615   8.389
 1731TIP3    H229389   6.356   3.527   8.362
 1732TIP3   OH229390   6.593   3.583   8.665
 1732TIP3    H129391   6.611   3.545   8.751
 1732TIP3    H229392   6.669   3.638   8.647
 1733TIP3   OH229393   6.817   3.730   8.605
 1733TIP3    H129394   6.857   3.692   8.527
 1733TIP3    H229395   6.890   3.741   8.666
 1734TIP3   OH229396   7.368   1.883   8.440
 1734TIP3    H129397   7.292   1.876   8.381
 1734TIP3    H229398   7.415   1.801   8.429
 1735TIP3   OH229399   5.946   3.897   8.413
 1735TIP3    H129400   5.854   3.901   8.385
 1735TIP3    H229401   5.941   3.875   8.506
 1736TIP3   OH229402   6.181   3.777   8.326
 1736TIP3    H129403   6.094   3.810   8.350
 1736TIP3    H229404   6.187   3.794   8.232
 1737TIP3   OH229405   6.661   3.743   8.224
 1737TIP3    H129406   6.607   3.770   8.150
 1737TIP3    H229407   6.651   3.814   8.288
 1738TIP3   OH229408   6.888   3.640   8.345
 1738TIP3    H129409   6.815   3.675   8.295
 1738TIP3    H229410   6.965   3.681   8.307
 1739TIP3   OH229411   7.152   3.724   8.289
 1739TIP3    H129412   7.140   3.815   8.259
 1739TIP3    H229413   7.188   3.679   8.213
 1740TIP3   OH229414   5.923   3.624   8.124
 1740TIP3    H129415   5.937   3.565   8.198
 1740TIP3    H229416   5.976   3.587   8.053
 1741TIP3   OH229417   6.117   3.502   7.967
 1741TIP3    H129418   6.115   3.410   7.990
 1741TIP3    H229419   6.207   3.530   7.984
 1742TIP3   OH229420   6.387   3.527   8.030
 1742TIP3    H129421   6.398   3.443   7.986
 1742TIP3    H229422   6.426   3.515   8.117
 1743TIP3   OH229423   6.624   2.014   7.898
 1743TIP3    H129424   6.570   1.972   7.966
 1743TIP3    H229425   6.696   1.953   7.885
 1744TIP3   OH229426   7.255   1.886   7.823
 1744TIP3    H129427   7.303   1.945   7.764
 1744TIP3    H229428   7.169   1.927   7.833
 1745TIP3   OH229429   7.388   2.026   7.586
 1745TIP3    H129430   7.460   1.963   7.599
 1745TIP3    H229431   7.429   2.112   7.598
 1746TIP3   OH229432   5.989   1.916   7.615
 1746TIP3    H129433   5.916   1.885   7.562
 1746TIP3    H229434   6.045   1.840   7.626
 1747TIP3   OH229435   5.798   2.025   7.294
 1747TIP3    H129436   5.796   2.114   7.331
 1747TIP3    H229437   5.729   2.026   7.227
 1748TIP3   OH229438   6.542   1.860   7.666
 1748TIP3    H129439   6.587   1.925   7.612
 1748TIP3    H229440   6.524   1.906   7.748
 1749TIP3   OH229441   6.998   1.998   7.818
 1749TIP3    H129442   7.004   2.045   7.734
 1749TIP3    H229443   6.929   1.934   7.805
 1750TIP3   OH229444   7.046   1.963   7.413
 1750TIP3    H129445   7.041   2.047   7.458
 1750TIP3    H229446   7.028   1.984   7.321
 1751TIP3   OH229447   5.749   3.700   7.500
 1751TIP3    H129448   5.687   3.656   7.442
 1751TIP3    H229449   5.793   3.764   7.444
 1752TIP3   OH229450   7.425   3.533   7.382
 1752TIP3    H129451   7.396   3.443   7.399
 1752TIP3    H229452   7.394   3.551   7.293
 1753TIP3   OH229453   5.959   2.020   8.639
 1753TIP3    H129454   5.899   1.948   8.661
 1753TIP3    H229455   6.035   2.006   8.696
 1754TIP3   OH229456   6.133   1.943   8.838
 1754TIP3    H129457   6.217   1.921   8.798
 1754TIP3    H229458   6.097   1.859   8.866
 1755TIP3   OH229459   6.012   3.707   7.190
 1755TIP3    H129460   6.016   3.612   7.173
 1755TIP3    H229461   6.087   3.743   7.143
 1756TIP3   OH229462   7.007   1.874   8.796
 1756TIP3    H129463   7.010   1.819   8.874
 1756TIP3    H229464   7.098   1.875   8.764
 1757TIP3   OH229465   7.299   3.463   8.688
 1757TIP3    H129466   7.242   3.461   8.611
 1757TIP3    H229467   7.305   3.556   8.711
 1758TIP3   OH229468   7.545   2.540   7.654
 1758TIP3    H129469   7.526   2.622   7.699
 1758TIP3    H229470   7.508   2.552   7.566
 1759TIP3   OH229471   7.593   3.053   8.317
 1759TIP3    H129472   7.554   3.095   8.240
 1759TIP3    H229473   7.596   2.960   8.295
 1760TIP3   OH229474   7.611   3.384   7.997
 1760TIP3    H129475   7.705   3.373   8.003
 1760TIP3    H229476   7.591   3.461   8.050
 1761TIP3   OH229477   7.536   2.267   7.584
 1761TIP3    H129478   7.526   2.356   7.619
 1761TIP3    H229479   7.551   2.280   7.490
 1762TIP3   OH229480   7.604   2.766   8.415
 1762TIP3    H129481   7.552   2.712   8.474
 1762TIP3    H229482   7.559   2.759   8.331
 1763TIP3   OH229483   7.647   2.940   8.802
 1763TIP3    H129484   7.563   2.911   8.838
 1763TIP3    H229485   7.624   2.986   8.722
 1764TIP3   OH229486   7.461   3.705   7.595
 1764TIP3    H129487   7.432   3.646   7.525
 1764TIP3    H229488   7.491   3.646   7.664
 1765TIP3   OH229489   7.598   3.550   7.770
 1765TIP3    H129490   7.574   3.481   7.832
 1765TIP3    H229491   7.691   3.565   7.786
 1766TIP3   OH229492   7.624   2.762   7.965
 1766TIP3    H129493   7.689   2.739   7.899
 1766TIP3    H229494   7.672   2.814   8.030
 1767TIP3   OH229495   7.571   2.377   8.581
 1767TIP3    H129496   7.663   2.351   8.585
 1767TIP3    H229497   7.524   2.307   8.628
 1768TIP3   OH229498   7.547   2.491   8.034
 1768TIP3    H129499   7.624   2.485   8.091
 1768TIP3    H229500   7.560   2.573   7.986
 1769TIP3   OH229501   7.559   2.315   7.301
 1769TIP3    H129502   7.492   2.285   7.239
 1769TIP3    H229503   7.642   2.288   7.263
 1770TIP3   OH229504   7.572   1.993   8.256
 1770TIP3    H129505   7.504   1.982   8.323
 1770TIP3    H229506   7.543   2.069   8.205
 1771TIP3   OH229507   1.206   4.857   7.609
 1771TIP3    H129508   1.175   4.947   7.616
 1771TIP3    H229509   1.141   4.813   7.554
 1772TIP3   OH229510   1.141   4.744   8.072
 1772TIP3    H129511   1.170   4.700   8.153
 1772TIP3    H229512   1.083   4.680   8.030
 1773TIP3   OH229513   0.308   4.673   8.144
 1773TIP3    H129514   0.309   4.580   8.168
 1773TIP3    H229515   0.340   4.718   8.222
 1774TIP3   OH229516   1.495   5.075   7.881
 1774TIP3    H129517   1.459   4.997   7.923
 1774TIP3    H229518   1.510   5.136   7.954
 1775TIP3   OH229519   0.519   5.085   7.975
 1775TIP3    H129520   0.492   4.993   7.970
 1775TIP3    H229521   0.615   5.082   7.971
 1776TIP3   OH229522   0.098   4.510   7.466
 1776TIP3    H129523   0.112   4.581   7.403
 1776TIP3    H229524   0.124   4.431   7.419
 1777TIP3   OH229525   0.060   4.610   7.726
 1777TIP3    H129526   0.075   4.576   7.638
 1777TIP3    H229527  -0.020   4.661   7.719
 1778TIP3   OH229528   1.169   5.468   7.882
 1778TIP3    H129529   1.238   5.416   7.841
 1778TIP3    H229530   1.091   5.450   7.830
 1779TIP3   OH229531   1.019   4.992   8.081
 1779TIP3    H129532   1.063   4.909   8.060
 1779TIP3    H229533   1.071   5.030   8.152
 1780TIP3   OH229534   1.888   4.097   8.172
 1780TIP3    H129535   1.897   4.180   8.219
 1780TIP3    H229536   1.946   4.105   8.096
 1781TIP3   OH229537   1.250   4.436   8.040
 1781TIP3    H129538   1.249   4.344   8.068
 1781TIP3    H229539   1.203   4.436   7.956
 1782TIP3   OH229540   1.356   4.263   7.717
 1782TIP3    H129541   1.392   4.220   7.795
 1782TIP3    H229542   1.432   4.296   7.670
 1783TIP3   OH229543   1.897   4.328   8.326
 1783TIP3    H129544   1.810   4.368   8.337
 1783TIP3    H229545   1.926   4.310   8.415
 1784TIP3   OH229546   0.499   4.105   8.189
 1784TIP3    H129547   0.491   4.150   8.105
 1784TIP3    H229548   0.417   4.123   8.234
 1785TIP3   OH229549   1.062   5.095   7.549
 1785TIP3    H129550   1.085   5.086   7.456
 1785TIP3    H229551   1.073   5.188   7.568
 1786TIP3   OH229552   0.777   4.921   8.190
 1786TIP3    H129553   0.729   4.999   8.216
 1786TIP3    H229554   0.856   4.954   8.148
 1787TIP3   OH229555   1.473   4.184   7.960
 1787TIP3    H129556   1.399   4.181   8.020
 1787TIP3    H229557   1.528   4.255   7.994
 1788TIP3   OH229558   0.529   4.224   7.943
 1788TIP3    H129559   0.567   4.298   7.991
 1788TIP3    H229560   0.601   4.193   7.888
 1789TIP3   OH229561   0.653   5.146   8.294
 1789TIP3    H129562   0.661   5.240   8.306
 1789TIP3    H229563   0.559   5.130   8.286
 1790TIP3   OH229564   0.266   5.056   7.505
 1790TIP3    H129565   0.220   5.077   7.424
 1790TIP3    H229566   0.270   5.139   7.552
 1791TIP3   OH229567   1.526   5.263   8.097
 1791TIP3    H129568   1.441   5.269   8.139
 1791TIP3    H229569   1.551   5.353   8.079
 1792TIP3   OH229570   1.612   4.056   8.192
 1792TIP3    H129571   1.574   4.082   8.108
 1792TIP3    H229572   1.707   4.065   8.180
 1793TIP3   OH229573   0.882   3.856   7.956
 1793TIP3    H129574   0.860   3.841   7.864
 1793TIP3    H229575   0.798   3.864   8.000
 1794TIP3   OH229576   1.358   5.374   7.683
 1794TIP3    H129577   1.390   5.287   7.659
 1794TIP3    H229578   1.436   5.421   7.714
 1795TIP3   OH229579   1.483   5.134   7.612
 1795TIP3    H129580   1.494   5.052   7.563
 1795TIP3    H229581   1.493   5.107   7.704
 1796TIP3   OH229582   1.654   4.992   8.439
 1796TIP3    H129583   1.633   4.947   8.358
 1796TIP3    H229584   1.674   5.082   8.412
 1797TIP3   OH229585   1.025   4.751   7.428
 1797TIP3    H129586   0.963   4.820   7.403
 1797TIP3    H229587   1.079   4.738   7.350
 1798TIP3   OH229588   1.774   4.696   8.266
 1798TIP3    H129589   1.709   4.762   8.242
 1798TIP3    H229590   1.840   4.701   8.197
 1799TIP3   OH229591   1.422   4.708   7.531
 1799TIP3    H129592   1.354   4.760   7.573
 1799TIP3    H229593   1.481   4.683   7.602
 1800TIP3   OH229594   1.405   4.525   8.482
 1800TIP3    H129595   1.390   4.599   8.541
 1800TIP3    H229596   1.344   4.539   8.410
 1801TIP3   OH229597   0.802   5.089   7.927
 1801TIP3    H129598   0.806   5.068   7.833
 1801TIP3    H229599   0.884   5.054   7.963
 1802TIP3   OH229600   0.718   4.683   8.061
 1802TIP3    H129601   0.800   4.647   8.029
 1802TIP3    H229602   0.743   4.762   8.110
 1803TIP3   OH229603   1.297   5.280   8.247
 1803TIP3    H129604   1.258   5.352   8.297
 1803TIP3    H229605   1.242   5.204   8.267
 1804TIP3   OH229606   0.780   5.116   8.542
 1804TIP3    H129607   0.719   5.173   8.588
 1804TIP3    H229608   0.744   5.108   8.454
 1805TIP3   OH229609   0.421   4.748   8.390
 1805TIP3    H129610   0.456   4.830   8.423
 1805TIP3    H229611   0.345   4.730   8.445
 1806TIP3   OH229612   1.089   5.361   7.615
 1806TIP3    H129613   1.183   5.367   7.629
 1806TIP3    H229614   1.066   5.439   7.565
 1807TIP3   OH229615   0.577   5.288   8.621
 1807TIP3    H129616   0.589   5.345   8.545
 1807TIP3    H229617   0.483   5.269   8.621
 1808TIP3   OH229618   1.783   3.850   7.395
 1808TIP3    H129619   1.743   3.840   7.481
 1808TIP3    H229620   1.863   3.900   7.412
 1809TIP3   OH229621   0.177   4.984   8.466
 1809TIP3    H129622   0.090   4.976   8.427
 1809TIP3    H229623   0.194   4.899   8.506
 1810TIP3   OH229624   0.253   5.212   8.029
 1810TIP3    H129625   0.333   5.163   8.007
 1810TIP3    H229626   0.280   5.271   8.099
 1811TIP3   OH229627   1.895   5.298   8.699
 1811TIP3    H129628   1.886   5.204   8.687
 1811TIP3    H229629   1.810   5.327   8.730
 1812TIP3   OH229630   0.982   5.306   8.505
 1812TIP3    H129631   0.950   5.377   8.561
 1812TIP3    H229632   0.918   5.236   8.516
 1813TIP3   OH229633   1.058   5.599   7.473
 1813TIP3    H129634   1.047   5.585   7.378
 1813TIP3    H229635   0.991   5.663   7.495
 1814TIP3   OH229636   1.308   5.631   7.572
 1814TIP3    H129637   1.220   5.626   7.537
 1814TIP3    H229638   1.331   5.541   7.595
 1815TIP3   OH229639   1.620   4.392   8.613
 1815TIP3    H129640   1.554   4.443   8.567
 1815TIP3    H229641   1.623   4.309   8.565
 1816TIP3   OH229642   0.384   5.135   8.361
 1816TIP3    H129643   0.431   5.094   8.434
 1816TIP3    H229644   0.300   5.090   8.359
 1817TIP3   OH229645   0.618   3.892   8.051
 1817TIP3    H129646   0.567   3.882   7.971
 1817TIP3    H229647   0.580   3.967   8.095
 1818TIP3   OH229648   1.017   3.931   8.431
 1818TIP3    H129649   1.056   3.874   8.496
 1818TIP3    H229650   0.923   3.925   8.446
 1819TIP3   OH229651   1.330   4.248   8.541
 1819TIP3    H129652   1.279   4.239   8.622
 1819TIP3    H229653   1.345   4.342   8.533
 1820TIP3   OH229654   0.588   4.442   8.106
 1820TIP3    H129655   0.512   4.447   8.163
 1820TIP3    H229656   0.617   4.533   8.096
 1821TIP3   OH229657   1.071   4.506   7.541
 1821TIP3    H129658   1.035   4.591   7.514
 1821TIP3    H229659   1.156   4.501   7.497
 1822TIP3   OH229660   1.025   4.479   8.659
 1822TIP3    H129661   0.979   4.406   8.699
 1822TIP3    H229662   1.108   4.484   8.707
 1823TIP3   OH229663   1.131   4.419   7.794
 1823TIP3    H129664   1.099   4.454   7.711
 1823TIP3    H229665   1.196   4.354   7.769
 1824TIP3   OH229666   0.362   4.430   8.269
 1824TIP3    H129667   0.375   4.454   8.360
 1824TIP3    H229668   0.320   4.344   8.272
 1825TIP3   OH229669   0.106   4.157   7.718
 1825TIP3    H129670   0.167   4.118   7.780
 1825TIP3    H229671   0.129   4.119   7.634
 1826TIP3   OH229672   0.146   4.276   7.320
 1826TIP3    H129673   0.220   4.260   7.261
 1826TIP3    H229674   0.146   4.200   7.379
 1827TIP3   OH229675   1.217   4.561   8.281
 1827TIP3    H129676   1.234   4.514   8.199
 1827TIP3    H229677   1.135   4.523   8.314
 1828TIP3   OH229678   1.246   4.177   8.119
 1828TIP3    H129679   1.202   4.174   8.204
 1828TIP3    H229680   1.204   4.109   8.067
 1829TIP3   OH229681   1.603   5.662   8.747
 1829TIP3    H129682   1.630   5.685   8.658
 1829TIP3    H229683   1.674   5.692   8.803
 1830TIP3   OH229684   0.483   4.959   8.560
 1830TIP3    H129685   0.559   4.945   8.616
 1830TIP3    H229686   0.409   4.965   8.622
 1831TIP3   OH229687   0.954   4.543   7.980
 1831TIP3    H129688   1.003   4.504   7.908
 1831TIP3    H229689   0.928   4.469   8.035
 1832TIP3   OH229690   0.849   4.360   8.164
 1832TIP3    H129691   0.759   4.393   8.164
 1832TIP3    H229692   0.888   4.395   8.244
 1833TIP3   OH229693   0.801   4.921   7.397
 1833TIP3    H129694   0.742   4.846   7.398
 1833TIP3    H229695   0.795   4.957   7.486
 1834TIP3   OH229696   1.610   4.899   8.188
 1834TIP3    H129697   1.675   4.952   8.142
 1834TIP3    H229698   1.539   4.888   8.125
 1835TIP3   OH229699   1.198   4.256   7.332
 1835TIP3    H129700   1.105   4.253   7.352
 1835TIP3    H229701   1.223   4.347   7.348
 1836TIP3   OH229702   1.015   4.949   8.538
 1836TIP3    H129703   1.059   4.919   8.618
 1836TIP3    H229704   0.954   5.017   8.568
 1837TIP3   OH229705   1.300   4.518   7.380
 1837TIP3    H129706   1.350   4.577   7.436
 1837TIP3    H229707   1.255   4.576   7.318
 1838TIP3   OH229708   0.483   4.810   7.980
 1838TIP3    H129709   0.565   4.771   8.012
 1838TIP3    H229710   0.415   4.768   8.032
 1839TIP3   OH229711   1.128   5.068   7.276
 1839TIP3    H129712   1.072   5.142   7.251
 1839TIP3    H229713   1.130   5.013   7.198
 1840TIP3   OH229714   0.217   4.721   8.568
 1840TIP3    H129715   0.249   4.688   8.652
 1840TIP3    H229716   0.127   4.689   8.562
 1841TIP3   OH229717   0.805   4.645   8.692
 1841TIP3    H129718   0.746   4.619   8.622
 1841TIP3    H229719   0.887   4.599   8.675
 1842TIP3   OH229720   1.251   5.246   8.565
 1842TIP3    H129721   1.163   5.268   8.533
 1842TIP3    H229722   1.242   5.243   8.660
 1843TIP3   OH229723   2.050   4.369   7.391
 1843TIP3    H129724   2.069   4.290   7.340
 1843TIP3    H229725   2.044   4.439   7.326
 1844TIP3   OH229726   1.873   5.038   8.612
 1844TIP3    H129727   1.783   5.021   8.584
 1844TIP3    H229728   1.926   5.020   8.534
 1845TIP3   OH229729   1.568   5.285   7.398
 1845TIP3    H129730   1.547   5.236   7.478
 1845TIP3    H229731   1.513   5.245   7.330
 1846TIP3   OH229732   1.406   4.839   8.008
 1846TIP3    H129733   1.312   4.826   8.021
 1846TIP3    H229734   1.439   4.752   7.983
 1847TIP3   OH229735   0.670   5.311   7.625
 1847TIP3    H129736   0.705   5.400   7.622
 1847TIP3    H229737   0.616   5.308   7.704
 1848TIP3   OH229738   0.142   4.736   7.312
 1848TIP3    H129739   0.225   4.776   7.335
 1848TIP3    H229740   0.122   4.770   7.225
 1849TIP3   OH229741   0.806   5.063   7.645
 1849TIP3    H129742   0.764   5.148   7.630
 1849TIP3    H229743   0.897   5.076   7.617
 1850TIP3   OH229744   0.905   5.411   8.256
 1850TIP3    H129745   0.969   5.470   8.217
 1850TIP3    H229746   0.951   5.374   8.332
 1851TIP3   OH229747   1.163   5.040   8.319
 1851TIP3    H129748   1.100   5.013   8.386
 1851TIP3    H229749   1.247   5.009   8.351
 1852TIP3   OH229750   1.400   5.118   7.255
 1852TIP3    H129751   1.446   5.049   7.303
 1852TIP3    H229752   1.307   5.103   7.275
 1853TIP3   OH229753   1.489   5.372   8.501
 1853TIP3    H129754   1.402   5.334   8.514
 1853TIP3    H229755   1.473   5.452   8.451
 1854TIP3   OH229756   0.262   4.175   8.316
 1854TIP3    H129757   0.238   4.162   8.408
 1854TIP3    H229758   0.212   4.108   8.269
 1855TIP3   OH229759   1.538   4.927   7.406
 1855TIP3    H129760   1.493   4.848   7.436
 1855TIP3    H229761   1.630   4.904   7.405
 1856TIP3   OH229762   0.332   5.386   8.230
 1856TIP3    H129763   0.354   5.315   8.291
 1856TIP3    H229764   0.302   5.457   8.286
 1857TIP3   OH229765   0.691   5.106   7.215
 1857TIP3    H129766   0.745   5.047   7.268
 1857TIP3    H229767   0.701   5.192   7.255
 1858TIP3   OH229768   0.390   4.853   7.374
 1858TIP3    H129769   0.353   4.920   7.432
 1858TIP3    H229770   0.406   4.899   7.292
 1859TIP3   OH229771   1.124   4.176   8.370
 1859TIP3    H129772   1.200   4.182   8.428
 1859TIP3    H229773   1.086   4.090   8.388
 1860TIP3   OH229774   1.249   4.077   7.534
 1860TIP3    H129775   1.236   4.135   7.459
 1860TIP3    H229776   1.277   4.135   7.604
 1861TIP3   OH229777   0.972   5.299   7.255
 1861TIP3    H129778   0.885   5.310   7.292
 1861TIP3    H229779   1.000   5.387   7.230
 1862TIP3   OH229780   0.952   4.263   7.483
 1862TIP3    H129781   0.986   4.347   7.513
 1862TIP3    H229782   0.868   4.254   7.528
 1863TIP3   OH229783   1.001   4.422   8.386
 1863TIP3    H129784   1.003   4.445   8.479
 1863TIP3    H229785   1.037   4.334   8.382
 1864TIP3   OH229786   0.986   3.980   7.533
 1864TIP3    H129787   0.954   4.062   7.494
 1864TIP3    H229788   1.079   3.996   7.549
 1865TIP3   OH229789   0.714   5.352   7.351
 1865TIP3    H129790   0.695   5.446   7.347
 1865TIP3    H229791   0.697   5.328   7.442
 1866TIP3   OH229792   1.584   4.153   8.463
 1866TIP3    H129793   1.490   4.164   8.479
 1866TIP3    H229794   1.590   4.121   8.373
 1867TIP3   OH229795   1.476   4.572   7.965
 1867TIP3    H129796   1.392   4.532   7.988
 1867TIP3    H229797   1.542   4.511   8.000
 1868TIP3   OH229798   0.457   4.985   7.139
 1868TIP3    H129799   0.535   5.034   7.168
 1868TIP3    H229800   0.472   4.971   7.046
 1869TIP3   OH229801   1.629   5.532   8.104
 1869TIP3    H129802   1.599   5.607   8.052
 1869TIP3    H229803   1.723   5.528   8.087
 1870TIP3   OH229804   0.473   3.885   7.814
 1870TIP3    H129805   0.513   3.936   7.743
 1870TIP3    H229806   0.476   3.795   7.783
 1871TIP3   OH229807   0.307   5.317   7.608
 1871TIP3    H129808   0.255   5.373   7.550
 1871TIP3    H229809   0.398   5.340   7.588
 1872TIP3   OH229810   0.053   5.554   8.733
 1872TIP3    H129811   0.126   5.515   8.782
 1872TIP3    H229812   0.004   5.479   8.700
 1873TIP3   OH229813   0.501   5.320   8.896
 1873TIP3    H129814   0.565   5.351   8.960
 1873TIP3    H229815   0.549   5.317   8.813
 1874TIP3   OH229816   1.235   5.234   8.839
 1874TIP3    H129817   1.232   5.151   8.886
 1874TIP3    H229818   1.313   5.278   8.873
 1875TIP3   OH229819   0.279   4.950   8.767
 1875TIP3    H129820   0.302   4.859   8.786
 1875TIP3    H229821   0.184   4.952   8.770
 1876TIP3   OH229822   0.714   4.905   8.713
 1876TIP3    H129823   0.753   4.960   8.645
 1876TIP3    H229824   0.756   4.820   8.701
 1877TIP3   OH229825   1.376   5.000   8.503
 1877TIP3    H129826   1.469   5.015   8.488
 1877TIP3    H229827   1.341   5.086   8.527
 1878TIP3   OH229828   0.339   4.660   8.819
 1878TIP3    H129829   0.381   4.574   8.815
 1878TIP3    H229830   0.277   4.653   8.892
 1879TIP3   OH229831   0.621   4.712   7.359
 1879TIP3    H129832   0.539   4.760   7.369
 1879TIP3    H229833   0.620   4.682   7.268
 1880TIP3   OH229834   0.643   4.592   8.462
 1880TIP3    H129835   0.565   4.638   8.432
 1880TIP3    H229836   0.716   4.647   8.434
 1881TIP3   OH229837   1.144   4.835   8.762
 1881TIP3    H129838   1.222   4.797   8.721
 1881TIP3    H229839   1.114   4.768   8.823
 1882TIP3   OH229840   0.651   4.342   8.576
 1882TIP3    H129841   0.668   4.278   8.506
 1882TIP3    H229842   0.650   4.426   8.531
 1883TIP3   OH229843   0.707   4.182   8.351
 1883TIP3    H129844   0.776   4.210   8.290
 1883TIP3    H229845   0.634   4.155   8.294
 1884TIP3   OH229846   0.836   4.775   8.413
 1884TIP3    H129847   0.910   4.820   8.452
 1884TIP3    H229848   0.817   4.824   8.333
 1885TIP3   OH229849   1.258   4.471   8.829
 1885TIP3    H129850   1.235   4.379   8.819
 1885TIP3    H229851   1.351   4.470   8.853
 1886TIP3   OH229852   1.397   4.763   8.643
 1886TIP3    H129853   1.375   4.842   8.594
 1886TIP3    H229854   1.492   4.754   8.634
 1887TIP3   OH229855   0.477   4.402   8.793
 1887TIP3    H129856   0.429   4.320   8.804
 1887TIP3    H229857   0.538   4.385   8.721
 1888TIP3   OH229858   0.742   3.925   8.456
 1888TIP3    H129859   0.727   4.016   8.429
 1888TIP3    H229860   0.685   3.873   8.399
 1889TIP3   OH229861   0.860   4.282   8.756
 1889TIP3    H129862   0.816   4.233   8.825
 1889TIP3    H229863   0.792   4.298   8.691
 1890TIP3   OH229864   1.172   4.220   8.772
 1890TIP3    H129865   1.080   4.204   8.793
 1890TIP3    H229866   1.219   4.150   8.817
 1891TIP3   OH229867   1.322   4.034   8.905
 1891TIP3    H129868   1.315   3.943   8.875
 1891TIP3    H229869   1.293   4.032   8.996
 1892TIP3   OH229870   0.391   4.112   8.806
 1892TIP3    H129871   0.418   4.026   8.773
 1892TIP3    H229872   0.360   4.094   8.895
 1893TIP3   OH229873   0.718   3.777   8.686
 1893TIP3    H129874   0.770   3.699   8.670
 1893TIP3    H229875   0.728   3.829   8.606
 1894TIP3   OH229876   0.814   3.914   8.906
 1894TIP3    H129877   0.789   3.858   8.833
 1894TIP3    H229878   0.758   3.991   8.898
 1895TIP3   OH229879   0.196   5.043   7.233
 1895TIP3    H129880   0.283   5.045   7.193
 1895TIP3    H229881   0.146   4.983   7.177
 1896TIP3   OH229882   0.093   5.700   7.620
 1896TIP3    H129883  -0.001   5.704   7.637
 1896TIP3    H229884   0.127   5.644   7.690
 1897TIP3   OH229885   0.203   5.506   7.799
 1897TIP3    H129886   0.244   5.433   7.752
 1897TIP3    H229887   0.264   5.527   7.869
 1898TIP3   OH229888   1.906   5.537   8.044
 1898TIP3    H129889   2.000   5.533   8.062
 1898TIP3    H229890   1.894   5.483   7.967
 1899TIP3   OH229891   1.883   5.389   8.436
 1899TIP3    H129892   1.821   5.338   8.383
 1899TIP3    H229893   1.895   5.337   8.516
 1900TIP3   OH229894   1.691   5.076   8.881
 1900TIP3    H129895   1.612   5.072   8.934
 1900TIP3    H229896   1.745   5.143   8.923
 1901TIP3   OH229897   1.802   4.836   7.421
 1901TIP3    H129898   1.861   4.911   7.417
 1901TIP3    H229899   1.830   4.786   7.498
 1902TIP3   OH229900   1.853   4.669   7.641
 1902TIP3    H129901   1.766   4.661   7.680
 1902TIP3    H229902   1.911   4.689   7.714
 1903TIP3   OH229903   1.869   4.999   8.131
 1903TIP3    H129904   1.910   4.917   8.104
 1903TIP3    H229905   1.926   5.067   8.094
 1904TIP3   OH229906   1.671   5.245   8.336
 1904TIP3    H129907   1.603   5.289   8.387
 1904TIP3    H229908   1.635   5.241   8.248
 1905TIP3   OH229909   1.954   4.599   7.216
 1905TIP3    H129910   1.933   4.655   7.142
 1905TIP3    H229911   1.931   4.651   7.293
 1906TIP3   OH229912   1.550   4.410   7.317
 1906TIP3    H129913   1.460   4.441   7.326
 1906TIP3    H229914   1.576   4.387   7.407
 1907TIP3   OH229915   1.593   4.595   7.717
 1907TIP3    H129916   1.587   4.505   7.683
 1907TIP3    H229917   1.553   4.590   7.804
 1908TIP3   OH229918   0.073   4.729   7.992
 1908TIP3    H129919   0.091   4.696   7.904
 1908TIP3    H229920   0.156   4.718   8.039
 1909TIP3   OH229921   1.669   4.751   8.602
 1909TIP3    H129922   1.734   4.681   8.592
 1909TIP3    H229923   1.687   4.811   8.530
 1910TIP3   OH229924   1.856   4.547   8.621
 1910TIP3    H129925   1.793   4.475   8.628
 1910TIP3    H229926   1.932   4.517   8.670
 1911TIP3   OH229927   1.605   4.339   7.586
 1911TIP3    H129928   1.599   4.244   7.572
 1911TIP3    H229929   1.698   4.356   7.598
 1912TIP3   OH229930   1.640   4.376   8.065
 1912TIP3    H129931   1.732   4.382   8.041
 1912TIP3    H229932   1.639   4.390   8.160
 1913TIP3   OH229933   1.646   4.463   8.325
 1913TIP3    H129934   1.563   4.487   8.367
 1913TIP3    H229935   1.690   4.547   8.309
 1914TIP3   OH229936   0.201   4.118   8.585
 1914TIP3    H129937   0.258   4.140   8.658
 1914TIP3    H229938   0.210   4.024   8.574
 1915TIP3   OH229939   1.848   3.888   8.820
 1915TIP3    H129940   1.915   3.830   8.782
 1915TIP3    H229941   1.841   3.960   8.758
 1916TIP3   OH229942   1.606   4.073   7.546
 1916TIP3    H129943   1.670   4.026   7.598
 1916TIP3    H229944   1.543   4.006   7.519
 1917TIP3   OH229945   0.291   4.065   7.909
 1917TIP3    H129946   0.339   3.987   7.881
 1917TIP3    H229947   0.358   4.133   7.919
 1918TIP3   OH229948   0.028   4.372   7.869
 1918TIP3    H129949   0.061   4.302   7.814
 1918TIP3    H229950   0.045   4.452   7.820
 1919TIP3   OH229951   1.760   4.103   8.669
 1919TIP3    H129952   1.699   4.125   8.738
 1919TIP3    H229953   1.708   4.104   8.589
 1920TIP3   OH229954   0.101   4.036   7.466
 1920TIP3    H129955   0.017   4.046   7.421
 1920TIP3    H229956   0.103   3.944   7.495
 1921TIP3   OH229957   1.584   5.518   7.732
 1921TIP3    H129958   1.643   5.488   7.663
 1921TIP3    H229959   1.610   5.609   7.748
 1922TIP3   OH229960   0.150   3.964   8.175
 1922TIP3    H129961   0.059   3.935   8.173
 1922TIP3    H229962   0.172   3.979   8.083
 1923TIP3   OH229963   0.309   5.202   8.641
 1923TIP3    H129964   0.256   5.184   8.563
 1923TIP3    H229965   0.293   5.128   8.699
 1924TIP3   OH229966   0.652   5.414   8.370
 1924TIP3    H129967   0.603   5.488   8.333
 1924TIP3    H229968   0.741   5.426   8.337
 1925TIP3   OH229969   0.889   5.499   8.685
 1925TIP3    H129970   0.909   5.448   8.764
 1925TIP3    H229971   0.967   5.551   8.670
 1926TIP3   OH229972   1.124   5.620   8.614
 1926TIP3    H129973   1.167   5.584   8.537
 1926TIP3    H229974   1.195   5.634   8.677
 1927TIP3   OH229975   1.714   3.762   8.452
 1927TIP3    H129976   1.640   3.777   8.392
 1927TIP3    H229977   1.755   3.682   8.420
 1928TIP3   OH229978   0.274   5.645   8.350
 1928TIP3    H129979   0.224   5.704   8.295
 1928TIP3    H229980   0.253   5.671   8.440
 1929TIP3   OH229981   0.529   5.637   8.249
 1929TIP3    H129982   0.444   5.647   8.291
 1929TIP3    H229983   0.509   5.615   8.158
 1930TIP3   OH229984   1.093   5.572   8.129
 1930TIP3    H129985   1.127   5.525   8.053
 1930TIP3    H229986   1.062   5.655   8.094
 1931TIP3   OH229987   1.229   5.532   8.367
 1931TIP3    H129988   1.178   5.556   8.290
 1931TIP3    H229989   1.316   5.569   8.351
 1932TIP3   OH229990   1.502   5.601   8.337
 1932TIP3    H129991   1.467   5.684   8.306
 1932TIP3    H229992   1.545   5.563   8.260
 1933TIP3   OH229993   0.410   5.535   8.008
 1933TIP3    H129994   0.373   5.482   8.078
 1933TIP3    H229995   0.459   5.473   7.954
 1934TIP3   OH229996   0.549   5.340   7.875
 1934TIP3    H129997   0.521   5.252   7.901
 1934TIP3    H229998   0.633   5.352   7.921
 1935TIP3   OH229999   0.790   5.354   8.006
 1935TIP3    H130000   0.806   5.262   7.987
 1935TIP3    H230001   0.826   5.367   8.094
 1936TIP3   OH230002   1.129   3.983   7.974
 1936TIP3    H130003   1.042   3.945   7.959
 1936TIP3    H230004   1.186   3.936   7.913
 1937TIP3   OH230005   1.572   3.766   7.808
 1937TIP3    H130006   1.630   3.833   7.771
 1937TIP3    H230007   1.485   3.807   7.807
 1938TIP3   OH230008   1.780   3.911   7.686
 1938TIP3    H130009   1.833   3.832   7.688
 1938TIP3    H230010   1.842   3.982   7.702
 1939TIP3   OH230011   0.121   3.618   7.162
 1939TIP3    H130012   0.052   3.617   7.096
 1939TIP3    H230013   0.077   3.594   7.243
 1940TIP3   OH230014   0.787   3.854   7.685
 1940TIP3    H130015   0.861   3.892   7.638
 1940TIP3    H230016   0.714   3.913   7.667
 1941TIP3   OH230017   1.294   3.824   7.814
 1941TIP3    H130018   1.276   3.793   7.726
 1941TIP3    H230019   1.273   3.750   7.871
 1942TIP3   OH230020   1.425   3.875   7.493
 1942TIP3    H130021   1.358   3.941   7.508
 1942TIP3    H230022   1.384   3.793   7.521
 1943TIP3   OH230023   0.173   5.492   7.453
 1943TIP3    H130024   0.140   5.572   7.493
 1943TIP3    H230025   0.213   5.521   7.371
 1944TIP3   OH230026   1.740   5.463   7.506
 1944TIP3    H130027   1.681   5.398   7.468
 1944TIP3    H230028   1.726   5.542   7.454
 1945TIP3   OH230029   0.254   3.847   8.574
 1945TIP3    H130030   0.193   3.795   8.626
 1945TIP3    H230031   0.336   3.845   8.624
 1946TIP3   OH230032   0.459   3.844   8.759
 1946TIP3    H130033   0.547   3.815   8.737
 1946TIP3    H230034   0.426   3.777   8.819
 1947TIP3   OH230035   1.342   3.780   8.800
 1947TIP3    H130036   1.347   3.731   8.882
 1947TIP3    H230037   1.431   3.779   8.766
 1948TIP3   OH230038   1.640   5.390   8.731
 1948TIP3    H130039   1.589   5.370   8.652
 1948TIP3    H230040   1.623   5.482   8.748
 1949TIP3   OH230041   3.176   4.793   7.714
 1949TIP3    H130042   3.115   4.864   7.735
 1949TIP3    H230043   3.153   4.767   7.625
 1950TIP3   OH230044   3.096   4.764   8.089
 1950TIP3    H130045   3.109   4.692   8.150
 1950TIP3    H230046   3.038   4.729   8.022
 1951TIP3   OH230047   2.225   4.658   8.183
 1951TIP3    H130048   2.247   4.584   8.240
 1951TIP3    H230049   2.306   4.678   8.137
 1952TIP3   OH230050   3.413   5.049   7.870
 1952TIP3    H130051   3.387   4.966   7.912
 1952TIP3    H230052   3.433   5.107   7.943
 1953TIP3   OH230053   2.313   5.101   7.936
 1953TIP3    H130054   2.297   5.011   7.908
 1953TIP3    H230055   2.408   5.108   7.939
 1954TIP3   OH230056   1.874   4.392   7.601
 1954TIP3    H130057   1.875   4.486   7.618
 1954TIP3    H230058   1.934   4.380   7.528
 1955TIP3   OH230059   2.045   4.695   7.840
 1955TIP3    H130060   2.079   4.607   7.851
 1955TIP3    H230061   2.123   4.751   7.837
 1956TIP3   OH230062   3.080   5.608   7.896
 1956TIP3    H130063   3.137   5.555   7.840
 1956TIP3    H230064   3.061   5.551   7.972
 1957TIP3   OH230065   2.828   5.023   7.971
 1957TIP3    H130066   2.880   5.011   7.892
 1957TIP3    H230067   2.893   5.032   8.041
 1958TIP3   OH230068   3.720   4.039   8.190
 1958TIP3    H130069   3.703   4.119   8.240
 1958TIP3    H230070   3.783   4.066   8.123
 1959TIP3   OH230071   3.167   4.317   8.103
 1959TIP3    H130072   3.204   4.229   8.105
 1959TIP3    H230073   3.089   4.309   8.049
 1960TIP3   OH230074   2.491   4.200   7.740
 1960TIP3    H130075   2.502   4.244   7.656
 1960TIP3    H230076   2.421   4.136   7.724
 1961TIP3   OH230077   2.139   4.437   7.877
 1961TIP3    H130078   2.218   4.403   7.920
 1961TIP3    H230079   2.145   4.404   7.788
 1962TIP3   OH230080   2.568   4.538   7.848
 1962TIP3    H130081   2.647   4.485   7.834
 1962TIP3    H230082   2.516   4.524   7.769
 1963TIP3   OH230083   3.648   4.258   8.349
 1963TIP3    H130084   3.608   4.333   8.307
 1963TIP3    H230085   3.716   4.296   8.406
 1964TIP3   OH230086   2.386   4.138   8.192
 1964TIP3    H130087   2.370   4.195   8.117
 1964TIP3    H230088   2.316   4.159   8.254
 1965TIP3   OH230089   2.968   4.999   7.723
 1965TIP3    H130090   2.933   4.947   7.651
 1965TIP3    H230091   2.967   5.089   7.691
 1966TIP3   OH230092   2.633   4.899   8.130
 1966TIP3    H130093   2.584   4.972   8.168
 1966TIP3    H230094   2.698   4.940   8.073
 1967TIP3   OH230095   2.365   4.300   7.968
 1967TIP3    H130096   2.427   4.357   8.013
 1967TIP3    H230097   2.412   4.268   7.892
 1968TIP3   OH230098   2.493   5.095   8.266
 1968TIP3    H130099   2.499   5.190   8.268
 1968TIP3    H230100   2.404   5.076   8.296
 1969TIP3   OH230101   1.965   5.060   7.389
 1969TIP3    H130102   2.041   5.043   7.334
 1969TIP3    H230103   1.967   5.154   7.406
 1970TIP3   OH230104   3.435   5.204   8.100
 1970TIP3    H130105   3.344   5.206   8.131
 1970TIP3    H230106   3.456   5.296   8.083
 1971TIP3   OH230107   3.450   3.960   8.229
 1971TIP3    H130108   3.388   3.997   8.167
 1971TIP3    H230109   3.537   3.984   8.195
 1972TIP3   OH230110   2.703   3.784   8.000
 1972TIP3    H130111   2.679   3.691   7.996
 1972TIP3    H230112   2.621   3.829   8.021
 1973TIP3   OH230113   3.252   5.470   7.732
 1973TIP3    H130114   3.274   5.380   7.711
 1973TIP3    H230115   3.269   5.518   7.651
 1974TIP3   OH230116   3.328   5.212   7.659
 1974TIP3    H130117   3.287   5.146   7.603
 1974TIP3    H230118   3.362   5.163   7.733
 1975TIP3   OH230119   3.552   4.971   8.458
 1975TIP3    H130120   3.534   4.925   8.376
 1975TIP3    H230121   3.568   5.061   8.432
 1976TIP3   OH230122   3.114   4.732   7.457
 1976TIP3    H130123   3.029   4.776   7.450
 1976TIP3    H230124   3.166   4.770   7.386
 1977TIP3   OH230125   3.705   4.688   8.253
 1977TIP3    H130126   3.639   4.756   8.238
 1977TIP3    H230127   3.771   4.702   8.185
 1978TIP3   OH230128   3.440   4.870   7.656
 1978TIP3    H130129   3.355   4.831   7.677
 1978TIP3    H230130   3.455   4.934   7.726
 1979TIP3   OH230131   3.322   4.573   8.438
 1979TIP3    H130132   3.292   4.642   8.497
 1979TIP3    H230133   3.252   4.566   8.373
 1980TIP3   OH230134   2.401   4.763   7.618
 1980TIP3    H130135   2.359   4.785   7.534
 1980TIP3    H230136   2.410   4.668   7.615
 1981TIP3   OH230137   2.587   5.147   7.894
 1981TIP3    H130138   2.584   5.149   7.798
 1981TIP3    H230139   2.670   5.104   7.915
 1982TIP3   OH230140   2.464   4.700   8.040
 1982TIP3    H130141   2.509   4.654   7.969
 1982TIP3    H230142   2.526   4.767   8.069
 1983TIP3   OH230143   3.184   5.218   8.206
 1983TIP3    H130144   3.143   5.288   8.258
 1983TIP3    H230145   3.119   5.148   8.206
 1984TIP3   OH230146   2.630   5.091   8.512
 1984TIP3    H130147   2.565   5.151   8.547
 1984TIP3    H230148   2.596   5.064   8.426
 1985TIP3   OH230149   3.270   4.867   7.269
 1985TIP3    H130150   3.350   4.901   7.308
 1985TIP3    H230151   3.245   4.932   7.204
 1986TIP3   OH230152   2.253   4.714   8.553
 1986TIP3    H130153   2.253   4.805   8.583
 1986TIP3    H230154   2.176   4.708   8.496
 1987TIP3   OH230155   2.948   5.247   7.592
 1987TIP3    H130156   3.010   5.316   7.614
 1987TIP3    H230157   2.890   5.286   7.527
 1988TIP3   OH230158   2.436   5.275   8.573
 1988TIP3    H130159   2.457   5.317   8.489
 1988TIP3    H230160   2.341   5.279   8.578
 1989TIP3   OH230161   2.292   4.815   7.372
 1989TIP3    H130162   2.247   4.894   7.342
 1989TIP3    H230163   2.287   4.755   7.298
 1990TIP3   OH230164   3.605   5.186   7.329
 1990TIP3    H130165   3.560   5.251   7.383
 1990TIP3    H230166   3.560   5.103   7.348
 1991TIP3   OH230167   1.997   4.970   8.378
 1991TIP3    H130168   1.946   4.982   8.298
 1991TIP3    H230169   2.001   4.875   8.389
 1992TIP3   OH230170   2.071   5.176   8.056
 1992TIP3    H130171   2.152   5.143   8.017
 1992TIP3    H230172   2.101   5.227   8.131
 1993TIP3   OH230173   3.790   5.331   8.688
 1993TIP3    H130174   3.786   5.237   8.672
 1993TIP3    H230175   3.702   5.355   8.715
 1994TIP3   OH230176   2.871   5.216   8.482
 1994TIP3    H130177   2.857   5.302   8.521
 1994TIP3    H230178   2.788   5.170   8.492
 1995TIP3   OH230179   2.194   5.436   7.549
 1995TIP3    H130180   2.207   5.367   7.614
 1995TIP3    H230181   2.129   5.400   7.489
 1996TIP3   OH230182   3.428   4.418   8.641
 1996TIP3    H130183   3.398   4.476   8.571
 1996TIP3    H230184   3.419   4.330   8.606
 1997TIP3   OH230185   2.249   5.075   8.395
 1997TIP3    H130186   2.267   5.054   8.486
 1997TIP3    H230187   2.163   5.039   8.378
 1998TIP3   OH230188   2.454   3.895   8.076
 1998TIP3    H130189   2.374   3.880   8.026
 1998TIP3    H230190   2.443   3.983   8.113
 1999TIP3   OH230191   2.919   3.877   8.419
 1999TIP3    H130192   2.962   3.835   8.494
 1999TIP3    H230193   2.830   3.895   8.450
 2000TIP3   OH230194   3.124   4.247   8.456
 2000TIP3    H130195   3.102   4.232   8.548
 2000TIP3    H230196   3.220   4.245   8.454
 2001TIP3   OH230197   2.931   4.187   7.234
 2001TIP3    H130198   2.944   4.113   7.176
 2001TIP3    H230199   2.911   4.261   7.176
 2002TIP3   OH230200   2.514   4.450   8.157
 2002TIP3    H130201   2.449   4.443   8.227
 2002TIP3    H230202   2.504   4.539   8.123
 2003TIP3   OH230203   2.421   4.487   7.619
 2003TIP3    H130204   2.338   4.439   7.625
 2003TIP3    H230205   2.465   4.448   7.543
 2004TIP3   OH230206   2.904   4.487   8.648
 2004TIP3    H130207   2.866   4.410   8.690
 2004TIP3    H230208   2.993   4.493   8.683
 2005TIP3   OH230209   2.314   4.446   8.344
 2005TIP3    H130210   2.346   4.478   8.428
 2005TIP3    H230211   2.271   4.363   8.365
 2006TIP3   OH230212   1.946   4.134   7.710
 2006TIP3    H130213   1.989   4.138   7.795
 2006TIP3    H230214   1.919   4.224   7.692
 2007TIP3   OH230215   3.122   4.543   8.248
 2007TIP3    H130216   3.152   4.467   8.196
 2007TIP3    H230217   3.043   4.512   8.291
 2008TIP3   OH230218   2.773   4.172   7.772
 2008TIP3    H130219   2.677   4.173   7.766
 2008TIP3    H230220   2.795   4.079   7.779
 2009TIP3   OH230221   2.194   4.328   7.629
 2009TIP3    H130222   2.149   4.339   7.545
 2009TIP3    H230223   2.206   4.234   7.638
 2010TIP3   OH230224   2.545   4.341   7.423
 2010TIP3    H130225   2.630   4.300   7.442
 2010TIP3    H230226   2.550   4.363   7.330
 2011TIP3   OH230227   3.245   4.043   8.060
 2011TIP3    H130228   3.176   4.031   8.126
 2011TIP3    H230229   3.214   3.996   7.983
 2012TIP3   OH230230   2.593   4.364   7.151
 2012TIP3    H130231   2.569   4.291   7.095
 2012TIP3    H230232   2.687   4.376   7.135
 2013TIP3   OH230233   3.495   5.663   8.725
 2013TIP3    H130234   3.533   5.675   8.638
 2013TIP3    H230235   3.561   5.696   8.785
 2014TIP3   OH230236   2.240   4.975   8.677
 2014TIP3    H130237   2.316   4.956   8.733
 2014TIP3    H230238   2.164   4.959   8.734
 2015TIP3   OH230239   2.939   4.302   7.949
 2015TIP3    H130240   2.889   4.259   7.880
 2015TIP3    H230241   2.879   4.308   8.023
 2016TIP3   OH230242   2.261   4.059   7.662
 2016TIP3    H130243   2.223   3.972   7.673
 2016TIP3    H230244   2.303   4.056   7.576
 2017TIP3   OH230245   2.765   4.332   8.164
 2017TIP3    H130246   2.683   4.382   8.160
 2017TIP3    H230247   2.813   4.372   8.237
 2018TIP3   OH230248   2.881   4.887   7.482
 2018TIP3    H130249   2.878   4.954   7.414
 2018TIP3    H230250   2.791   4.882   7.514
 2019TIP3   OH230251   3.527   4.886   8.203
 2019TIP3    H130252   3.593   4.944   8.165
 2019TIP3    H230253   3.463   4.873   8.133
 2020TIP3   OH230254   2.915   4.921   8.471
 2020TIP3    H130255   2.952   4.880   8.549
 2020TIP3    H230256   2.914   5.015   8.492
 2021TIP3   OH230257   2.291   4.833   7.860
 2021TIP3    H130258   2.331   4.815   7.775
 2021TIP3    H230259   2.345   4.785   7.922
 2022TIP3   OH230260   1.993   4.701   8.442
 2022TIP3    H130261   1.960   4.647   8.513
 2022TIP3    H230262   1.934   4.685   8.369
 2023TIP3   OH230263   2.715   4.682   8.688
 2023TIP3    H130264   2.643   4.658   8.629
 2023TIP3    H230265   2.788   4.627   8.661
 2024TIP3   OH230266   3.142   5.238   8.546
 2024TIP3    H130267   3.053   5.231   8.510
 2024TIP3    H230268   3.130   5.239   8.641
 2025TIP3   OH230269   3.771   5.069   8.614
 2025TIP3    H130270   3.681   5.038   8.602
 2025TIP3    H230271   3.817   5.039   8.536
 2026TIP3   OH230272   3.469   5.381   7.484
 2026TIP3    H130273   3.424   5.324   7.546
 2026TIP3    H230274   3.416   5.461   7.481
 2027TIP3   OH230275   3.357   4.812   8.001
 2027TIP3    H130276   3.265   4.802   8.025
 2027TIP3    H230277   3.389   4.723   7.988
 2028TIP3   OH230278   2.541   5.183   7.618
 2028TIP3    H130279   2.520   5.273   7.646
 2028TIP3    H230280   2.539   5.186   7.523
 2029TIP3   OH230281   2.240   4.675   7.136
 2029TIP3    H130282   2.204   4.747   7.085
 2029TIP3    H230283   2.166   4.616   7.151
 2030TIP3   OH230284   2.629   4.920   7.582
 2030TIP3    H130285   2.596   5.007   7.603
 2030TIP3    H230286   2.555   4.861   7.597
 2031TIP3   OH230287   2.786   5.352   8.244
 2031TIP3    H130288   2.841   5.429   8.226
 2031TIP3    H230289   2.838   5.299   8.305
 2032TIP3   OH230290   2.465   5.444   7.662
 2032TIP3    H130291   2.415   5.471   7.585
 2032TIP3    H230292   2.525   5.517   7.679
 2033TIP3   OH230293   3.001   5.000   8.203
 2033TIP3    H130294   2.971   4.970   8.289
 2033TIP3    H230295   3.045   4.924   8.165
 2034TIP3   OH230296   3.369   5.375   8.474
 2034TIP3    H130297   3.284   5.335   8.490
 2034TIP3    H230298   3.351   5.447   8.413
 2035TIP3   OH230299   2.203   4.197   8.398
 2035TIP3    H130300   2.124   4.218   8.447
 2035TIP3    H230301   2.214   4.102   8.408
 2036TIP3   OH230302   3.509   4.934   7.397
 2036TIP3    H130303   3.489   4.908   7.487
 2036TIP3    H230304   3.587   4.883   7.375
 2037TIP3   OH230305   2.183   5.322   8.271
 2037TIP3    H130306   2.214   5.243   8.315
 2037TIP3    H230307   2.164   5.383   8.343
 2038TIP3   OH230308   2.567   5.251   7.348
 2038TIP3    H130309   2.661   5.263   7.366
 2038TIP3    H230310   2.534   5.340   7.332
 2039TIP3   OH230311   2.181   5.028   7.223
 2039TIP3    H130312   2.153   4.973   7.150
 2039TIP3    H230313   2.264   5.065   7.194
 2040TIP3   OH230314   3.072   4.048   8.268
 2040TIP3    H130315   3.083   4.123   8.325
 2040TIP3    H230316   3.017   3.987   8.318
 2041TIP3   OH230317   2.804   5.391   7.392
 2041TIP3    H130318   2.728   5.449   7.394
 2041TIP3    H230319   2.863   5.433   7.328
 2042TIP3   OH230320   2.778   4.199   7.459
 2042TIP3    H130321   2.841   4.198   7.387
 2042TIP3    H230322   2.825   4.161   7.533
 2043TIP3   OH230323   2.917   4.415   8.380
 2043TIP3    H130324   2.898   4.451   8.467
 2043TIP3    H230325   2.983   4.347   8.397
 2044TIP3   OH230326   2.991   4.004   7.552
 2044TIP3    H130327   2.964   3.970   7.637
 2044TIP3    H230328   3.087   4.004   7.555
 2045TIP3   OH230329   2.406   4.098   7.439
 2045TIP3    H130330   2.431   4.187   7.417
 2045TIP3    H230331   2.469   4.043   7.393
 2046TIP3   OH230332   3.404   4.193   8.474
 2046TIP3    H130333   3.390   4.099   8.461
 2046TIP3    H230334   3.483   4.213   8.424
 2047TIP3   OH230335   2.441   5.099   7.157
 2047TIP3    H130336   2.479   5.152   7.227
 2047TIP3    H230337   2.478   5.012   7.170
 2048TIP3   OH230338   3.514   5.467   8.081
 2048TIP3    H130339   3.501   5.517   8.000
 2048TIP3    H230340   3.607   5.475   8.100
 2049TIP3   OH230341   2.200   3.867   7.964
 2049TIP3    H130342   2.191   3.846   7.870
 2049TIP3    H230343   2.165   3.790   8.008
 2050TIP3   OH230344   1.972   5.345   7.403
 2050TIP3    H130345   1.897   5.363   7.459
 2050TIP3    H230346   1.960   5.403   7.327
 2051TIP3   OH230347   2.016   5.559   8.681
 2051TIP3    H130348   2.095   5.541   8.732
 2051TIP3    H230349   1.963   5.480   8.689
 2052TIP3   OH230350   2.449   5.340   8.839
 2052TIP3    H130351   2.526   5.297   8.879
 2052TIP3    H230352   2.455   5.318   8.746
 2053TIP3   OH230353   3.114   5.234   8.819
 2053TIP3    H130354   3.118   5.145   8.853
 2053TIP3    H230355   3.193   5.277   8.853
 2054TIP3   OH230356   3.556   5.325   7.094
 2054TIP3    H130357   3.499   5.265   7.046
 2054TIP3    H230358   3.573   5.281   7.177
 2055TIP3   OH230359   2.010   4.948   8.832
 2055TIP3    H130360   1.968   4.869   8.865
 2055TIP3    H230361   1.951   4.980   8.763
 2056TIP3   OH230362   2.688   4.954   8.744
 2056TIP3    H130363   2.680   4.994   8.657
 2056TIP3    H230364   2.717   4.864   8.726
 2057TIP3   OH230365   3.282   4.996   8.547
 2057TIP3    H130366   3.371   5.009   8.513
 2057TIP3    H230367   3.239   5.080   8.536
 2058TIP3   OH230368   2.111   4.551   8.743
 2058TIP3    H130369   2.174   4.596   8.686
 2058TIP3    H230370   2.115   4.599   8.826
 2059TIP3   OH230371   2.509   4.604   8.508
 2059TIP3    H130372   2.427   4.651   8.525
 2059TIP3    H230373   2.559   4.663   8.453
 2060TIP3   OH230374   3.028   4.807   8.721
 2060TIP3    H130375   3.115   4.776   8.695
 2060TIP3    H230376   2.999   4.744   8.788
 2061TIP3   OH230377   3.467   4.747   7.079
 2061TIP3    H130378   3.431   4.795   7.004
 2061TIP3    H230379   3.403   4.761   7.149
 2062TIP3   OH230380   2.570   4.336   8.575
 2062TIP3    H130381   2.584   4.284   8.496
 2062TIP3    H230382   2.560   4.426   8.543
 2063TIP3   OH230383   2.612   4.178   8.347
 2063TIP3    H130384   2.677   4.211   8.285
 2063TIP3    H230385   2.534   4.162   8.293
 2064TIP3   OH230386   2.676   4.782   8.381
 2064TIP3    H130387   2.756   4.823   8.413
 2064TIP3    H230388   2.665   4.815   8.292
 2065TIP3   OH230389   3.159   4.469   8.766
 2065TIP3    H130390   3.137   4.376   8.757
 2065TIP3    H230391   3.252   4.474   8.744
 2066TIP3   OH230392   3.300   4.753   8.659
 2066TIP3    H130393   3.286   4.841   8.625
 2066TIP3    H230394   3.394   4.738   8.649
 2067TIP3   OH230395   2.408   4.318   8.800
 2067TIP3    H130396   2.327   4.273   8.776
 2067TIP3    H230397   2.454   4.329   8.717
 2068TIP3   OH230398   2.650   3.929   8.467
 2068TIP3    H130399   2.643   4.019   8.438
 2068TIP3    H230400   2.582   3.882   8.419
 2069TIP3   OH230401   2.778   4.260   8.752
 2069TIP3    H130402   2.736   4.220   8.828
 2069TIP3    H230403   2.706   4.276   8.691
 2070TIP3   OH230404   3.058   4.218   8.721
 2070TIP3    H130405   2.966   4.210   8.743
 2070TIP3    H230406   3.103   4.157   8.779
 2071TIP3   OH230407   3.212   4.064   8.888
 2071TIP3    H130408   3.200   3.969   8.881
 2071TIP3    H230409   3.191   4.083   8.979
 2072TIP3   OH230410   2.183   4.140   8.775
 2072TIP3    H130411   2.196   4.053   8.737
 2072TIP3    H230412   2.186   4.126   8.870
 2073TIP3   OH230413   2.633   3.769   8.690
 2073TIP3    H130414   2.693   3.698   8.667
 2073TIP3    H230415   2.633   3.827   8.613
 2074TIP3   OH230416   2.731   3.920   8.898
 2074TIP3    H130417   2.708   3.867   8.822
 2074TIP3    H230418   2.672   3.995   8.895
 2075TIP3   OH230419   1.909   5.568   7.696
 2075TIP3    H130420   1.859   5.530   7.624
 2075TIP3    H230421   1.938   5.492   7.748
 2076TIP3   OH230422   1.993   5.354   7.847
 2076TIP3    H130423   1.981   5.279   7.905
 2076TIP3    H230424   2.087   5.360   7.834
 2077TIP3   OH230425   3.774   5.494   8.170
 2077TIP3    H130426   3.766   5.466   8.261
 2077TIP3    H230427   3.821   5.578   8.175
 2078TIP3   OH230428   3.729   5.415   8.429
 2078TIP3    H130429   3.678   5.339   8.401
 2078TIP3    H230430   3.769   5.388   8.512
 2079TIP3   OH230431   3.593   5.060   8.876
 2079TIP3    H130432   3.510   5.062   8.922
 2079TIP3    H230433   3.644   5.132   8.915
 2080TIP3   OH230434   3.760   4.812   7.359
 2080TIP3    H130435   3.813   4.891   7.353
 2080TIP3    H230436   3.797   4.764   7.433
 2081TIP3   OH230437   3.819   4.681   7.608
 2081TIP3    H130438   3.736   4.711   7.645
 2081TIP3    H230439   3.884   4.703   7.674
 2082TIP3   OH230440   3.771   4.999   8.143
 2082TIP3    H130441   3.823   4.933   8.098
 2082TIP3    H230442   3.807   5.083   8.113
 2083TIP3   OH230443   3.556   5.219   8.350
 2083TIP3    H130444   3.485   5.270   8.388
 2083TIP3    H230445   3.529   5.203   8.260
 2084TIP3   OH230446   3.736   4.681   7.109
 2084TIP3    H130447   3.645   4.696   7.087
 2084TIP3    H230448   3.750   4.729   7.191
 2085TIP3   OH230449   1.983   4.752   8.100
 2085TIP3    H130450   1.988   4.730   8.007
 2085TIP3    H230451   2.067   4.723   8.137
 2086TIP3   OH230452   3.571   4.736   8.613
 2086TIP3    H130453   3.628   4.668   8.578
 2086TIP3    H230454   3.580   4.809   8.552
 2087TIP3   OH230455   3.709   4.479   8.585
 2087TIP3    H130456   3.626   4.451   8.622
 2087TIP3    H230457   3.770   4.408   8.606
 2088TIP3   OH230458   3.454   4.551   7.994
 2088TIP3    H130459   3.524   4.512   7.940
 2088TIP3    H230460   3.467   4.513   8.081
 2089TIP3   OH230461   3.521   4.484   8.263
 2089TIP3    H130462   3.453   4.515   8.322
 2089TIP3    H230463   3.587   4.554   8.264
 2090TIP3   OH230464   1.992   4.233   8.581
 2090TIP3    H130465   2.057   4.217   8.650
 2090TIP3    H230466   1.914   4.185   8.609
 2091TIP3   OH230467   3.748   3.845   8.809
 2091TIP3    H130468   3.815   3.788   8.772
 2091TIP3    H230469   3.744   3.920   8.749
 2092TIP3   OH230470   2.088   4.122   7.964
 2092TIP3    H130471   2.124   4.033   7.966
 2092TIP3    H230472   2.164   4.178   7.956
 2093TIP3   OH230473   1.910   4.412   8.045
 2093TIP3    H130474   1.988   4.419   7.991
 2093TIP3    H230475   1.944   4.397   8.134
 2094TIP3   OH230476   3.666   4.054   8.648
 2094TIP3    H130477   3.597   4.090   8.703
 2094TIP3    H230478   3.620   4.008   8.578
 2095TIP3   OH230479   2.008   3.993   7.467
 2095TIP3    H130480   2.002   4.046   7.546
 2095TIP3    H230481   2.041   4.054   7.400
 2096TIP3   OH230482   1.943   3.915   8.381
 2096TIP3    H130483   1.862   3.873   8.408
 2096TIP3    H230484   1.918   3.969   8.305
 2097TIP3   OH230485   2.167   5.252   8.629
 2097TIP3    H130486   2.082   5.272   8.667
 2097TIP3    H230487   2.185   5.162   8.657
 2098TIP3   OH230488   2.526   5.365   8.329
 2098TIP3    H130489   2.500   5.456   8.313
 2098TIP3    H230490   2.618   5.361   8.304
 2099TIP3   OH230491   2.845   5.461   8.601
 2099TIP3    H130492   2.852   5.436   8.692
 2099TIP3    H230493   2.915   5.524   8.587
 2100TIP3   OH230494   3.058   5.630   8.548
 2100TIP3    H130495   3.097   5.566   8.489
 2100TIP3    H230496   3.118   5.633   8.623
 2101TIP3   OH230497   3.521   3.884   8.483
 2101TIP3    H130498   3.490   3.913   8.397
 2101TIP3    H230499   3.554   3.795   8.468
 2102TIP3   OH230500   2.170   5.625   8.380
 2102TIP3    H130501   2.135   5.678   8.308
 2102TIP3    H230502   2.199   5.689   8.445
 2103TIP3   OH230503   2.450   5.628   8.298
 2103TIP3    H130504   2.358   5.616   8.320
 2103TIP3    H230505   2.448   5.672   8.212
 2104TIP3   OH230506   2.911   5.593   8.163
 2104TIP3    H130507   2.841   5.616   8.102
 2104TIP3    H230508   2.925   5.674   8.213
 2105TIP3   OH230509   3.106   5.470   8.316
 2105TIP3    H130510   3.041   5.511   8.259
 2105TIP3    H230511   3.189   5.510   8.290
 2106TIP3   OH230512   3.355   5.574   8.274
 2106TIP3    H130513   3.393   5.662   8.276
 2106TIP3    H230514   3.403   5.528   8.205
 2107TIP3   OH230515   2.184   5.506   8.059
 2107TIP3    H130516   2.195   5.447   8.134
 2107TIP3    H230517   2.221   5.457   7.985
 2108TIP3   OH230518   2.268   5.356   7.838
 2108TIP3    H130519   2.292   5.268   7.865
 2108TIP3    H230520   2.345   5.388   7.789
 2109TIP3   OH230521   2.630   5.397   8.017
 2109TIP3    H130522   2.606   5.317   7.969
 2109TIP3    H230523   2.682   5.366   8.091
 2110TIP3   OH230524   2.862   3.910   7.801
 2110TIP3    H130525   2.811   3.865   7.869
 2110TIP3    H230526   2.953   3.903   7.831
 2111TIP3   OH230527   3.568   3.715   7.792
 2111TIP3    H130528   3.661   3.714   7.767
 2111TIP3    H230529   3.528   3.781   7.736
 2112TIP3   OH230530   2.168   3.798   7.700
 2112TIP3    H130531   2.083   3.766   7.670
 2112TIP3    H230532   2.228   3.726   7.680
 2113TIP3   OH230533   2.123   3.769   7.333
 2113TIP3    H130534   2.138   3.817   7.251
 2113TIP3    H230535   2.090   3.835   7.394
 2114TIP3   OH230536   2.726   3.772   7.592
 2114TIP3    H130537   2.771   3.788   7.510
 2114TIP3    H230538   2.776   3.821   7.657
 2115TIP3   OH230539   3.147   3.919   7.825
 2115TIP3    H130540   3.191   3.948   7.745
 2115TIP3    H230541   3.140   3.824   7.815
 2116TIP3   OH230542   1.869   5.512   7.202
 2116TIP3    H130543   1.907   5.576   7.143
 2116TIP3    H230544   1.808   5.562   7.257
 2117TIP3   OH230545   2.636   3.997   7.326
 2117TIP3    H130546   2.706   3.932   7.321
 2117TIP3    H230547   2.677   4.073   7.368
 2118TIP3   OH230548   3.721   5.493   7.475
 2118TIP3    H130549   3.634   5.453   7.469
 2118TIP3    H230550   3.708   5.583   7.445
 2119TIP3   OH230551   2.212   3.872   8.699
 2119TIP3    H130552   2.140   3.809   8.708
 2119TIP3    H230553   2.284   3.833   8.747
 2120TIP3   OH230554   2.409   3.746   8.853
 2120TIP3    H130555   2.486   3.771   8.801
 2120TIP3    H230556   2.422   3.653   8.871
 2121TIP3   OH230557   3.215   3.793   8.842
 2121TIP3    H130558   3.213   3.746   8.926
 2121TIP3    H230559   3.307   3.791   8.816
 2122TIP3   OH230560   3.522   5.390   8.706
 2122TIP3    H130561   3.472   5.372   8.626
 2122TIP3    H230562   3.509   5.484   8.722
 2123TIP3   OH230563   4.077   4.637   8.238
 2123TIP3    H130564   4.082   4.544   8.262
 2123TIP3    H230565   4.108   4.683   8.316
 2124TIP3   OH230566   5.167   4.994   7.982
 2124TIP3    H130567   5.102   4.950   8.037
 2124TIP3    H230568   5.180   5.079   8.023
 2125TIP3   OH230569   4.378   5.059   7.975
 2125TIP3    H130570   4.321   4.993   7.937
 2125TIP3    H230571   4.359   5.057   8.069
 2126TIP3   OH230572   3.925   4.422   7.552
 2126TIP3    H130573   3.888   4.510   7.564
 2126TIP3    H230574   3.875   4.367   7.613
 2127TIP3   OH230575   3.995   4.714   7.820
 2127TIP3    H130576   4.027   4.624   7.824
 2127TIP3    H230577   4.073   4.768   7.830
 2128TIP3   OH230578   5.005   5.495   7.890
 2128TIP3    H130579   5.024   5.428   7.825
 2128TIP3    H230580   5.034   5.577   7.850
 2129TIP3   OH230581   5.611   4.104   8.132
 2129TIP3    H130582   5.633   4.178   8.189
 2129TIP3    H230583   5.683   4.100   8.069
 2130TIP3   OH230584   4.991   4.516   8.042
 2130TIP3    H130585   5.040   4.434   8.048
 2130TIP3    H230586   4.907   4.491   8.004
 2131TIP3   OH230587   4.412   4.204   7.793
 2131TIP3    H130588   4.418   4.286   7.743
 2131TIP3    H230589   4.367   4.143   7.735
 2132TIP3   OH230590   5.087   4.291   7.649
 2132TIP3    H130591   5.042   4.216   7.611
 2132TIP3    H230592   5.102   4.351   7.576
 2133TIP3   OH230593   4.081   4.456   7.834
 2133TIP3    H130594   4.110   4.392   7.899
 2133TIP3    H230595   4.107   4.418   7.750
 2134TIP3   OH230596   4.571   4.591   7.862
 2134TIP3    H130597   4.638   4.527   7.886
 2134TIP3    H230598   4.520   4.548   7.794
 2135TIP3   OH230599   5.657   4.310   8.306
 2135TIP3    H130600   5.576   4.358   8.323
 2135TIP3    H230601   5.691   4.291   8.394
 2136TIP3   OH230602   4.229   4.094   8.210
 2136TIP3    H130603   4.202   4.151   8.138
 2136TIP3    H230604   4.159   4.103   8.275
 2137TIP3   OH230605   4.571   4.886   8.215
 2137TIP3    H130606   4.499   4.948   8.231
 2137TIP3    H230607   4.650   4.939   8.220
 2138TIP3   OH230608   4.210   4.256   7.985
 2138TIP3    H130609   4.259   4.324   8.033
 2138TIP3    H230610   4.273   4.223   7.920
 2139TIP3   OH230611   4.362   5.073   8.272
 2139TIP3    H130612   4.369   5.168   8.278
 2139TIP3    H230613   4.276   5.053   8.310
 2140TIP3   OH230614   3.865   5.072   7.329
 2140TIP3    H130615   3.776   5.103   7.312
 2140TIP3    H230616   3.905   5.142   7.381
 2141TIP3   OH230617   5.211   5.248   8.099
 2141TIP3    H130618   5.122   5.273   8.124
 2141TIP3    H230619   5.250   5.328   8.065
 2142TIP3   OH230620   5.341   4.092   8.200
 2142TIP3    H130621   5.295   4.164   8.159
 2142TIP3    H230622   5.431   4.099   8.168
 2143TIP3   OH230623   4.515   3.777   7.886
 2143TIP3    H130624   4.525   3.685   7.910
 2143TIP3    H230625   4.445   3.810   7.943
 2144TIP3   OH230626   5.103   5.343   7.676
 2144TIP3    H130627   5.128   5.251   7.682
 2144TIP3    H230628   5.186   5.390   7.669
 2145TIP3   OH230629   5.183   5.080   7.712
 2145TIP3    H130630   5.240   5.023   7.659
 2145TIP3    H230631   5.188   5.042   7.800
 2146TIP3   OH230632   5.395   5.007   8.418
 2146TIP3    H130633   5.381   4.951   8.341
 2146TIP3    H230634   5.410   5.094   8.381
 2147TIP3   OH230635   4.830   4.830   7.403
 2147TIP3    H130636   4.807   4.920   7.426
 2147TIP3    H230637   4.827   4.828   7.307
 2148TIP3   OH230638   4.844   4.595   7.049
 2148TIP3    H130639   4.824   4.689   7.047
 2148TIP3    H230640   4.936   4.591   7.075
 2149TIP3   OH230641   5.510   4.710   8.298
 2149TIP3    H130642   5.448   4.765   8.250
 2149TIP3    H230643   5.592   4.718   8.249
 2150TIP3   OH230644   5.198   4.523   8.511
 2150TIP3    H130645   5.198   4.601   8.567
 2150TIP3    H230646   5.140   4.546   8.438
 2151TIP3   OH230647   4.326   4.727   7.648
 2151TIP3    H130648   4.287   4.740   7.562
 2151TIP3    H230649   4.352   4.636   7.650
 2152TIP3   OH230650   4.416   4.705   8.056
 2152TIP3    H130651   4.474   4.666   7.991
 2152TIP3    H230652   4.473   4.763   8.108
 2153TIP3   OH230653   4.952   5.291   8.200
 2153TIP3    H130654   4.978   5.293   8.292
 2153TIP3    H230655   4.905   5.209   8.190
 2154TIP3   OH230656   4.503   5.092   8.527
 2154TIP3    H130657   4.437   5.149   8.568
 2154TIP3    H230658   4.462   5.062   8.446
 2155TIP3   OH230659   4.140   4.727   8.496
 2155TIP3    H130660   4.155   4.803   8.552
 2155TIP3    H230661   4.049   4.704   8.511
 2156TIP3   OH230662   4.316   5.274   8.605
 2156TIP3    H130663   4.318   5.309   8.516
 2156TIP3    H230664   4.223   5.271   8.627
 2157TIP3   OH230665   4.210   4.728   7.396
 2157TIP3    H130666   4.172   4.804   7.351
 2157TIP3    H230667   4.179   4.653   7.347
 2158TIP3   OH230668   5.452   5.239   7.237
 2158TIP3    H130669   5.423   5.293   7.163
 2158TIP3    H230670   5.430   5.149   7.211
 2159TIP3   OH230671   3.887   4.957   8.394
 2159TIP3    H130672   3.841   4.965   8.310
 2159TIP3    H230673   3.884   4.864   8.414
 2160TIP3   OH230674   3.883   5.250   8.095
 2160TIP3    H130675   3.957   5.263   8.155
 2160TIP3    H230676   3.829   5.328   8.104
 2161TIP3   OH230677   5.667   5.313   8.667
 2161TIP3    H130678   5.657   5.220   8.644
 2161TIP3    H230679   5.580   5.341   8.696
 2162TIP3   OH230680   4.731   5.242   8.523
 2162TIP3    H130681   4.716   5.316   8.582
 2162TIP3    H230682   4.652   5.190   8.530
 2163TIP3   OH230683   4.807   5.610   7.379
 2163TIP3    H130684   4.770   5.550   7.315
 2163TIP3    H230685   4.742   5.614   7.449
 2164TIP3   OH230686   4.077   5.473   7.620
 2164TIP3    H130687   4.171   5.475   7.636
 2164TIP3    H230688   4.040   5.436   7.700
 2165TIP3   OH230689   5.029   5.494   7.106
 2165TIP3    H130690   5.065   5.457   7.025
 2165TIP3    H230691   5.054   5.432   7.174
 2166TIP3   OH230692   5.049   5.473   7.423
 2166TIP3    H130693   4.962   5.514   7.417
 2166TIP3    H230694   5.047   5.424   7.505
 2167TIP3   OH230695   5.394   4.360   8.662
 2167TIP3    H130696   5.325   4.419   8.631
 2167TIP3    H230697   5.387   4.283   8.605
 2168TIP3   OH230698   4.127   5.090   8.423
 2168TIP3    H130699   4.148   5.061   8.512
 2168TIP3    H230700   4.043   5.048   8.403
 2169TIP3   OH230701   4.307   3.879   8.048
 2169TIP3    H130702   4.224   3.871   8.001
 2169TIP3    H230703   4.296   3.958   8.101
 2170TIP3   OH230704   4.812   3.966   8.391
 2170TIP3    H130705   4.853   3.912   8.459
 2170TIP3    H230706   4.719   3.946   8.397
 2171TIP3   OH230707   5.096   4.265   8.527
 2171TIP3    H130708   5.052   4.257   8.611
 2171TIP3    H230709   5.127   4.355   8.524
 2172TIP3   OH230710   4.335   4.450   8.138
 2172TIP3    H130711   4.267   4.445   8.205
 2172TIP3    H230712   4.339   4.543   8.115
 2173TIP3   OH230713   4.411   4.461   7.655
 2173TIP3    H130714   4.327   4.419   7.637
 2173TIP3    H230715   4.454   4.467   7.570
 2174TIP3   OH230716   4.881   4.579   7.533
 2174TIP3    H130717   4.864   4.660   7.483
 2174TIP3    H230718   4.962   4.546   7.495
 2175TIP3   OH230719   4.819   4.499   8.638
 2175TIP3    H130720   4.774   4.427   8.683
 2175TIP3    H230721   4.896   4.517   8.691
 2176TIP3   OH230722   4.151   4.388   8.339
 2176TIP3    H130723   4.210   4.421   8.406
 2176TIP3    H230724   4.121   4.303   8.372
 2177TIP3   OH230725   3.797   4.231   7.715
 2177TIP3    H130726   3.818   4.167   7.783
 2177TIP3    H230727   3.792   4.180   7.635
 2178TIP3   OH230728   3.974   4.288   7.318
 2178TIP3    H130729   3.963   4.346   7.243
 2178TIP3    H230730   3.956   4.343   7.395
 2179TIP3   OH230731   5.018   4.582   8.309
 2179TIP3    H130732   5.021   4.553   8.218
 2179TIP3    H230733   4.931   4.556   8.340
 2180TIP3   OH230734   4.695   4.185   7.798
 2180TIP3    H130735   4.600   4.177   7.800
 2180TIP3    H230736   4.727   4.095   7.807
 2181TIP3   OH230737   4.182   4.315   7.613
 2181TIP3    H130738   4.100   4.333   7.566
 2181TIP3    H230739   4.194   4.220   7.604
 2182TIP3   OH230740   4.513   4.469   7.399
 2182TIP3    H130741   4.598   4.428   7.417
 2182TIP3    H230742   4.462   4.401   7.356
 2183TIP3   OH230743   5.089   4.259   8.098
 2183TIP3    H130744   5.034   4.244   8.174
 2183TIP3    H230745   5.058   4.196   8.033
 2184TIP3   OH230746   5.391   5.673   8.729
 2184TIP3    H130747   5.422   5.686   8.639
 2184TIP3    H230748   5.463   5.706   8.783
 2185TIP3   OH230749   4.156   4.946   8.667
 2185TIP3    H130750   4.225   4.933   8.733
 2185TIP3    H230751   4.076   4.956   8.718
 2186TIP3   OH230752   4.750   4.399   7.960
 2186TIP3    H130753   4.746   4.325   7.899
 2186TIP3    H230754   4.699   4.371   8.036
 2187TIP3   OH230755   4.257   4.039   7.627
 2187TIP3    H130756   4.180   3.983   7.638
 2187TIP3    H230757   4.328   3.978   7.605
 2188TIP3   OH230758   4.587   4.347   8.178
 2188TIP3    H130759   4.502   4.388   8.163
 2188TIP3    H230760   4.628   4.401   8.246
 2189TIP3   OH230761   5.356   4.890   8.162
 2189TIP3    H130762   5.436   4.937   8.138
 2189TIP3    H230763   5.294   4.911   8.091
 2190TIP3   OH230764   5.076   4.223   7.247
 2190TIP3    H130765   5.029   4.205   7.166
 2190TIP3    H230766   5.157   4.173   7.240
 2191TIP3   OH230767   4.849   4.975   8.495
 2191TIP3    H130768   4.880   4.923   8.569
 2191TIP3    H230769   4.809   5.052   8.536
 2192TIP3   OH230770   5.111   4.461   7.424
 2192TIP3    H130771   5.111   4.397   7.353
 2192TIP3    H230772   5.178   4.525   7.399
 2193TIP3   OH230773   4.241   4.835   7.883
 2193TIP3    H130774   4.274   4.807   7.798
 2193TIP3    H230775   4.287   4.780   7.946
 2194TIP3   OH230776   3.861   4.689   8.479
 2194TIP3    H130777   3.836   4.616   8.535
 2194TIP3    H230778   3.813   4.674   8.397
 2195TIP3   OH230779   4.634   4.703   8.649
 2195TIP3    H130780   4.594   4.698   8.562
 2195TIP3    H230781   4.708   4.642   8.646
 2196TIP3   OH230782   5.001   5.279   8.475
 2196TIP3    H130783   4.908   5.259   8.486
 2196TIP3    H230784   5.032   5.293   8.565
 2197TIP3   OH230785   5.575   4.415   7.320
 2197TIP3    H130786   5.522   4.425   7.398
 2197TIP3    H230787   5.608   4.503   7.301
 2198TIP3   OH230788   5.626   5.055   8.573
 2198TIP3    H130789   5.537   5.034   8.544
 2198TIP3    H230790   5.683   5.011   8.510
 2199TIP3   OH230791   5.322   5.442   7.370
 2199TIP3    H130792   5.230   5.417   7.363
 2199TIP3    H230793   5.369   5.372   7.325
 2200TIP3   OH230794   5.006   4.806   8.127
 2200TIP3    H130795   5.031   4.767   8.211
 2200TIP3    H230796   4.998   4.730   8.069
 2201TIP3   OH230797   4.648   5.341   8.276
 2201TIP3    H130798   4.683   5.430   8.270
 2201TIP3    H230799   4.691   5.303   8.352
 2202TIP3   OH230800   4.350   5.496   7.679
 2202TIP3    H130801   4.411   5.478   7.608
 2202TIP3    H230802   4.377   5.581   7.714
 2203TIP3   OH230803   4.848   5.018   8.223
 2203TIP3    H130804   4.850   5.003   8.317
 2203TIP3    H230805   4.900   4.947   8.186
 2204TIP3   OH230806   5.244   5.433   8.458
 2204TIP3    H130807   5.152   5.408   8.459
 2204TIP3    H230808   5.245   5.518   8.414
 2205TIP3   OH230809   4.062   4.134   8.435
 2205TIP3    H130810   3.987   4.173   8.479
 2205TIP3    H230811   4.078   4.052   8.481
 2206TIP3   OH230812   4.074   5.339   8.281
 2206TIP3    H130813   4.101   5.265   8.335
 2206TIP3    H230814   4.076   5.414   8.339
 2207TIP3   OH230815   4.089   4.923   7.235
 2207TIP3    H130816   4.014   4.977   7.259
 2207TIP3    H230817   4.157   4.986   7.211
 2208TIP3   OH230818   4.918   4.217   8.322
 2208TIP3    H130819   4.982   4.224   8.393
 2208TIP3    H230820   4.876   4.133   8.336
 2209TIP3   OH230821   4.919   4.144   7.468
 2209TIP3    H130822   4.970   4.158   7.389
 2209TIP3    H230823   4.855   4.215   7.469
 2210TIP3   OH230824   4.733   4.344   7.553
 2210TIP3    H130825   4.784   4.425   7.555
 2210TIP3    H230826   4.743   4.307   7.641
 2211TIP3   OH230827   4.771   4.458   8.368
 2211TIP3    H130828   4.782   4.465   8.463
 2211TIP3    H230829   4.811   4.374   8.346
 2212TIP3   OH230830   4.724   3.953   7.561
 2212TIP3    H130831   4.756   3.929   7.649
 2212TIP3    H230832   4.801   3.991   7.518
 2213TIP3   OH230833   4.549   5.527   7.479
 2213TIP3    H130834   4.519   5.569   7.399
 2213TIP3    H230835   4.580   5.441   7.451
 2214TIP3   OH230836   4.366   4.257   7.302
 2214TIP3    H130837   4.278   4.219   7.313
 2214TIP3    H230838   4.422   4.202   7.357
 2215TIP3   OH230839   5.343   4.146   8.478
 2215TIP3    H130840   5.251   4.166   8.492
 2215TIP3    H230841   5.349   4.123   8.385
 2216TIP3   OH230842   5.340   5.496   8.060
 2216TIP3    H130843   5.336   5.568   7.997
 2216TIP3    H230844   5.434   5.483   8.076
 2217TIP3   OH230845   4.051   3.863   7.945
 2217TIP3    H130846   4.050   3.866   7.849
 2217TIP3    H230847   4.036   3.770   7.966
 2218TIP3   OH230848   3.925   5.305   7.461
 2218TIP3    H130849   3.847   5.359   7.467
 2218TIP3    H230850   3.992   5.353   7.510
 2219TIP3   OH230851   3.932   5.577   8.746
 2219TIP3    H130852   3.995   5.549   8.812
 2219TIP3    H230853   3.888   5.496   8.719
 2220TIP3   OH230854   4.333   5.338   8.877
 2220TIP3    H130855   4.410   5.292   8.911
 2220TIP3    H230856   4.335   5.322   8.782
 2221TIP3   OH230857   4.700   5.455   7.180
 2221TIP3    H130858   4.679   5.389   7.246
 2221TIP3    H230859   4.752   5.407   7.115
 2222TIP3   OH230860   5.057   5.325   8.738
 2222TIP3    H130861   5.012   5.248   8.773
 2222TIP3    H230862   5.131   5.339   8.797
 2223TIP3   OH230863   3.917   4.954   8.815
 2223TIP3    H130864   3.873   4.873   8.839
 2223TIP3    H230865   3.859   4.995   8.751
 2224TIP3   OH230866   4.587   4.955   8.751
 2224TIP3    H130867   4.565   5.000   8.669
 2224TIP3    H230868   4.621   4.870   8.723
 2225TIP3   OH230869   5.158   5.018   8.557
 2225TIP3    H130870   5.243   5.027   8.513
 2225TIP3    H230871   5.103   5.086   8.517
 2226TIP3   OH230872   4.056   4.541   8.771
 2226TIP3    H130873   4.143   4.501   8.776
 2226TIP3    H230874   4.050   4.595   8.850
 2227TIP3   OH230875   4.442   4.643   7.115
 2227TIP3    H130876   4.354   4.675   7.096
 2227TIP3    H230877   4.447   4.641   7.211
 2228TIP3   OH230878   4.340   4.533   8.483
 2228TIP3    H130879   4.274   4.600   8.500
 2228TIP3    H230880   4.414   4.580   8.446
 2229TIP3   OH230881   4.933   4.842   8.739
 2229TIP3    H130882   5.015   4.795   8.720
 2229TIP3    H230883   4.895   4.795   8.813
 2230TIP3   OH230884   4.449   4.300   8.589
 2230TIP3    H130885   4.457   4.241   8.514
 2230TIP3    H230886   4.421   4.383   8.551
 2231TIP3   OH230887   4.459   4.161   8.344
 2231TIP3    H130888   4.512   4.208   8.281
 2231TIP3    H230889   4.379   4.139   8.297
 2232TIP3   OH230890   4.566   4.658   8.383
 2232TIP3    H130891   4.642   4.605   8.360
 2232TIP3    H230892   4.571   4.733   8.323
 2233TIP3   OH230893   5.038   4.525   8.816
 2233TIP3    H130894   5.031   4.430   8.815
 2233TIP3    H230895   5.124   4.542   8.855
 2234TIP3   OH230896   5.222   4.768   8.644
 2234TIP3    H130897   5.192   4.855   8.620
 2234TIP3    H230898   5.314   4.765   8.617
 2235TIP3   OH230899   4.264   4.337   8.791
 2235TIP3    H130900   4.192   4.276   8.777
 2235TIP3    H230901   4.322   4.324   8.716
 2236TIP3   OH230902   4.541   3.904   8.406
 2236TIP3    H130903   4.508   3.993   8.388
 2236TIP3    H230904   4.479   3.847   8.361
 2237TIP3   OH230905   4.688   4.288   8.759
 2237TIP3    H130906   4.674   4.246   8.844
 2237TIP3    H230907   4.604   4.278   8.714
 2238TIP3   OH230908   4.970   4.261   8.771
 2238TIP3    H130909   4.875   4.254   8.773
 2238TIP3    H230910   5.001   4.182   8.814
 2239TIP3   OH230911   5.065   4.038   8.892
 2239TIP3    H130912   5.056   3.945   8.868
 2239TIP3    H230913   5.033   4.042   8.982
 2240TIP3   OH230914   4.069   4.130   8.766
 2240TIP3    H130915   4.079   4.053   8.712
 2240TIP3    H230916   4.081   4.099   8.856
 2241TIP3   OH230917   4.532   3.782   8.652
 2241TIP3    H130918   4.583   3.702   8.637
 2241TIP3    H230919   4.537   3.829   8.568
 2242TIP3   OH230920   4.593   3.921   8.883
 2242TIP3    H130921   4.582   3.869   8.803
 2242TIP3    H230922   4.523   3.987   8.878
 2243TIP3   OH230923   4.519   5.664   7.231
 2243TIP3    H130924   4.567   5.588   7.197
 2243TIP3    H230925   4.515   5.724   7.157
 2244TIP3   OH230926   3.715   5.514   7.752
 2244TIP3    H130927   3.725   5.506   7.657
 2244TIP3    H230928   3.795   5.477   7.788
 2245TIP3   OH230929   3.948   5.392   7.853
 2245TIP3    H130930   3.914   5.313   7.895
 2245TIP3    H230931   4.008   5.430   7.917
 2246TIP3   OH230932   5.600   5.493   8.153
 2246TIP3    H130933   5.605   5.460   8.242
 2246TIP3    H230934   5.645   5.577   8.155
 2247TIP3   OH230935   5.602   5.406   8.413
 2247TIP3    H130936   5.542   5.337   8.385
 2247TIP3    H230937   5.643   5.372   8.492
 2248TIP3   OH230938   5.446   5.031   8.898
 2248TIP3    H130939   5.359   5.038   8.939
 2248TIP3    H230940   5.494   5.106   8.932
 2249TIP3   OH230941   5.590   5.009   8.113
 2249TIP3    H130942   5.660   4.944   8.113
 2249TIP3    H230943   5.634   5.091   8.093
 2250TIP3   OH230944   5.394   5.256   8.313
 2250TIP3    H130945   5.338   5.316   8.363
 2250TIP3    H230946   5.348   5.244   8.230
 2251TIP3   OH230947   5.405   4.475   7.100
 2251TIP3    H130948   5.453   4.456   7.181
 2251TIP3    H230949   5.388   4.389   7.062
 2252TIP3   OH230950   3.899   4.763   8.073
 2252TIP3    H130951   3.924   4.749   7.982
 2252TIP3    H230952   3.970   4.722   8.124
 2253TIP3   OH230953   5.488   4.715   8.578
 2253TIP3    H130954   5.540   4.636   8.591
 2253TIP3    H230955   5.497   4.734   8.485
 2254TIP3   OH230956   5.637   4.481   8.619
 2254TIP3    H130957   5.552   4.442   8.641
 2254TIP3    H230958   5.694   4.407   8.603
 2255TIP3   OH230959   5.427   4.455   8.353
 2255TIP3    H130960   5.347   4.470   8.404
 2255TIP3    H230961   5.459   4.542   8.331
 2256TIP3   OH230962   3.862   4.240   8.607
 2256TIP3    H130963   3.928   4.224   8.674
 2256TIP3    H230964   3.795   4.174   8.622
 2257TIP3   OH230965   5.635   3.876   8.832
 2257TIP3    H130966   5.698   3.807   8.812
 2257TIP3    H230967   5.640   3.935   8.756
 2258TIP3   OH230968   3.930   4.106   8.006
 2258TIP3    H130969   3.966   4.019   7.988
 2258TIP3    H230970   4.003   4.165   7.989
 2259TIP3   OH230971   3.660   4.438   7.841
 2259TIP3    H130972   3.691   4.358   7.798
 2259TIP3    H230973   3.740   4.485   7.864
 2260TIP3   OH230974   5.545   4.076   8.654
 2260TIP3    H130975   5.482   4.082   8.726
 2260TIP3    H230976   5.491   4.079   8.575
 2261TIP3   OH230977   3.827   4.102   7.471
 2261TIP3    H130978   3.811   4.020   7.425
 2261TIP3    H230979   3.882   4.153   7.411
 2262TIP3   OH230980   5.318   5.520   7.629
 2262TIP3    H130981   5.322   5.497   7.536
 2262TIP3    H230982   5.409   5.531   7.655
 2263TIP3   OH230983   3.824   3.806   8.303
 2263TIP3    H130984   3.752   3.766   8.351
 2263TIP3    H230985   3.787   3.888   8.268
 2264TIP3   OH230986   4.063   5.274   8.708
 2264TIP3    H130987   3.970   5.291   8.696
 2264TIP3    H230988   4.075   5.273   8.803
 2265TIP3   OH230989   4.384   5.343   8.340
 2265TIP3    H130990   4.361   5.435   8.328
 2265TIP3    H230991   4.477   5.338   8.320
 2266TIP3   OH230992   4.711   5.466   8.684
 2266TIP3    H130993   4.722   5.424   8.769
 2266TIP3    H230994   4.790   5.518   8.673
 2267TIP3   OH230995   4.961   5.581   8.659
 2267TIP3    H130996   4.995   5.495   8.684
 2267TIP3    H230997   5.012   5.642   8.712
 2268TIP3   OH230998   5.467   3.796   8.472
 2268TIP3    H130999   5.395   3.805   8.409
 2268TIP3    H231000   5.511   3.715   8.446
 2269TIP3   OH231001   4.087   5.604   8.407
 2269TIP3    H131002   4.010   5.640   8.363
 2269TIP3    H231003   4.093   5.654   8.489
 2270TIP3   OH231004   4.346   5.616   8.316
 2270TIP3    H131005   4.256   5.613   8.350
 2270TIP3    H231006   4.339   5.663   8.233
 2271TIP3   OH231007   4.741   5.596   8.222
 2271TIP3    H131008   4.679   5.647   8.170
 2271TIP3    H231009   4.761   5.652   8.297
 2272TIP3   OH231010   5.030   5.611   8.269
 2272TIP3    H131011   4.979   5.660   8.333
 2272TIP3    H231012   5.119   5.645   8.278
 2273TIP3   OH231013   5.302   5.653   8.284
 2273TIP3    H131014   5.328   5.738   8.251
 2273TIP3    H231015   5.315   5.593   8.210
 2274TIP3   OH231016   4.135   5.473   8.038
 2274TIP3    H131017   4.120   5.429   8.122
 2274TIP3    H231018   4.210   5.427   8.000
 2275TIP3   OH231019   4.336   5.333   7.909
 2275TIP3    H131020   4.347   5.238   7.902
 2275TIP3    H231021   4.341   5.365   7.819
 2276TIP3   OH231022   4.562   5.435   8.026
 2276TIP3    H131023   4.485   5.398   7.983
 2276TIP3    H231024   4.578   5.377   8.101
 2277TIP3   OH231025   4.755   3.905   7.836
 2277TIP3    H131026   4.670   3.865   7.856
 2277TIP3    H231027   4.819   3.838   7.860
 2278TIP3   OH231028   4.056   3.850   7.672
 2278TIP3    H131029   3.967   3.818   7.655
 2278TIP3    H231030   4.110   3.771   7.674
 2279TIP3   OH231031   4.469   3.844   7.616
 2279TIP3    H131032   4.555   3.873   7.587
 2279TIP3    H231033   4.482   3.817   7.707
 2280TIP3   OH231034   4.549   4.152   7.476
 2280TIP3    H131035   4.593   4.068   7.492
 2280TIP3    H231036   4.612   4.218   7.502
 2281TIP3   OH231037   4.088   3.888   8.617
 2281TIP3    H131038   4.023   3.823   8.644
 2281TIP3    H231039   4.167   3.865   8.665
 2282TIP3   OH231040   4.287   3.792   8.783
 2282TIP3    H131041   4.373   3.803   8.742
 2282TIP3    H231042   4.282   3.699   8.804
 2283TIP3   OH231043   5.107   3.780   8.792
 2283TIP3    H131044   5.104   3.729   8.873
 2283TIP3    H231045   5.198   3.772   8.762
 2284TIP3   OH231046   5.407   5.399   8.690
 2284TIP3    H131047   5.348   5.397   8.615
 2284TIP3    H231048   5.400   5.488   8.725
 2285TIP3   OH231049   6.868   4.596   7.581
 2285TIP3    H131050   6.879   4.577   7.675
 2285TIP3    H231051   6.808   4.671   7.579
 2286TIP3   OH231052   6.812   4.695   8.066
 2286TIP3    H131053   6.823   4.647   8.148
 2286TIP3    H231054   6.787   4.628   8.002
 2287TIP3   OH231055   5.964   4.667   8.260
 2287TIP3    H131056   5.986   4.574   8.270
 2287TIP3    H231057   6.015   4.711   8.328
 2288TIP3   OH231058   7.280   4.972   7.924
 2288TIP3    H131059   7.198   4.929   7.948
 2288TIP3    H231060   7.275   5.059   7.965
 2289TIP3   OH231061   6.172   5.086   7.957
 2289TIP3    H131062   6.120   5.010   7.932
 2289TIP3    H231063   6.184   5.076   8.052
 2290TIP3   OH231064   5.803   4.695   7.895
 2290TIP3    H131065   5.834   4.606   7.880
 2290TIP3    H231066   5.880   4.750   7.881
 2291TIP3   OH231067   6.655   4.929   8.094
 2291TIP3    H131068   6.694   4.848   8.061
 2291TIP3    H231069   6.714   4.957   8.164
 2292TIP3   OH231070   7.397   4.098   8.156
 2292TIP3    H131071   7.388   4.134   8.244
 2292TIP3    H231072   7.441   4.167   8.107
 2293TIP3   OH231073   6.934   4.348   8.091
 2293TIP3    H131074   6.928   4.253   8.085
 2293TIP3    H231075   6.935   4.378   8.000
 2294TIP3   OH231076   6.282   4.164   7.783
 2294TIP3    H131077   6.282   4.243   7.729
 2294TIP3    H231078   6.227   4.102   7.734
 2295TIP3   OH231079   7.024   4.277   7.676
 2295TIP3    H131080   7.038   4.194   7.721
 2295TIP3    H231081   7.111   4.306   7.650
 2296TIP3   OH231082   5.887   4.428   7.863
 2296TIP3    H131083   5.957   4.380   7.907
 2296TIP3    H231084   5.893   4.401   7.772
 2297TIP3   OH231085   6.383   4.570   7.811
 2297TIP3    H131086   6.474   4.542   7.819
 2297TIP3    H231087   6.342   4.502   7.758
 2298TIP3   OH231088   7.398   4.226   8.400
 2298TIP3    H131089   7.368   4.314   8.378
 2298TIP3    H231090   7.482   4.239   8.443
 2299TIP3   OH231091   6.150   4.124   8.194
 2299TIP3    H131092   6.123   4.174   8.116
 2299TIP3    H231093   6.080   4.139   8.257
 2300TIP3   OH231094   6.696   4.807   7.592
 2300TIP3    H131095   6.724   4.865   7.521
 2300TIP3    H231096   6.605   4.832   7.609
 2301TIP3   OH231097   6.389   4.893   8.174
 2301TIP3    H131098   6.342   4.973   8.196
 2301TIP3    H231099   6.476   4.922   8.146
 2302TIP3   OH231100   7.087   4.035   7.780
 2302TIP3    H131101   7.029   3.964   7.807
 2302TIP3    H231102   7.170   3.993   7.759
 2303TIP3   OH231103   6.093   4.263   7.962
 2303TIP3    H131104   6.148   4.331   8.001
 2303TIP3    H231105   6.149   4.223   7.896
 2304TIP3   OH231106   6.217   5.105   8.254
 2304TIP3    H131107   6.233   5.198   8.274
 2304TIP3    H231108   6.131   5.087   8.291
 2305TIP3   OH231109   7.216   5.200   8.084
 2305TIP3    H131110   7.123   5.189   8.104
 2305TIP3    H231111   7.223   5.290   8.052
 2306TIP3   OH231112   7.134   3.974   8.185
 2306TIP3    H131113   7.059   4.012   8.140
 2306TIP3    H231114   7.209   4.023   8.151
 2307TIP3   OH231115   6.465   3.795   8.019
 2307TIP3    H131116   6.448   3.702   8.003
 2307TIP3    H231117   6.379   3.831   8.041
 2308TIP3   OH231118   7.311   5.025   8.431
 2308TIP3    H131119   7.306   4.976   8.349
 2308TIP3    H231120   7.334   5.114   8.405
 2309TIP3   OH231121   7.450   4.698   8.343
 2309TIP3    H131122   7.391   4.761   8.301
 2309TIP3    H231123   7.493   4.653   8.270
 2310TIP3   OH231124   7.100   4.553   7.437
 2310TIP3    H131125   7.016   4.575   7.478
 2310TIP3    H231126   7.166   4.580   7.501
 2311TIP3   OH231127   7.043   4.513   8.489
 2311TIP3    H131128   7.033   4.594   8.539
 2311TIP3    H231129   6.977   4.520   8.419
 2312TIP3   OH231130   6.219   4.753   7.683
 2312TIP3    H131131   6.204   4.714   7.597
 2312TIP3    H231132   6.273   4.689   7.729
 2313TIP3   OH231133   6.539   5.152   7.977
 2313TIP3    H131134   6.492   5.122   7.899
 2313TIP3    H231135   6.584   5.074   8.009
 2314TIP3   OH231136   6.255   4.700   8.024
 2314TIP3    H131137   6.313   4.670   7.954
 2314TIP3    H231138   6.307   4.765   8.072
 2315TIP3   OH231139   6.953   5.185   8.157
 2315TIP3    H131140   6.905   5.263   8.185
 2315TIP3    H231141   6.903   5.112   8.195
 2316TIP3   OH231142   6.365   5.090   8.516
 2316TIP3    H131143   6.305   5.150   8.561
 2316TIP3    H231144   6.324   5.074   8.431
 2317TIP3   OH231145   6.069   4.756   8.503
 2317TIP3    H131146   6.072   4.844   8.540
 2317TIP3    H231147   5.984   4.721   8.530
 2318TIP3   OH231148   6.191   5.273   8.621
 2318TIP3    H131149   6.193   5.322   8.538
 2318TIP3    H231150   6.100   5.278   8.650
 2319TIP3   OH231151   7.347   3.898   7.309
 2319TIP3    H131152   7.365   3.806   7.326
 2319TIP3    H231153   7.337   3.904   7.214
 2320TIP3   OH231154   6.226   4.639   7.437
 2320TIP3    H131155   6.315   4.645   7.402
 2320TIP3    H231156   6.180   4.583   7.375
 2321TIP3   OH231157   7.312   5.360   7.215
 2321TIP3    H131158   7.276   5.377   7.302
 2321TIP3    H231159   7.394   5.410   7.214
 2322TIP3   OH231160   5.779   4.902   8.404
 2322TIP3    H131161   5.760   4.862   8.319
 2322TIP3    H231162   5.791   4.827   8.463
 2323TIP3   OH231163   5.713   5.253   8.074
 2323TIP3    H131164   5.791   5.266   8.129
 2323TIP3    H231165   5.659   5.331   8.091
 2324TIP3   OH231166   7.552   5.367   8.635
 2324TIP3    H131167   7.571   5.275   8.619
 2324TIP3    H231168   7.461   5.369   8.665
 2325TIP3   OH231169   6.619   5.200   8.526
 2325TIP3    H131170   6.610   5.285   8.568
 2325TIP3    H231171   6.530   5.166   8.520
 2326TIP3   OH231172   6.095   5.455   7.674
 2326TIP3    H131173   6.106   5.419   7.762
 2326TIP3    H231174   6.022   5.406   7.637
 2327TIP3   OH231175   7.200   4.390   8.694
 2327TIP3    H131176   7.158   4.435   8.620
 2327TIP3    H231177   7.205   4.299   8.667
 2328TIP3   OH231178   5.976   5.101   8.397
 2328TIP3    H131179   6.002   5.088   8.488
 2328TIP3    H231180   5.905   5.039   8.383
 2329TIP3   OH231181   6.209   3.885   8.071
 2329TIP3    H131182   6.130   3.868   8.020
 2329TIP3    H231183   6.194   3.970   8.111
 2330TIP3   OH231184   6.658   3.904   8.453
 2330TIP3    H131185   6.702   3.848   8.517
 2330TIP3    H231186   6.565   3.897   8.474
 2331TIP3   OH231187   6.979   4.220   8.525
 2331TIP3    H131188   6.921   4.209   8.601
 2331TIP3    H231189   6.978   4.314   8.507
 2332TIP3   OH231190   7.188   4.731   7.237
 2332TIP3    H131191   7.143   4.657   7.279
 2332TIP3    H231192   7.214   4.787   7.309
 2333TIP3   OH231193   6.650   4.136   7.070
 2333TIP3    H131194   6.579   4.113   7.131
 2333TIP3    H231195   6.627   4.092   6.989
 2334TIP3   OH231196   6.236   4.443   8.113
 2334TIP3    H131197   6.173   4.437   8.186
 2334TIP3    H231198   6.229   4.533   8.083
 2335TIP3   OH231199   6.247   4.397   7.641
 2335TIP3    H131200   6.154   4.387   7.626
 2335TIP3    H231201   6.285   4.406   7.554
 2336TIP3   OH231202   6.787   4.398   7.404
 2336TIP3    H131203   6.801   4.471   7.465
 2336TIP3    H231204   6.872   4.355   7.399
 2337TIP3   OH231205   6.691   4.439   8.616
 2337TIP3    H131206   6.646   4.373   8.669
 2337TIP3    H231207   6.774   4.453   8.662
 2338TIP3   OH231208   6.895   4.461   7.834
 2338TIP3    H131209   6.800   4.451   7.845
 2338TIP3    H231210   6.919   4.391   7.773
 2339TIP3   OH231211   6.064   4.417   8.323
 2339TIP3    H131212   6.122   4.444   8.394
 2339TIP3    H231213   6.027   4.334   8.353
 2340TIP3   OH231214   6.271   4.295   7.075
 2340TIP3    H131215   6.320   4.234   7.130
 2340TIP3    H231216   6.212   4.239   7.024
 2341TIP3   OH231217   5.664   4.170   7.773
 2341TIP3    H131218   5.735   4.156   7.836
 2341TIP3    H231219   5.698   4.135   7.691
 2342TIP3   OH231220   5.812   4.300   7.398
 2342TIP3    H131221   5.862   4.331   7.322
 2342TIP3    H231222   5.721   4.324   7.377
 2343TIP3   OH231223   6.853   4.512   8.288
 2343TIP3    H131224   6.889   4.454   8.221
 2343TIP3    H231225   6.767   4.475   8.307
 2344TIP3   OH231226   6.549   4.203   7.865
 2344TIP3    H131227   6.459   4.179   7.845
 2344TIP3    H231228   6.588   4.122   7.897
 2345TIP3   OH231229   5.978   4.306   7.622
 2345TIP3    H131230   5.921   4.311   7.545
 2345TIP3    H231231   6.003   4.213   7.627
 2346TIP3   OH231232   6.419   4.373   7.415
 2346TIP3    H131233   6.483   4.345   7.481
 2346TIP3    H231234   6.404   4.295   7.362
 2347TIP3   OH231235   6.883   4.076   8.091
 2347TIP3    H131236   6.837   4.086   8.174
 2347TIP3    H231237   6.820   4.032   8.034
 2348TIP3   OH231238   6.145   4.489   7.226
 2348TIP3    H131239   6.054   4.467   7.209
 2348TIP3    H231240   6.196   4.423   7.178
 2349TIP3   OH231241   7.258   5.646   8.745
 2349TIP3    H131242   7.260   5.685   8.657
 2349TIP3    H231243   7.343   5.670   8.783
 2350TIP3   OH231244   6.021   4.987   8.651
 2350TIP3    H131245   6.086   4.976   8.720
 2350TIP3    H231246   5.938   4.995   8.697
 2351TIP3   OH231247   6.631   4.458   7.912
 2351TIP3    H131248   6.602   4.368   7.897
 2351TIP3    H231249   6.592   4.482   7.996
 2352TIP3   OH231250   6.080   4.042   7.632
 2352TIP3    H131251   6.027   3.966   7.660
 2352TIP3    H231252   6.104   4.022   7.542
 2353TIP3   OH231253   6.507   4.490   8.154
 2353TIP3    H131254   6.417   4.461   8.140
 2353TIP3    H231255   6.540   4.432   8.223
 2354TIP3   OH231256   6.470   4.888   7.325
 2354TIP3    H131257   6.479   4.793   7.312
 2354TIP3    H231258   6.458   4.898   7.420
 2355TIP3   OH231259   7.301   4.874   8.202
 2355TIP3    H131260   7.360   4.909   8.135
 2355TIP3    H231261   7.219   4.859   8.155
 2356TIP3   OH231262   6.871   4.081   7.245
 2356TIP3    H131263   6.796   4.097   7.187
 2356TIP3    H231264   6.919   4.164   7.245
 2357TIP3   OH231265   6.703   4.934   8.533
 2357TIP3    H131266   6.734   4.904   8.619
 2357TIP3    H231267   6.675   5.024   8.549
 2358TIP3   OH231268   7.037   4.291   7.351
 2358TIP3    H131269   7.101   4.226   7.378
 2358TIP3    H231270   7.078   4.375   7.373
 2359TIP3   OH231271   6.055   4.836   7.889
 2359TIP3    H131272   6.097   4.818   7.805
 2359TIP3    H231273   6.104   4.783   7.952
 2360TIP3   OH231274   6.731   4.975   7.381
 2360TIP3    H131275   6.737   5.070   7.370
 2360TIP3    H231276   6.650   4.950   7.335
 2361TIP3   OH231277   5.815   4.693   8.588
 2361TIP3    H131278   5.858   4.698   8.673
 2361TIP3    H231279   5.755   4.619   8.596
 2362TIP3   OH231280   6.537   4.673   8.612
 2362TIP3    H131281   6.511   4.694   8.522
 2362TIP3    H231282   6.595   4.598   8.603
 2363TIP3   OH231283   6.899   5.215   8.547
 2363TIP3    H131284   6.808   5.212   8.517
 2363TIP3    H231285   6.893   5.235   8.640
 2364TIP3   OH231286   7.549   5.089   8.595
 2364TIP3    H131287   7.454   5.084   8.594
 2364TIP3    H231288   7.576   5.048   8.512
 2365TIP3   OH231289   7.077   4.814   8.044
 2365TIP3    H131290   6.983   4.807   8.060
 2365TIP3    H231291   7.098   4.741   7.986
 2366TIP3   OH231292   6.372   5.135   7.755
 2366TIP3    H131293   6.360   5.220   7.713
 2366TIP3    H231294   6.294   5.123   7.809
 2367TIP3   OH231295   6.433   4.910   7.602
 2367TIP3    H131296   6.423   4.994   7.647
 2367TIP3    H231297   6.357   4.859   7.630
 2368TIP3   OH231298   6.524   5.380   8.314
 2368TIP3    H131299   6.572   5.461   8.304
 2368TIP3    H231300   6.586   5.319   8.355
 2369TIP3   OH231301   6.361   5.397   7.646
 2369TIP3    H131302   6.268   5.420   7.641
 2369TIP3    H231303   6.404   5.476   7.679
 2370TIP3   OH231304   6.834   4.973   8.298
 2370TIP3    H131305   6.773   4.954   8.369
 2370TIP3    H231306   6.921   4.961   8.337
 2371TIP3   OH231307   7.118   5.361   8.465
 2371TIP3    H131308   7.036   5.315   8.482
 2371TIP3    H231309   7.096   5.425   8.398
 2372TIP3   OH231310   5.965   4.170   8.396
 2372TIP3    H131311   5.886   4.196   8.444
 2372TIP3    H231312   5.965   4.074   8.399
 2373TIP3   OH231313   7.308   4.884   7.427
 2373TIP3    H131314   7.295   4.939   7.503
 2373TIP3    H231315   7.397   4.849   7.437
 2374TIP3   OH231316   5.915   5.342   8.245
 2374TIP3    H131317   5.942   5.269   8.302
 2374TIP3    H231318   5.922   5.419   8.300
 2375TIP3   OH231319   6.407   5.311   6.839
 2375TIP3    H131320   6.419   5.331   6.746
 2375TIP3    H231321   6.335   5.248   6.841
 2376TIP3   OH231322   6.781   4.123   8.347
 2376TIP3    H131323   6.860   4.137   8.399
 2376TIP3    H231324   6.740   4.046   8.385
 2377TIP3   OH231325   6.850   4.099   7.525
 2377TIP3    H131326   6.859   4.082   7.431
 2377TIP3    H231327   6.922   4.159   7.545
 2378TIP3   OH231328   6.721   5.246   7.351
 2378TIP3    H131329   6.635   5.288   7.355
 2378TIP3    H231330   6.760   5.278   7.269
 2379TIP3   OH231331   6.596   4.274   7.597
 2379TIP3    H131332   6.682   4.272   7.557
 2379TIP3    H231333   6.612   4.258   7.690
 2380TIP3   OH231334   6.627   4.351   8.357
 2380TIP3    H131335   6.638   4.378   8.448
 2380TIP3    H231336   6.677   4.269   8.349
 2381TIP3   OH231337   6.722   3.906   7.665
 2381TIP3    H131338   6.633   3.926   7.636
 2381TIP3    H231339   6.777   3.971   7.621
 2382TIP3   OH231340   6.489   5.384   7.397
 2382TIP3    H131341   6.456   5.463   7.355
 2382TIP3    H231342   6.434   5.374   7.476
 2383TIP3   OH231343   7.233   4.127   8.591
 2383TIP3    H131344   7.142   4.127   8.562
 2383TIP3    H231345   7.283   4.153   8.514
 2384TIP3   OH231346   7.129   4.591   7.891
 2384TIP3    H131347   7.045   4.548   7.875
 2384TIP3    H231348   7.174   4.534   7.953
 2385TIP3   OH231349   5.889   4.432   7.164
 2385TIP3    H131350   5.850   4.513   7.132
 2385TIP3    H231351   5.873   4.369   7.094
 2386TIP3   OH231352   7.265   5.471   8.048
 2386TIP3    H131353   7.255   5.537   7.980
 2386TIP3    H231354   7.360   5.458   8.056
 2387TIP3   OH231355   5.953   3.854   7.963
 2387TIP3    H131356   5.944   3.827   7.872
 2387TIP3    H231357   5.926   3.777   8.013
 2388TIP3   OH231358   5.865   5.349   7.576
 2388TIP3    H131359   5.814   5.340   7.656
 2388TIP3    H231360   5.800   5.346   7.506
 2389TIP3   OH231361   5.793   5.575   8.735
 2389TIP3    H131362   5.842   5.547   8.812
 2389TIP3    H231363   5.748   5.497   8.705
 2390TIP3   OH231364   6.216   5.286   8.903
 2390TIP3    H131365   6.222   5.376   8.935
 2390TIP3    H231366   6.222   5.293   8.808
 2391TIP3   OH231367   6.645   5.497   7.033
 2391TIP3    H131368   6.585   5.445   6.981
 2391TIP3    H231369   6.713   5.436   7.060
 2392TIP3   OH231370   6.890   5.255   8.819
 2392TIP3    H131371   6.882   5.174   8.870
 2392TIP3    H231372   6.969   5.297   8.852
 2393TIP3   OH231373   5.774   4.979   8.794
 2393TIP3    H131374   5.733   4.897   8.822
 2393TIP3    H231375   5.717   5.012   8.725
 2394TIP3   OH231376   6.440   4.920   8.722
 2394TIP3    H131377   6.422   4.975   8.646
 2394TIP3    H231378   6.482   4.842   8.685
 2395TIP3   OH231379   7.042   4.986   8.488
 2395TIP3    H131380   7.131   5.016   8.470
 2395TIP3    H231381   6.993   5.065   8.509
 2396TIP3   OH231382   5.969   4.709   8.813
 2396TIP3    H131383   6.046   4.765   8.817
 2396TIP3    H231384   5.949   4.689   8.904
 2397TIP3   OH231385   6.462   4.613   7.292
 2397TIP3    H131386   6.453   4.530   7.340
 2397TIP3    H231387   6.460   4.588   7.200
 2398TIP3   OH231388   6.250   4.549   8.481
 2398TIP3    H131389   6.189   4.620   8.503
 2398TIP3    H231390   6.323   4.593   8.437
 2399TIP3   OH231391   6.456   4.505   7.042
 2399TIP3    H131392   6.390   4.437   7.024
 2399TIP3    H231393   6.492   4.527   6.956
 2400TIP3   OH231394   6.832   4.831   8.765
 2400TIP3    H131395   6.909   4.799   8.720
 2400TIP3    H231396   6.800   4.757   8.816
 2401TIP3   OH231397   6.333   4.311   8.589
 2401TIP3    H131398   6.339   4.253   8.513
 2401TIP3    H231399   6.312   4.396   8.552
 2402TIP3   OH231400   6.364   4.156   8.362
 2402TIP3    H131401   6.437   4.190   8.310
 2402TIP3    H231402   6.293   4.145   8.300
 2403TIP3   OH231403   6.449   4.684   8.346
 2403TIP3    H131404   6.484   4.627   8.278
 2403TIP3    H231405   6.424   4.764   8.300
 2404TIP3   OH231406   6.926   4.440   8.779
 2404TIP3    H131407   6.900   4.348   8.784
 2404TIP3    H231408   7.022   4.437   8.777
 2405TIP3   OH231409   7.072   4.756   8.632
 2405TIP3    H131410   7.043   4.832   8.581
 2405TIP3    H231411   7.167   4.757   8.624
 2406TIP3   OH231412   6.158   4.308   8.802
 2406TIP3    H131413   6.082   4.257   8.775
 2406TIP3    H231414   6.210   4.317   8.723
 2407TIP3   OH231415   6.382   3.898   8.470
 2407TIP3    H131416   6.371   3.989   8.443
 2407TIP3    H231417   6.315   3.851   8.420
 2408TIP3   OH231418   6.548   4.243   8.751
 2408TIP3    H131419   6.507   4.200   8.826
 2408TIP3    H231420   6.476   4.262   8.691
 2409TIP3   OH231421   6.831   4.188   8.754
 2409TIP3    H131422   6.737   4.180   8.770
 2409TIP3    H231423   6.870   4.120   8.809
 2410TIP3   OH231424   6.993   4.017   8.903
 2410TIP3    H131425   6.990   3.925   8.877
 2410TIP3    H231426   6.964   4.017   8.994
 2411TIP3   OH231427   5.945   4.127   8.758
 2411TIP3    H131428   5.940   4.043   8.714
 2411TIP3    H231429   5.958   4.106   8.851
 2412TIP3   OH231430   6.376   3.750   8.702
 2412TIP3    H131431   6.434   3.676   8.682
 2412TIP3    H231432   6.371   3.799   8.620
 2413TIP3   OH231433   6.483   3.894   8.909
 2413TIP3    H131434   6.453   3.837   8.838
 2413TIP3    H231435   6.428   3.972   8.902
 2414TIP3   OH231436   6.423   5.630   7.295
 2414TIP3    H131437   6.502   5.645   7.243
 2414TIP3    H231438   6.392   5.717   7.319
 2415TIP3   OH231439   5.599   5.530   7.637
 2415TIP3    H131440   5.614   5.483   7.554
 2415TIP3    H231441   5.646   5.478   7.702
 2416TIP3   OH231442   5.745   5.382   7.824
 2416TIP3    H131443   5.716   5.312   7.883
 2416TIP3    H231444   5.807   5.433   7.876
 2417TIP3   OH231445   7.544   5.454   8.056
 2417TIP3    H131446   7.570   5.535   8.099
 2417TIP3    H231447   7.563   5.469   7.963
 2418TIP3   OH231448   7.463   5.521   8.403
 2418TIP3    H131449   7.430   5.443   8.358
 2418TIP3    H231450   7.511   5.487   8.478
 2419TIP3   OH231451   7.356   5.056   8.889
 2419TIP3    H131452   7.271   5.066   8.930
 2419TIP3    H231453   7.411   5.123   8.929
 2420TIP3   OH231454   7.566   4.768   7.421
 2420TIP3    H131455   7.659   4.777   7.399
 2420TIP3    H231456   7.564   4.764   7.517
 2421TIP3   OH231457   7.501   4.750   7.692
 2421TIP3    H131458   7.423   4.696   7.678
 2421TIP3    H231459   7.472   4.819   7.752
 2422TIP3   OH231460   7.578   4.933   8.095
 2422TIP3    H131461   7.641   4.878   8.048
 2422TIP3    H231462   7.595   5.021   8.062
 2423TIP3   OH231463   7.341   5.277   8.326
 2423TIP3    H131464   7.260   5.308   8.367
 2423TIP3    H231465   7.314   5.254   8.237
 2424TIP3   OH231466   7.532   4.578   7.219
 2424TIP3    H131467   7.545   4.618   7.133
 2424TIP3    H231468   7.539   4.650   7.281
 2425TIP3   OH231469   7.276   4.593   7.660
 2425TIP3    H131470   7.283   4.499   7.649
 2425TIP3    H231471   7.222   4.605   7.738
 2426TIP3   OH231472   5.741   4.770   8.152
 2426TIP3    H131473   5.740   4.745   8.059
 2426TIP3    H231474   5.821   4.731   8.187
 2427TIP3   OH231475   7.340   4.796   8.587
 2427TIP3    H131476   7.391   4.744   8.524
 2427TIP3    H231477   7.331   4.882   8.545
 2428TIP3   OH231478   7.481   4.442   8.643
 2428TIP3    H131479   7.395   4.421   8.678
 2428TIP3    H231480   7.525   4.357   8.636
 2429TIP3   OH231481   7.292   4.324   7.586
 2429TIP3    H131482   7.271   4.243   7.540
 2429TIP3    H231483   7.367   4.360   7.537
 2430TIP3   OH231484   7.270   4.440   8.066
 2430TIP3    H131485   7.346   4.384   8.051
 2430TIP3    H231486   7.257   4.440   8.160
 2431TIP3   OH231487   7.281   4.468   8.347
 2431TIP3    H131488   7.196   4.486   8.388
 2431TIP3    H231489   7.330   4.549   8.358
 2432TIP3   OH231490   5.759   4.233   8.576
 2432TIP3    H131491   5.824   4.214   8.643
 2432TIP3    H231492   5.686   4.174   8.595
 2433TIP3   OH231493   7.559   3.822   8.831
 2433TIP3    H131494   7.643   3.780   8.812
 2433TIP3    H231495   7.544   3.881   8.757
 2434TIP3   OH231496   7.212   4.093   7.457
 2434TIP3    H131497   7.201   4.036   7.533
 2434TIP3    H231498   7.248   4.036   7.389
 2435TIP3   OH231499   5.849   4.109   7.974
 2435TIP3    H131500   5.884   4.019   7.974
 2435TIP3    H231501   5.927   4.165   7.968
 2436TIP3   OH231502   5.663   4.440   8.048
 2436TIP3    H131503   5.739   4.427   7.990
 2436TIP3    H231504   5.688   4.398   8.130
 2437TIP3   OH231505   7.467   3.967   8.612
 2437TIP3    H131506   7.384   4.016   8.614
 2437TIP3    H231507   7.454   3.901   8.544
 2438TIP3   OH231508   5.758   4.063   7.532
 2438TIP3    H131509   5.789   3.994   7.473
 2438TIP3    H231510   5.769   4.144   7.483
 2439TIP3   OH231511   5.681   3.949   8.366
 2439TIP3    H131512   5.607   3.902   8.404
 2439TIP3    H231513   5.650   3.980   8.281
 2440TIP3   OH231514   5.940   5.296   8.727
 2440TIP3    H131515   5.847   5.294   8.706
 2440TIP3    H231516   5.945   5.343   8.810
 2441TIP3   OH231517   6.255   5.360   8.359
 2441TIP3    H131518   6.225   5.446   8.328
 2441TIP3    H231519   6.351   5.365   8.355
 2442TIP3   OH231520   6.621   5.445   8.643
 2442TIP3    H131521   6.617   5.425   8.736
 2442TIP3    H231522   6.695   5.506   8.635
 2443TIP3   OH231523   6.829   5.625   8.625
 2443TIP3    H131524   6.900   5.623   8.561
 2443TIP3    H231525   6.872   5.645   8.708
 2444TIP3   OH231526   7.385   3.762   8.446
 2444TIP3    H131527   7.303   3.756   8.397
 2444TIP3    H231528   7.427   3.677   8.435
 2445TIP3   OH231529   5.931   5.603   8.355
 2445TIP3    H131530   5.855   5.643   8.314
 2445TIP3    H231531   5.940   5.649   8.438
 2446TIP3   OH231532   6.192   5.612   8.269
 2446TIP3    H131533   6.099   5.612   8.294
 2446TIP3    H231534   6.194   5.655   8.184
 2447TIP3   OH231535   6.651   5.616   8.252
 2447TIP3    H131536   6.595   5.655   8.184
 2447TIP3    H231537   6.659   5.685   8.318
 2448TIP3   OH231538   6.843   5.421   8.244
 2448TIP3    H131539   6.777   5.491   8.241
 2448TIP3    H231540   6.927   5.467   8.244
 2449TIP3   OH231541   7.093   5.536   8.253
 2449TIP3    H131542   7.103   5.631   8.257
 2449TIP3    H231543   7.149   5.509   8.181
 2450TIP3   OH231544   5.938   5.488   7.999
 2450TIP3    H131545   5.919   5.450   8.085
 2450TIP3    H231546   6.022   5.448   7.973
 2451TIP3   OH231547   6.170   5.359   7.928
 2451TIP3    H131548   6.162   5.264   7.938
 2451TIP3    H231549   6.254   5.381   7.969
 2452TIP3   OH231550   6.423   5.387   8.056
 2452TIP3    H131551   6.463   5.307   8.020
 2452TIP3    H231552   6.445   5.385   8.149
 2453TIP3   OH231553   6.670   3.964   7.937
 2453TIP3    H131554   6.606   3.899   7.965
 2453TIP3    H231555   6.701   3.932   7.852
 2454TIP3   OH231556   7.200   3.718   7.828
 2454TIP3    H131557   7.246   3.786   7.779
 2454TIP3    H231558   7.109   3.744   7.828
 2455TIP3   OH231559   7.322   3.926   7.677
 2455TIP3    H131560   7.367   3.850   7.640
 2455TIP3    H231561   7.388   3.995   7.676
 2456TIP3   OH231562   5.938   3.805   7.690
 2456TIP3    H131563   5.864   3.779   7.634
 2456TIP3    H231564   5.998   3.730   7.687
 2457TIP3   OH231565   5.884   3.885   7.355
 2457TIP3    H131566   5.963   3.939   7.366
 2457TIP3    H231567   5.908   3.822   7.288
 2458TIP3   OH231568   6.390   3.818   7.726
 2458TIP3    H131569   6.413   3.894   7.672
 2458TIP3    H231570   6.408   3.847   7.815
 2459TIP3   OH231571   6.937   3.800   7.823
 2459TIP3    H131572   6.871   3.814   7.755
 2459TIP3    H231573   6.908   3.723   7.871
 2460TIP3   OH231574   5.649   5.384   7.396
 2460TIP3    H131575   5.590   5.320   7.357
 2460TIP3    H231576   5.674   5.441   7.324
 2461TIP3   OH231577   6.490   4.020   7.566
 2461TIP3    H131578   6.460   4.016   7.475
 2461TIP3    H231579   6.517   4.111   7.579
 2462TIP3   OH231580   6.643   5.742   7.160
 2462TIP3    H131581   6.732   5.776   7.161
 2462TIP3    H231582   6.647   5.664   7.105
 2463TIP3   OH231583   5.936   3.857   8.685
 2463TIP3    H131584   5.881   3.782   8.709
 2463TIP3    H231585   6.018   3.843   8.731
 2464TIP3   OH231586   6.147   3.796   8.848
 2464TIP3    H131587   6.227   3.771   8.802
 2464TIP3    H231588   6.115   3.714   8.886
 2465TIP3   OH231589   7.025   3.757   8.800
 2465TIP3    H131590   7.016   3.707   8.881
 2465TIP3    H231591   7.117   3.747   8.775
 2466TIP3   OH231592   7.279   5.378   8.692
 2466TIP3    H131593   7.226   5.363   8.613
 2466TIP3    H231594   7.266   5.470   8.712
 2467TIP3   OH231595   7.507   4.432   7.458
 2467TIP3    H131596   7.598   4.449   7.481
 2467TIP3    H231597   7.487   4.495   7.389
 2468TIP3   OH231598   7.607   4.938   8.367
 2468TIP3    H131599   7.601   4.958   8.274
 2468TIP3    H231600   7.567   4.851   8.376
 2469TIP3   OH231601   7.654   5.187   8.028
 2469TIP3    H131602   7.749   5.200   8.021
 2469TIP3    H231603   7.618   5.274   8.046
 2470TIP3   OH231604   7.511   4.130   7.650
 2470TIP3    H131605   7.602   4.136   7.680
 2470TIP3    H231606   7.471   4.211   7.678
 2471TIP3   OH231607   7.638   4.640   8.544
 2471TIP3    H131608   7.593   4.572   8.594
 2471TIP3    H231609   7.585   4.652   8.466
 2472TIP3   OH231610   7.686   4.963   8.800
 2472TIP3    H131611   7.623   4.895   8.823
 2472TIP3    H231612   7.643   5.015   8.732
 2473TIP3   OH231613   7.499   5.694   7.672
 2473TIP3    H131614   7.416   5.680   7.626
 2473TIP3    H231615   7.515   5.612   7.718
 2474TIP3   OH231616   7.611   5.466   7.790
 2474TIP3    H131617   7.599   5.382   7.746
 2474TIP3    H231618   7.706   5.476   7.794
 2475TIP3   OH231619   7.538   4.602   8.107
 2475TIP3    H131620   7.469   4.621   8.044
 2475TIP3    H231621   7.616   4.645   8.070
 2476TIP3   OH231622   7.612   4.203   8.584
 2476TIP3    H131623   7.706   4.189   8.583
 2476TIP3    H231624   7.575   4.116   8.600
 2477TIP3   OH231625   7.525   4.327   8.065
 2477TIP3    H131626   7.590   4.323   7.995
 2477TIP3    H231627   7.537   4.414   8.104
 2478TIP3   OH231628   7.527   4.097   7.369
 2478TIP3    H131629   7.508   4.111   7.461
 2478TIP3    H231630   7.468   4.027   7.342
 2479TIP3   OH231631   7.557   3.879   8.213
 2479TIP3    H131632   7.516   3.858   8.297
 2479TIP3    H231633   7.503   3.948   8.176
 2480TIP3   OH231634   1.292   6.782   7.622
 2480TIP3    H131635   1.293   6.856   7.560
 2480TIP3    H231636   1.221   6.726   7.591
 2481TIP3   OH231637   1.104   6.586   8.041
 2481TIP3    H131638   1.142   6.539   8.115
 2481TIP3    H231639   1.051   6.520   7.996
 2482TIP3   OH231640   0.318   6.504   8.164
 2482TIP3    H131641   0.336   6.452   8.242
 2482TIP3    H231642   0.404   6.530   8.133
 2483TIP3   OH231643   0.457   6.987   7.993
 2483TIP3    H131644   0.427   6.903   7.956
 2483TIP3    H231645   0.551   6.977   8.003
 2484TIP3   OH231646   0.148   6.293   7.500
 2484TIP3    H131647   0.055   6.300   7.477
 2484TIP3    H231648   0.149   6.237   7.578
 2485TIP3   OH231649   0.066   6.523   7.724
 2485TIP3    H131650   0.115   6.455   7.770
 2485TIP3    H231651   0.129   6.559   7.661
 2486TIP3   OH231652   0.966   6.829   8.075
 2486TIP3    H131653   1.009   6.748   8.045
 2486TIP3    H231654   1.018   6.857   8.150
 2487TIP3   OH231655   1.951   5.983   8.178
 2487TIP3    H131656   1.906   6.057   8.218
 2487TIP3    H231657   1.985   6.017   8.096
 2488TIP3   OH231658   1.210   6.219   8.056
 2488TIP3    H131659   1.222   6.124   8.064
 2488TIP3    H231660   1.241   6.240   7.968
 2489TIP3   OH231661   1.364   6.055   7.715
 2489TIP3    H131662   1.388   6.044   7.807
 2489TIP3    H231663   1.443   6.033   7.666
 2490TIP3   OH231664   0.238   6.335   7.833
 2490TIP3    H131665   0.328   6.336   7.864
 2490TIP3    H231666   0.231   6.253   7.783
 2491TIP3   OH231667   0.701   6.391   7.785
 2491TIP3    H131668   0.785   6.399   7.830
 2491TIP3    H231669   0.721   6.340   7.706
 2492TIP3   OH231670   1.808   6.167   8.340
 2492TIP3    H131671   1.741   6.228   8.310
 2492TIP3    H231672   1.861   6.218   8.402
 2493TIP3   OH231673   0.453   6.070   8.179
 2493TIP3    H131674   0.479   6.162   8.174
 2493TIP3    H231675   0.386   6.067   8.247
 2494TIP3   OH231676   0.729   6.759   8.208
 2494TIP3    H131677   0.686   6.832   8.252
 2494TIP3    H231678   0.804   6.798   8.165
 2495TIP3   OH231679   1.482   6.052   7.961
 2495TIP3    H131680   1.521   5.968   7.983
 2495TIP3    H231681   1.549   6.116   7.983
 2496TIP3   OH231682   0.491   6.308   7.940
 2496TIP3    H131683   0.517   6.333   8.029
 2496TIP3    H231684   0.562   6.340   7.885
 2497TIP3   OH231685   0.600   6.968   8.338
 2497TIP3    H131686   0.613   7.063   8.336
 2497TIP3    H231687   0.508   6.957   8.362
 2498TIP3   OH231688   0.351   6.937   7.389
 2498TIP3    H131689   0.354   7.000   7.317
 2498TIP3    H231690   0.332   6.989   7.466
 2499TIP3   OH231691   1.492   7.237   8.138
 2499TIP3    H131692   1.421   7.291   8.171
 2499TIP3    H231693   1.553   7.299   8.097
 2500TIP3   OH231694   1.400   5.814   8.208
 2500TIP3    H131695   1.322   5.864   8.184
 2500TIP3    H231696   1.451   5.809   8.128
 2501TIP3   OH231697   0.855   5.581   7.858
 2501TIP3    H131698   0.823   5.568   7.769
 2501TIP3    H231699   0.832   5.500   7.904
 2502TIP3   OH231700   1.632   6.903   8.431
 2502TIP3    H131701   1.624   6.866   8.343
 2502TIP3    H231702   1.642   6.997   8.417
 2503TIP3   OH231703   1.094   6.646   7.464
 2503TIP3    H131704   1.023   6.694   7.422
 2503TIP3    H231705   1.170   6.661   7.407
 2504TIP3   OH231706   1.762   6.592   8.255
 2504TIP3    H131707   1.702   6.664   8.236
 2504TIP3    H231708   1.820   6.588   8.179
 2505TIP3   OH231709   1.556   6.727   7.553
 2505TIP3    H131710   1.474   6.755   7.592
 2505TIP3    H231711   1.582   6.649   7.603
 2506TIP3   OH231712   1.394   6.420   8.435
 2506TIP3    H131713   1.370   6.488   8.498
 2506TIP3    H231714   1.329   6.427   8.366
 2507TIP3   OH231715   0.527   6.600   7.700
 2507TIP3    H131716   0.453   6.568   7.649
 2507TIP3    H231717   0.580   6.522   7.716
 2508TIP3   OH231718   0.740   6.973   7.965
 2508TIP3    H131719   0.728   6.977   7.870
 2508TIP3    H231720   0.819   6.921   7.977
 2509TIP3   OH231721   0.568   6.592   8.061
 2509TIP3    H131722   0.631   6.567   7.993
 2509TIP3    H231723   0.616   6.652   8.117
 2510TIP3   OH231724   0.713   6.980   8.593
 2510TIP3    H131725   0.644   7.039   8.626
 2510TIP3    H231726   0.681   6.953   8.507
 2511TIP3   OH231727   1.360   6.620   7.379
 2511TIP3    H131728   1.380   6.528   7.397
 2511TIP3    H231729   1.430   6.668   7.424
 2512TIP3   OH231730   0.449   6.596   8.558
 2512TIP3    H131731   0.439   6.684   8.593
 2512TIP3    H231732   0.359   6.569   8.537
 2513TIP3   OH231733   0.527   7.181   8.648
 2513TIP3    H131734   0.557   7.214   8.564
 2513TIP3    H231735   0.432   7.174   8.638
 2514TIP3   OH231736   1.702   5.681   7.349
 2514TIP3    H131737   1.617   5.714   7.377
 2514TIP3    H231738   1.737   5.749   7.291
 2515TIP3   OH231739   0.302   6.527   7.553
 2515TIP3    H131740   0.339   6.571   7.476
 2515TIP3    H231741   0.261   6.448   7.518
 2516TIP3   OH231742   0.204   6.764   8.396
 2516TIP3    H131743   0.117   6.782   8.361
 2516TIP3    H231744   0.200   6.673   8.425
 2517TIP3   OH231745   0.195   7.078   8.061
 2517TIP3    H131746   0.276   7.030   8.042
 2517TIP3    H231747   0.210   7.116   8.148
 2518TIP3   OH231748   1.849   7.225   8.668
 2518TIP3    H131749   1.862   7.130   8.659
 2518TIP3    H231750   1.758   7.233   8.698
 2519TIP3   OH231751   0.951   7.108   8.550
 2519TIP3    H131752   0.944   7.193   8.595
 2519TIP3    H231753   0.866   7.067   8.563
 2520TIP3   OH231754   0.863   7.548   7.301
 2520TIP3    H131755   0.948   7.535   7.260
 2520TIP3    H231756   0.847   7.642   7.295
 2521TIP3   OH231757   0.445   7.327   7.708
 2521TIP3    H131758   0.457   7.311   7.802
 2521TIP3    H231759   0.389   7.255   7.678
 2522TIP3   OH231760   1.618   6.317   8.605
 2522TIP3    H131761   1.573   6.386   8.557
 2522TIP3    H231762   1.576   6.236   8.575
 2523TIP3   OH231763   0.352   6.980   8.462
 2523TIP3    H131764   0.372   6.950   8.550
 2523TIP3    H231765   0.295   6.913   8.425
 2524TIP3   OH231766   0.973   5.820   8.486
 2524TIP3    H131767   1.017   5.751   8.535
 2524TIP3    H231768   0.884   5.786   8.471
 2525TIP3   OH231769   1.432   6.137   8.502
 2525TIP3    H131770   1.361   6.115   8.562
 2525TIP3    H231771   1.402   6.218   8.459
 2526TIP3   OH231772   0.573   6.326   8.217
 2526TIP3    H131773   0.504   6.328   8.283
 2526TIP3    H231774   0.629   6.401   8.238
 2527TIP3   OH231775   1.167   6.398   7.573
 2527TIP3    H131776   1.134   6.483   7.543
 2527TIP3    H231777   1.237   6.376   7.512
 2528TIP3   OH231778   1.049   6.379   8.640
 2528TIP3    H131779   1.009   6.301   8.678
 2528TIP3    H231780   1.135   6.385   8.682
 2529TIP3   OH231781   1.292   6.304   7.803
 2529TIP3    H131782   1.247   6.351   7.732
 2529TIP3    H231783   1.316   6.220   7.763
 2530TIP3   OH231784   0.346   6.318   8.369
 2530TIP3    H131785   0.294   6.373   8.428
 2530TIP3    H231786   0.301   6.234   8.370
 2531TIP3   OH231787   0.199   6.095   7.710
 2531TIP3    H131788   0.153   6.051   7.781
 2531TIP3    H231789   0.190   6.036   7.635
 2532TIP3   OH231790   0.281   6.119   7.331
 2532TIP3    H131791   0.248   6.189   7.387
 2532TIP3    H231792   0.253   6.039   7.375
 2533TIP3   OH231793   1.196   6.412   8.243
 2533TIP3    H131794   1.212   6.347   8.175
 2533TIP3    H231795   1.119   6.380   8.290
 2534TIP3   OH231796   0.761   6.230   7.561
 2534TIP3    H131797   0.803   6.158   7.515
 2534TIP3    H231798   0.722   6.284   7.492
 2535TIP3   OH231799   1.168   5.945   8.132
 2535TIP3    H131800   1.115   5.980   8.203
 2535TIP3    H231801   1.108   5.893   8.080
 2536TIP3   OH231802   0.680   6.392   7.351
 2536TIP3    H131803   0.645   6.480   7.335
 2536TIP3    H231804   0.755   6.384   7.293
 2537TIP3   OH231805   1.615   7.545   8.767
 2537TIP3    H131806   1.618   7.579   8.678
 2537TIP3    H231807   1.705   7.554   8.799
 2538TIP3   OH231808   0.402   6.837   8.698
 2538TIP3    H131809   0.465   6.825   8.769
 2538TIP3    H231810   0.317   6.817   8.738
 2539TIP3   OH231811   0.933   6.370   7.953
 2539TIP3    H131812   0.974   6.322   7.881
 2539TIP3    H231813   0.921   6.304   8.021
 2540TIP3   OH231814   0.822   6.206   8.171
 2540TIP3    H131815   0.740   6.254   8.180
 2540TIP3    H231816   0.880   6.243   8.238
 2541TIP3   OH231817   0.858   6.769   7.352
 2541TIP3    H131818   0.791   6.736   7.292
 2541TIP3    H231819   0.815   6.772   7.437
 2542TIP3   OH231820   1.595   6.797   8.181
 2542TIP3    H131821   1.648   6.843   8.117
 2542TIP3    H231822   1.520   6.764   8.131
 2543TIP3   OH231823   1.026   6.823   8.555
 2543TIP3    H131824   1.058   6.780   8.635
 2543TIP3    H231825   0.997   6.909   8.584
 2544TIP3   OH231826   1.393   6.344   7.418
 2544TIP3    H131827   1.463   6.318   7.478
 2544TIP3    H231828   1.403   6.284   7.344
 2545TIP3   OH231829   0.397   6.738   7.902
 2545TIP3    H131830   0.423   6.706   7.815
 2545TIP3    H231831   0.446   6.683   7.963
 2546TIP3   OH231832   0.187   6.499   8.510
 2546TIP3    H131833   0.183   6.473   8.602
 2546TIP3    H231834   0.096   6.499   8.480
 2547TIP3   OH231835   0.847   6.561   8.705
 2547TIP3    H131836   0.776   6.522   8.653
 2547TIP3    H231837   0.926   6.516   8.675
 2548TIP3   OH231838   1.227   7.095   8.564
 2548TIP3    H131839   1.135   7.090   8.541
 2548TIP3    H231840   1.227   7.105   8.660
 2549TIP3   OH231841   1.798   6.386   7.380
 2549TIP3    H131842   1.744   6.411   7.305
 2549TIP3    H231843   1.811   6.468   7.428
 2550TIP3   OH231844   1.860   6.951   8.609
 2550TIP3    H131845   1.768   6.939   8.586
 2550TIP3    H231846   1.908   6.924   8.531
 2551TIP3   OH231847   1.622   7.110   7.302
 2551TIP3    H131848   1.533   7.093   7.335
 2551TIP3    H231849   1.608   7.156   7.219
 2552TIP3   OH231850   1.392   6.679   8.033
 2552TIP3    H131851   1.297   6.667   8.025
 2552TIP3    H231852   1.430   6.600   7.995
 2553TIP3   OH231853   0.646   7.020   7.699
 2553TIP3    H131854   0.674   7.095   7.647
 2553TIP3    H231855   0.551   7.022   7.697
 2554TIP3   OH231856   0.300   6.513   7.172
 2554TIP3    H131857   0.373   6.524   7.112
 2554TIP3    H231858   0.320   6.571   7.246
 2555TIP3   OH231859   0.717   6.775   7.586
 2555TIP3    H131860   0.696   6.860   7.625
 2555TIP3    H231861   0.649   6.716   7.621
 2556TIP3   OH231862   0.902   7.239   8.303
 2556TIP3    H131863   0.973   7.303   8.290
 2556TIP3    H231864   0.936   7.180   8.370
 2557TIP3   OH231865   0.669   7.267   7.565
 2557TIP3    H131866   0.591   7.296   7.613
 2557TIP3    H231867   0.733   7.336   7.578
 2558TIP3   OH231868   1.122   6.863   8.301
 2558TIP3    H131869   1.075   6.843   8.382
 2558TIP3    H231870   1.214   6.852   8.323
 2559TIP3   OH231871   1.394   7.297   8.487
 2559TIP3    H131872   1.336   7.223   8.506
 2559TIP3    H231873   1.361   7.332   8.404
 2560TIP3   OH231874   0.243   6.057   8.356
 2560TIP3    H131875   0.212   6.048   8.446
 2560TIP3    H231876   0.199   5.986   8.309
 2561TIP3   OH231877   0.265   7.204   8.299
 2561TIP3    H131878   0.290   7.135   8.360
 2561TIP3    H231879   0.271   7.284   8.350
 2562TIP3   OH231880   0.861   7.089   7.306
 2562TIP3    H131881   0.844   6.996   7.317
 2562TIP3    H231882   0.957   7.096   7.308
 2563TIP3   OH231883   0.431   6.676   7.353
 2563TIP3    H131884   0.407   6.767   7.370
 2563TIP3    H231885   0.516   6.681   7.308
 2564TIP3   OH231886   1.085   6.045   8.388
 2564TIP3    H131887   1.175   6.030   8.417
 2564TIP3    H231888   1.036   5.970   8.423
 2565TIP3   OH231889   1.174   5.973   7.533
 2565TIP3    H131890   1.227   5.942   7.459
 2565TIP3    H231891   1.238   6.005   7.596
 2566TIP3   OH231892   0.990   6.241   7.716
 2566TIP3    H131893   0.915   6.235   7.656
 2566TIP3    H231894   1.056   6.289   7.667
 2567TIP3   OH231895   0.985   6.300   8.379
 2567TIP3    H131896   0.998   6.334   8.468
 2567TIP3    H231897   1.017   6.210   8.384
 2568TIP3   OH231898   1.009   5.966   7.765
 2568TIP3    H131899   1.010   6.061   7.762
 2568TIP3    H231900   1.058   5.939   7.687
 2569TIP3   OH231901   1.655   5.967   8.452
 2569TIP3    H131902   1.568   6.008   8.454
 2569TIP3    H231903   1.708   6.024   8.397
 2570TIP3   OH231904   1.491   6.439   7.932
 2570TIP3    H131905   1.417   6.391   7.894
 2570TIP3    H231906   1.550   6.370   7.965
 2571TIP3   OH231907   0.247   6.256   7.100
 2571TIP3    H131908   0.257   6.347   7.128
 2571TIP3    H231909   0.267   6.205   7.178
 2572TIP3   OH231910   1.641   7.454   8.056
 2572TIP3    H131911   1.610   7.482   7.970
 2572TIP3    H231912   1.736   7.455   8.050
 2573TIP3   OH231913   0.285   7.121   7.614
 2573TIP3    H131914   0.222   7.142   7.683
 2573TIP3    H231915   0.252   7.168   7.537
 2574TIP3   OH231916   0.131   7.435   8.793
 2574TIP3    H131917   0.216   7.443   8.836
 2574TIP3    H231918   0.130   7.347   8.758
 2575TIP3   OH231919   0.610   7.243   8.908
 2575TIP3    H131920   0.674   7.174   8.924
 2575TIP3    H231921   0.581   7.228   8.818
 2576TIP3   OH231922   1.212   7.125   8.838
 2576TIP3    H131923   1.214   7.039   8.880
 2576TIP3    H231924   1.290   7.170   8.871
 2577TIP3   OH231925   0.179   6.757   8.841
 2577TIP3    H131926   0.182   6.686   8.905
 2577TIP3    H231927   0.102   6.738   8.787
 2578TIP3   OH231928   0.810   6.823   8.795
 2578TIP3    H131929   0.783   6.870   8.716
 2578TIP3    H231930   0.837   6.736   8.763
 2579TIP3   OH231931   1.111   7.013   7.045
 2579TIP3    H131932   1.123   7.033   7.138
 2579TIP3    H231933   1.018   6.992   7.038
 2580TIP3   OH231934   1.356   6.864   8.477
 2580TIP3    H131935   1.447   6.889   8.462
 2580TIP3    H231936   1.314   6.944   8.507
 2581TIP3   OH231937   0.238   6.419   8.772
 2581TIP3    H131938   0.330   6.397   8.791
 2581TIP3    H231939   0.208   6.467   8.849
 2582TIP3   OH231940   0.665   6.432   8.539
 2582TIP3    H131941   0.585   6.484   8.550
 2582TIP3    H231942   0.698   6.458   8.454
 2583TIP3   OH231943   0.887   6.369   7.168
 2583TIP3    H131944   0.876   6.453   7.123
 2583TIP3    H231945   0.977   6.372   7.202
 2584TIP3   OH231946   1.148   6.696   8.776
 2584TIP3    H131947   1.224   6.663   8.728
 2584TIP3    H231948   1.122   6.623   8.833
 2585TIP3   OH231949   0.690   6.166   8.610
 2585TIP3    H131950   0.684   6.114   8.529
 2585TIP3    H231951   0.685   6.257   8.580
 2586TIP3   OH231952   0.677   6.032   8.348
 2586TIP3    H131953   0.744   6.072   8.293
 2586TIP3    H231954   0.598   6.034   8.294
 2587TIP3   OH231955   0.769   6.502   8.296
 2587TIP3    H131956   0.863   6.487   8.303
 2587TIP3    H231957   0.762   6.595   8.272
 2588TIP3   OH231958   1.280   6.337   8.801
 2588TIP3    H131959   1.270   6.249   8.764
 2588TIP3    H231960   1.370   6.338   8.835
 2589TIP3   OH231961   1.391   6.638   8.628
 2589TIP3    H131962   1.361   6.714   8.578
 2589TIP3    H231963   1.485   6.634   8.611
 2590TIP3   OH231964   0.505   6.215   8.818
 2590TIP3    H131965   0.435   6.151   8.807
 2590TIP3    H231966   0.562   6.202   8.742
 2591TIP3   OH231967   0.702   5.765   8.427
 2591TIP3    H131968   0.694   5.858   8.407
 2591TIP3    H231969   0.650   5.721   8.360
 2592TIP3   OH231970   0.948   6.145   8.738
 2592TIP3    H131971   0.945   6.105   8.825
 2592TIP3    H231972   0.860   6.134   8.703
 2593TIP3   OH231973   1.223   6.094   8.680
 2593TIP3    H131974   1.128   6.095   8.685
 2593TIP3    H231975   1.250   6.028   8.744
 2594TIP3   OH231976   1.311   5.927   8.879
 2594TIP3    H131977   1.299   5.833   8.866
 2594TIP3    H231978   1.275   5.944   8.967
 2595TIP3   OH231979   0.328   5.996   8.824
 2595TIP3    H131980   0.367   5.913   8.798
 2595TIP3    H231981   0.313   5.988   8.918
 2596TIP3   OH231982   0.661   5.658   8.678
 2596TIP3    H131983   0.727   5.588   8.681
 2596TIP3    H231984   0.669   5.693   8.589
 2597TIP3   OH231985   0.802   5.818   8.856
 2597TIP3    H131986   0.759   5.768   8.787
 2597TIP3    H231987   0.736   5.883   8.884
 2598TIP3   OH231988   0.106   6.978   7.169
 2598TIP3    H131989   0.185   7.031   7.167
 2598TIP3    H231990   0.131   6.900   7.219
 2599TIP3   OH231991   0.058   7.482   7.589
 2599TIP3    H131992  -0.029   7.515   7.613
 2599TIP3    H231993   0.042   7.393   7.559
 2600TIP3   OH231994   0.153   7.238   7.838
 2600TIP3    H131995   0.159   7.169   7.904
 2600TIP3    H231996   0.178   7.318   7.884
 2601TIP3   OH231997   1.913   7.468   8.056
 2601TIP3    H131998   1.937   7.508   8.139
 2601TIP3    H231999   1.993   7.423   8.027
 2602TIP3   OH232000   1.797   7.383   8.444
 2602TIP3    H132001   1.755   7.312   8.396
 2602TIP3    H232002   1.834   7.340   8.522
 2603TIP3   OH232003   1.651   6.922   8.839
 2603TIP3    H132004   1.578   6.934   8.900
 2603TIP3    H232005   1.718   6.984   8.869
 2604TIP3   OH232006   1.833   6.814   7.478
 2604TIP3    H132007   1.852   6.727   7.513
 2604TIP3    H232008   1.739   6.824   7.488
 2605TIP3   OH232009   1.860   6.565   7.588
 2605TIP3    H132010   1.780   6.541   7.634
 2605TIP3    H232011   1.928   6.560   7.655
 2606TIP3   OH232012   1.893   6.862   8.131
 2606TIP3    H132013   1.915   6.777   8.094
 2606TIP3    H232014   1.951   6.924   8.087
 2607TIP3   OH232015   1.619   7.172   8.372
 2607TIP3    H132016   1.552   7.216   8.422
 2607TIP3    H232017   1.590   7.179   8.281
 2608TIP3   OH232018   1.665   6.410   7.136
 2608TIP3    H132019   1.701   6.461   7.064
 2608TIP3    H232020   1.632   6.330   7.096
 2609TIP3   OH232021   1.615   6.493   7.690
 2609TIP3    H132022   1.611   6.405   7.652
 2609TIP3    H232023   1.575   6.484   7.777
 2610TIP3   OH232024   0.164   6.702   8.051
 2610TIP3    H132025   0.231   6.733   7.990
 2610TIP3    H232026   0.210   6.639   8.107
 2611TIP3   OH232027   1.660   6.651   8.550
 2611TIP3    H132028   1.716   6.607   8.486
 2611TIP3    H232029   1.652   6.741   8.517
 2612TIP3   OH232030   1.890   6.344   8.544
 2612TIP3    H132031   1.802   6.337   8.582
 2612TIP3    H232032   1.944   6.284   8.596
 2613TIP3   OH232033   1.614   6.250   7.557
 2613TIP3    H132034   1.613   6.155   7.569
 2613TIP3    H232035   1.679   6.266   7.489
 2614TIP3   OH232036   1.667   6.247   8.034
 2614TIP3    H132037   1.762   6.250   8.024
 2614TIP3    H232038   1.651   6.278   8.123
 2615TIP3   OH232039   1.622   6.358   8.282
 2615TIP3    H132040   1.538   6.380   8.322
 2615TIP3    H232041   1.666   6.442   8.272
 2616TIP3   OH232042   0.148   6.009   8.610
 2616TIP3    H132043   0.202   6.027   8.686
 2616TIP3    H232044   0.153   5.914   8.598
 2617TIP3   OH232045   1.858   5.750   8.827
 2617TIP3    H132046   1.920   5.690   8.787
 2617TIP3    H232047   1.857   5.826   8.768
 2618TIP3   OH232048   1.591   5.968   7.593
 2618TIP3    H132049   1.646   5.907   7.642
 2618TIP3    H232050   1.555   5.916   7.521
 2619TIP3   OH232051   0.204   6.041   8.032
 2619TIP3    H132052   0.292   6.050   8.069
 2619TIP3    H232053   0.162   6.126   8.050
 2620TIP3   OH232054   0.128   6.310   8.079
 2620TIP3    H132055   0.151   6.324   7.987
 2620TIP3    H232056   0.176   6.378   8.126
 2621TIP3   OH232057   1.787   5.979   8.691
 2621TIP3    H132058   1.716   6.000   8.752
 2621TIP3    H232059   1.746   5.976   8.605
 2622TIP3   OH232060   1.682   6.062   7.312
 2622TIP3    H132061   1.695   5.985   7.257
 2622TIP3    H232062   1.596   6.095   7.287
 2623TIP3   OH232063   0.151   5.934   7.493
 2623TIP3    H132064   0.062   5.954   7.462
 2623TIP3    H232065   0.144   5.845   7.529
 2624TIP3   OH232066   1.599   7.297   7.741
 2624TIP3    H132067   1.633   7.302   7.652
 2624TIP3    H232068   1.582   7.388   7.766
 2625TIP3   OH232069   0.128   5.840   8.215
 2625TIP3    H132070   0.045   5.793   8.206
 2625TIP3    H232071   0.136   5.890   8.134
 2626TIP3   OH232072   0.134   7.170   8.728
 2626TIP3    H132073   0.045   7.155   8.697
 2626TIP3    H232074   0.142   7.113   8.805
 2627TIP3   OH232075   0.639   7.238   8.396
 2627TIP3    H132076   0.595   7.311   8.353
 2627TIP3    H232077   0.730   7.243   8.365
 2628TIP3   OH232078   0.957   7.354   8.676
 2628TIP3    H132079   0.963   7.333   8.769
 2628TIP3    H232080   1.039   7.399   8.656
 2629TIP3   OH232081   1.199   7.474   8.613
 2629TIP3    H132082   1.273   7.426   8.575
 2629TIP3    H232083   1.237   7.523   8.685
 2630TIP3   OH232084   1.717   5.700   8.486
 2630TIP3    H132085   1.701   5.793   8.470
 2630TIP3    H232086   1.646   5.655   8.440
 2631TIP3   OH232087   0.298   7.455   8.417
 2631TIP3    H132088   0.226   7.517   8.403
 2631TIP3    H232089   0.329   7.474   8.506
 2632TIP3   OH232090   0.541   7.468   8.287
 2632TIP3    H132091   0.451   7.469   8.320
 2632TIP3    H232092   0.535   7.515   8.203
 2633TIP3   OH232093   1.077   7.514   8.110
 2633TIP3    H132094   0.993   7.535   8.068
 2633TIP3    H232095   1.065   7.543   8.201
 2634TIP3   OH232096   1.305   7.408   8.246
 2634TIP3    H132097   1.229   7.438   8.197
 2634TIP3    H232098   1.363   7.484   8.250
 2635TIP3   OH232099   1.504   7.596   8.247
 2635TIP3    H132100   1.518   7.689   8.229
 2635TIP3    H232101   1.557   7.551   8.181
 2636TIP3   OH232102   0.260   7.384   8.067
 2636TIP3    H132103   0.237   7.338   8.147
 2636TIP3    H232104   0.341   7.343   8.037
 2637TIP3   OH232105   0.483   7.259   7.972
 2637TIP3    H132106   0.464   7.165   7.979
 2637TIP3    H232107   0.571   7.268   8.011
 2638TIP3   OH232108   0.734   7.226   8.080
 2638TIP3    H132109   0.743   7.137   8.045
 2638TIP3    H232110   0.796   7.230   8.152
 2639TIP3   OH232111   0.996   5.788   7.973
 2639TIP3    H132112   0.948   5.714   7.933
 2639TIP3    H232113   1.014   5.847   7.899
 2640TIP3   OH232114   1.546   5.771   7.974
 2640TIP3    H132115   1.612   5.775   7.905
 2640TIP3    H232116   1.465   5.750   7.928
 2641TIP3   OH232117   1.728   5.763   7.767
 2641TIP3    H132118   1.795   5.698   7.747
 2641TIP3    H232119   1.777   5.844   7.781
 2642TIP3   OH232120   1.322   5.701   7.842
 2642TIP3    H132121   1.319   5.700   7.746
 2642TIP3    H232122   1.261   5.633   7.869
 2643TIP3   OH232123   1.464   5.795   7.420
 2643TIP3    H132124   1.418   5.800   7.336
 2643TIP3    H232125   1.408   5.740   7.474
 2644TIP3   OH232126   0.217   7.255   7.389
 2644TIP3    H132127   0.249   7.214   7.310
 2644TIP3    H232128   0.229   7.349   7.375
 2645TIP3   OH232129   0.908   6.019   7.469
 2645TIP3    H132130   0.882   5.927   7.474
 2645TIP3    H232131   1.004   6.017   7.478
 2646TIP3   OH232132   1.700   7.312   7.480
 2646TIP3    H132133   1.677   7.230   7.435
 2646TIP3    H232134   1.706   7.376   7.409
 2647TIP3   OH232135   0.209   5.740   8.605
 2647TIP3    H132136   0.147   5.677   8.642
 2647TIP3    H232137   0.284   5.738   8.664
 2648TIP3   OH232138   0.415   5.727   8.792
 2648TIP3    H132139   0.500   5.699   8.759
 2648TIP3    H232140   0.377   5.647   8.831
 2649TIP3   OH232141   1.328   5.657   8.808
 2649TIP3    H132142   1.323   5.610   8.892
 2649TIP3    H232143   1.421   5.656   8.786
 2650TIP3   OH232144   1.576   7.282   8.709
 2650TIP3    H132145   1.516   7.287   8.635
 2650TIP3    H232146   1.590   7.373   8.735
 2651TIP3   OH232147   3.075   6.673   7.678
 2651TIP3    H132148   3.029   6.756   7.693
 2651TIP3    H232149   3.087   6.669   7.583
 2652TIP3   OH232150   2.986   6.584   8.056
 2652TIP3    H132151   3.009   6.536   8.135
 2652TIP3    H232152   2.926   6.525   8.009
 2653TIP3   OH232153   2.163   6.448   8.143
 2653TIP3    H132154   2.193   6.391   8.214
 2653TIP3    H232155   2.244   6.486   8.108
 2654TIP3   OH232156   3.343   6.871   7.865
 2654TIP3    H132157   3.313   6.796   7.916
 2654TIP3    H232158   3.383   6.929   7.930
 2655TIP3   OH232159   2.346   6.951   7.926
 2655TIP3    H132160   2.318   6.865   7.895
 2655TIP3    H232161   2.439   6.939   7.946
 2656TIP3   OH232162   2.009   6.251   7.516
 2656TIP3    H132163   1.951   6.316   7.478
 2656TIP3    H232164   1.964   6.168   7.505
 2657TIP3   OH232165   2.041   6.558   7.799
 2657TIP3    H132166   2.079   6.471   7.810
 2657TIP3    H232167   2.117   6.617   7.802
 2658TIP3   OH232168   3.006   7.335   7.873
 2658TIP3    H132169   3.081   7.284   7.843
 2658TIP3    H232170   3.007   7.326   7.968
 2659TIP3   OH232171   2.833   6.818   8.086
 2659TIP3    H132172   2.881   6.741   8.057
 2659TIP3    H232173   2.890   6.859   8.151
 2660TIP3   OH232174   3.742   5.935   8.179
 2660TIP3    H132175   3.732   6.019   8.224
 2660TIP3    H232176   3.802   5.954   8.107
 2661TIP3   OH232177   3.108   6.225   8.048
 2661TIP3    H132178   3.102   6.137   8.087
 2661TIP3    H232179   3.063   6.217   7.964
 2662TIP3   OH232180   2.504   6.037   7.775
 2662TIP3    H132181   2.515   6.117   7.725
 2662TIP3    H232182   2.440   5.986   7.725
 2663TIP3   OH232183   2.162   6.315   7.850
 2663TIP3    H132184   2.225   6.274   7.909
 2663TIP3    H232185   2.182   6.279   7.764
 2664TIP3   OH232186   2.571   6.442   7.839
 2664TIP3    H132187   2.661   6.431   7.869
 2664TIP3    H232188   2.558   6.375   7.772
 2665TIP3   OH232189   3.697   6.150   8.350
 2665TIP3    H132190   3.652   6.234   8.340
 2665TIP3    H232191   3.759   6.165   8.421
 2666TIP3   OH232192   2.338   5.994   8.222
 2666TIP3    H132193   2.304   6.050   8.152
 2666TIP3    H232194   2.279   6.007   8.295
 2667TIP3   OH232195   2.986   6.946   7.643
 2667TIP3    H132196   3.080   6.962   7.641
 2667TIP3    H232197   2.947   7.031   7.664
 2668TIP3   OH232198   2.576   6.743   8.176
 2668TIP3    H132199   2.538   6.816   8.224
 2668TIP3    H232200   2.655   6.780   8.135
 2669TIP3   OH232201   2.351   6.148   7.980
 2669TIP3    H132202   2.409   6.201   8.035
 2669TIP3    H232203   2.409   6.107   7.916
 2670TIP3   OH232204   2.478   6.950   8.339
 2670TIP3    H132205   2.497   7.044   8.336
 2670TIP3    H232206   2.385   6.945   8.361
 2671TIP3   OH232207   2.096   6.876   7.397
 2671TIP3    H132208   2.010   6.848   7.429
 2671TIP3    H232209   2.113   6.958   7.443
 2672TIP3   OH232210   3.430   7.041   8.076
 2672TIP3    H132211   3.342   7.054   8.110
 2672TIP3    H232212   3.457   7.128   8.046
 2673TIP3   OH232213   3.512   5.802   8.273
 2673TIP3    H132214   3.490   5.873   8.334
 2673TIP3    H232215   3.585   5.837   8.221
 2674TIP3   OH232216   2.689   5.663   7.995
 2674TIP3    H132217   2.662   5.571   7.996
 2674TIP3    H232218   2.610   5.710   8.023
 2675TIP3   OH232219   3.212   7.225   7.723
 2675TIP3    H132220   3.226   7.136   7.690
 2675TIP3    H232221   3.299   7.265   7.723
 2676TIP3   OH232222   3.261   6.971   7.628
 2676TIP3    H132223   3.322   6.940   7.562
 2676TIP3    H232224   3.292   6.933   7.710
 2677TIP3   OH232225   3.533   6.854   8.425
 2677TIP3    H132226   3.523   6.815   8.339
 2677TIP3    H232227   3.544   6.948   8.408
 2678TIP3   OH232228   2.982   6.475   7.390
 2678TIP3    H132229   2.912   6.540   7.394
 2678TIP3    H232230   3.063   6.525   7.396
 2679TIP3   OH232231   3.626   6.568   8.252
 2679TIP3    H132232   3.578   6.644   8.220
 2679TIP3    H232233   3.706   6.566   8.198
 2680TIP3   OH232234   3.353   6.620   7.629
 2680TIP3    H132235   3.279   6.636   7.688
 2680TIP3    H232236   3.412   6.564   7.679
 2681TIP3   OH232237   3.258   6.404   8.453
 2681TIP3    H132238   3.248   6.476   8.515
 2681TIP3    H232239   3.194   6.423   8.384
 2682TIP3   OH232240   2.450   6.614   7.645
 2682TIP3    H132241   2.422   6.567   7.566
 2682TIP3    H232242   2.500   6.549   7.694
 2683TIP3   OH232243   2.629   6.950   7.936
 2683TIP3    H132244   2.642   6.953   7.841
 2683TIP3    H232245   2.708   6.907   7.969
 2684TIP3   OH232246   2.422   6.548   8.047
 2684TIP3    H132247   2.478   6.518   7.975
 2684TIP3    H232248   2.472   6.617   8.090
 2685TIP3   OH232249   3.191   7.071   8.199
 2685TIP3    H132250   3.164   7.160   8.224
 2685TIP3    H232251   3.119   7.016   8.226
 2686TIP3   OH232252   2.652   6.951   8.559
 2686TIP3    H132253   2.602   7.016   8.608
 2686TIP3    H232254   2.599   6.932   8.482
 2687TIP3   OH232255   3.184   6.657   7.413
 2687TIP3    H132256   3.255   6.629   7.472
 2687TIP3    H232257   3.218   6.735   7.370
 2688TIP3   OH232258   2.253   6.519   8.493
 2688TIP3    H132259   2.257   6.571   8.573
 2688TIP3    H232260   2.170   6.543   8.452
 2689TIP3   OH232261   2.881   7.200   7.664
 2689TIP3    H132262   2.907   7.248   7.743
 2689TIP3    H232263   2.851   7.268   7.603
 2690TIP3   OH232264   2.483   7.149   8.645
 2690TIP3    H132265   2.492   7.191   8.559
 2690TIP3    H232266   2.389   7.139   8.657
 2691TIP3   OH232267   3.690   5.751   7.385
 2691TIP3    H132268   3.596   5.760   7.370
 2691TIP3    H232269   3.731   5.788   7.307
 2692TIP3   OH232270   2.380   6.504   7.406
 2692TIP3    H132271   2.319   6.560   7.359
 2692TIP3    H232272   2.408   6.439   7.341
 2693TIP3   OH232273   1.986   6.844   8.392
 2693TIP3    H132274   1.948   6.854   8.305
 2693TIP3    H232275   1.996   6.750   8.403
 2694TIP3   OH232276   2.093   7.025   8.026
 2694TIP3    H132277   2.178   6.994   7.995
 2694TIP3    H232278   2.113   7.085   8.097
 2695TIP3   OH232279   3.766   7.182   8.665
 2695TIP3    H132280   3.762   7.087   8.651
 2695TIP3    H232281   3.679   7.205   8.698
 2696TIP3   OH232282   2.855   7.130   8.484
 2696TIP3    H132283   2.845   7.209   8.538
 2696TIP3    H232284   2.787   7.071   8.514
 2697TIP3   OH232285   2.847   7.426   7.505
 2697TIP3    H132286   2.817   7.447   7.416
 2697TIP3    H232287   2.825   7.503   7.557
 2698TIP3   OH232288   2.291   7.309   7.611
 2698TIP3    H132289   2.314   7.277   7.699
 2698TIP3    H232290   2.231   7.242   7.578
 2699TIP3   OH232291   3.121   7.413   7.530
 2699TIP3    H132292   3.026   7.405   7.520
 2699TIP3    H232293   3.146   7.335   7.579
 2700TIP3   OH232294   3.448   6.266   8.614
 2700TIP3    H132295   3.382   6.313   8.563
 2700TIP3    H232296   3.441   6.175   8.585
 2701TIP3   OH232297   2.215   6.997   8.415
 2701TIP3    H132298   2.213   7.034   8.503
 2701TIP3    H232299   2.138   6.941   8.411
 2702TIP3   OH232300   2.449   5.786   8.074
 2702TIP3    H132301   2.382   5.775   8.006
 2702TIP3    H232302   2.421   5.863   8.122
 2703TIP3   OH232303   2.953   5.799   8.348
 2703TIP3    H132304   2.992   5.754   8.423
 2703TIP3    H232305   2.859   5.800   8.366
 2704TIP3   OH232306   3.219   6.126   8.429
 2704TIP3    H132307   3.171   6.105   8.509
 2704TIP3    H232308   3.219   6.222   8.426
 2705TIP3   OH232309   2.476   6.307   8.173
 2705TIP3    H132310   2.411   6.296   8.242
 2705TIP3    H232311   2.461   6.395   8.139
 2706TIP3   OH232312   2.509   6.271   7.629
 2706TIP3    H132313   2.414   6.265   7.625
 2706TIP3    H232314   2.539   6.249   7.541
 2707TIP3   OH232315   3.028   6.222   7.514
 2707TIP3    H132316   3.018   6.305   7.467
 2707TIP3    H232317   3.117   6.193   7.495
 2708TIP3   OH232318   2.919   6.362   8.659
 2708TIP3    H132319   2.882   6.280   8.693
 2708TIP3    H232320   3.003   6.370   8.704
 2709TIP3   OH232321   3.024   6.281   7.786
 2709TIP3    H132322   3.056   6.369   7.768
 2709TIP3    H232323   3.012   6.242   7.699
 2710TIP3   OH232324   2.266   6.285   8.347
 2710TIP3    H132325   2.261   6.353   8.414
 2710TIP3    H232326   2.242   6.204   8.392
 2711TIP3   OH232327   1.885   5.979   7.776
 2711TIP3    H132328   1.963   6.005   7.825
 2711TIP3    H232329   1.901   6.012   7.687
 2712TIP3   OH232330   1.900   6.196   7.206
 2712TIP3    H132331   1.829   6.136   7.228
 2712TIP3    H232332   1.880   6.275   7.257
 2713TIP3   OH232333   3.065   6.400   8.255
 2713TIP3    H132334   3.085   6.340   8.183
 2713TIP3    H232335   2.993   6.359   8.302
 2714TIP3   OH232336   2.743   5.928   7.666
 2714TIP3    H132337   2.671   5.965   7.717
 2714TIP3    H232338   2.805   5.896   7.731
 2715TIP3   OH232339   2.249   6.189   7.624
 2715TIP3    H132340   2.172   6.214   7.574
 2715TIP3    H232341   2.257   6.095   7.610
 2716TIP3   OH232342   2.558   6.172   7.372
 2716TIP3    H132343   2.651   6.154   7.360
 2716TIP3    H232344   2.534   6.225   7.297
 2717TIP3   OH232345   2.446   6.358   7.173
 2717TIP3    H132346   2.366   6.383   7.128
 2717TIP3    H232347   2.515   6.409   7.130
 2718TIP3   OH232348   3.482   7.533   8.700
 2718TIP3    H132349   3.496   7.551   8.607
 2718TIP3    H232350   3.565   7.556   8.741
 2719TIP3   OH232351   2.231   6.668   8.720
 2719TIP3    H132352   2.299   6.696   8.781
 2719TIP3    H232353   2.156   6.723   8.741
 2720TIP3   OH232354   2.820   6.382   7.947
 2720TIP3    H132355   2.880   6.334   7.890
 2720TIP3    H232356   2.798   6.320   8.016
 2721TIP3   OH232357   2.314   5.918   7.607
 2721TIP3    H132358   2.262   5.839   7.623
 2721TIP3    H232359   2.361   5.901   7.526
 2722TIP3   OH232360   2.740   6.233   8.166
 2722TIP3    H132361   2.652   6.271   8.173
 2722TIP3    H232362   2.783   6.256   8.248
 2723TIP3   OH232363   2.809   6.685   7.342
 2723TIP3    H132364   2.785   6.700   7.251
 2723TIP3    H232365   2.732   6.711   7.392
 2724TIP3   OH232366   3.464   6.777   8.170
 2724TIP3    H132367   3.468   6.864   8.131
 2724TIP3    H232368   3.391   6.734   8.125
 2725TIP3   OH232369   2.863   6.769   8.508
 2725TIP3    H132370   2.911   6.744   8.587
 2725TIP3    H232371   2.801   6.835   8.537
 2726TIP3   OH232372   3.285   6.120   7.480
 2726TIP3    H132373   3.296   6.028   7.501
 2726TIP3    H232374   3.310   6.127   7.387
 2727TIP3   OH232375   2.284   6.694   7.847
 2727TIP3    H132376   2.336   6.674   7.769
 2727TIP3    H232377   2.321   6.638   7.915
 2728TIP3   OH232378   2.886   6.959   7.387
 2728TIP3    H132379   2.910   6.961   7.480
 2728TIP3    H232380   2.854   6.870   7.373
 2729TIP3   OH232381   1.985   6.567   8.419
 2729TIP3    H132382   1.964   6.491   8.474
 2729TIP3    H232383   1.917   6.567   8.352
 2730TIP3   OH232384   2.703   6.530   8.697
 2730TIP3    H132385   2.636   6.495   8.639
 2730TIP3    H232386   2.784   6.485   8.670
 2731TIP3   OH232387   3.118   7.064   8.546
 2731TIP3    H132388   3.029   7.080   8.513
 2731TIP3    H232389   3.110   7.073   8.641
 2732TIP3   OH232390   3.777   6.321   7.277
 2732TIP3    H132391   3.691   6.287   7.254
 2732TIP3    H232392   3.777   6.411   7.242
 2733TIP3   OH232393   3.750   6.915   8.606
 2733TIP3    H132394   3.663   6.896   8.572
 2733TIP3    H232395   3.810   6.874   8.544
 2734TIP3   OH232396   3.653   7.145   7.315
 2734TIP3    H132397   3.571   7.100   7.295
 2734TIP3    H232398   3.694   7.160   7.230
 2735TIP3   OH232399   3.262   6.653   8.021
 2735TIP3    H132400   3.166   6.649   8.025
 2735TIP3    H232401   3.289   6.563   8.004
 2736TIP3   OH232402   2.575   7.002   7.665
 2736TIP3    H132403   2.597   7.085   7.623
 2736TIP3    H232404   2.481   7.008   7.681
 2737TIP3   OH232405   2.609   6.787   7.493
 2737TIP3    H132406   2.611   6.865   7.549
 2737TIP3    H232407   2.549   6.727   7.538
 2738TIP3   OH232408   2.766   7.224   8.238
 2738TIP3    H132409   2.824   7.295   8.212
 2738TIP3    H232410   2.811   7.182   8.311
 2739TIP3   OH232411   2.558   7.251   7.543
 2739TIP3    H132412   2.465   7.274   7.540
 2739TIP3    H232413   2.597   7.317   7.600
 2740TIP3   OH232414   3.017   6.869   8.298
 2740TIP3    H132415   2.955   6.839   8.364
 2740TIP3    H232416   3.102   6.839   8.329
 2741TIP3   OH232417   3.397   7.011   7.265
 2741TIP3    H132418   3.415   6.943   7.331
 2741TIP3    H232419   3.305   6.998   7.243
 2742TIP3   OH232420   3.306   7.245   8.474
 2742TIP3    H132421   3.247   7.176   8.503
 2742TIP3    H232422   3.262   7.285   8.399
 2743TIP3   OH232423   2.196   6.035   8.461
 2743TIP3    H132424   2.127   6.076   8.513
 2743TIP3    H232425   2.210   5.950   8.504
 2744TIP3   OH232426   3.434   6.821   7.462
 2744TIP3    H132427   3.412   6.753   7.526
 2744TIP3    H232428   3.525   6.801   7.437
 2745TIP3   OH232429   2.173   7.201   8.232
 2745TIP3    H132430   2.196   7.127   8.288
 2745TIP3    H232431   2.171   7.277   8.291
 2746TIP3   OH232432   2.219   6.658   7.239
 2746TIP3    H132433   2.173   6.726   7.289
 2746TIP3    H232434   2.242   6.701   7.157
 2747TIP3   OH232435   3.115   5.991   8.203
 2747TIP3    H132436   3.155   6.032   8.280
 2747TIP3    H232437   3.058   5.923   8.239
 2748TIP3   OH232438   2.814   6.059   7.428
 2748TIP3    H132439   2.889   6.111   7.458
 2748TIP3    H232440   2.789   6.007   7.505
 2749TIP3   OH232441   2.879   6.261   8.404
 2749TIP3    H132442   2.885   6.314   8.484
 2749TIP3    H232443   2.880   6.171   8.435
 2750TIP3   OH232444   2.456   5.907   7.369
 2750TIP3    H132445   2.504   5.990   7.374
 2750TIP3    H232446   2.516   5.848   7.325
 2751TIP3   OH232447   3.472   6.017   8.446
 2751TIP3    H132448   3.386   6.051   8.421
 2751TIP3    H232449   3.534   6.072   8.398
 2752TIP3   OH232450   3.327   6.381   7.977
 2752TIP3    H132451   3.243   6.340   7.996
 2752TIP3    H232452   3.392   6.322   8.015
 2753TIP3   OH232453   2.185   6.434   7.053
 2753TIP3    H132454   2.125   6.461   6.983
 2753TIP3    H232455   2.180   6.505   7.117
 2754TIP3   OH232456   3.501   7.312   8.043
 2754TIP3    H132457   3.476   7.361   7.964
 2754TIP3    H232458   3.590   7.341   8.062
 2755TIP3   OH232459   2.220   5.750   7.924
 2755TIP3    H132460   2.208   5.729   7.831
 2755TIP3    H232461   2.199   5.669   7.969
 2756TIP3   OH232462   2.089   7.144   7.510
 2756TIP3    H132463   2.040   7.153   7.592
 2756TIP3    H232464   2.047   7.207   7.450
 2757TIP3   OH232465   2.081   7.371   8.673
 2757TIP3    H132466   2.115   7.379   8.762
 2757TIP3    H232467   1.998   7.324   8.683
 2758TIP3   OH232468   2.448   7.304   8.918
 2758TIP3    H132469   2.503   7.296   8.996
 2758TIP3    H232470   2.485   7.241   8.856
 2759TIP3   OH232471   3.114   7.095   8.817
 2759TIP3    H132472   3.117   7.011   8.863
 2759TIP3    H232473   3.188   7.144   8.852
 2760TIP3   OH232474   3.486   7.158   7.051
 2760TIP3    H132475   3.458   7.094   7.117
 2760TIP3    H232476   3.582   7.157   7.057
 2761TIP3   OH232477   1.990   6.788   8.790
 2761TIP3    H132478   1.922   6.725   8.813
 2761TIP3    H232479   1.947   6.849   8.730
 2762TIP3   OH232480   2.666   6.789   8.783
 2762TIP3    H132481   2.663   6.841   8.702
 2762TIP3    H232482   2.689   6.701   8.753
 2763TIP3   OH232483   3.119   6.947   7.231
 2763TIP3    H132484   3.057   6.952   7.304
 2763TIP3    H232485   3.064   6.952   7.153
 2764TIP3   OH232486   3.248   6.835   8.463
 2764TIP3    H132487   3.339   6.857   8.447
 2764TIP3    H232488   3.208   6.917   8.493
 2765TIP3   OH232489   2.083   6.461   8.831
 2765TIP3    H132490   2.135   6.515   8.772
 2765TIP3    H232491   2.090   6.504   8.916
 2766TIP3   OH232492   2.520   6.424   8.509
 2766TIP3    H132493   2.433   6.463   8.501
 2766TIP3    H232494   2.575   6.477   8.451
 2767TIP3   OH232495   3.016   6.684   8.736
 2767TIP3    H132496   3.100   6.655   8.702
 2767TIP3    H232497   2.994   6.621   8.804
 2768TIP3   OH232498   2.579   6.161   8.567
 2768TIP3    H132499   2.578   6.115   8.483
 2768TIP3    H232500   2.556   6.252   8.544
 2769TIP3   OH232501   2.595   6.036   8.316
 2769TIP3    H132502   2.644   6.083   8.249
 2769TIP3    H232503   2.507   6.026   8.280
 2770TIP3   OH232504   2.691   6.586   8.374
 2770TIP3    H132505   2.758   6.642   8.413
 2770TIP3    H232506   2.656   6.637   8.301
 2771TIP3   OH232507   3.155   6.321   8.811
 2771TIP3    H132508   3.148   6.237   8.766
 2771TIP3    H232509   3.243   6.321   8.849
 2772TIP3   OH232510   3.277   6.623   8.632
 2772TIP3    H132511   3.255   6.698   8.576
 2772TIP3    H232512   3.372   6.613   8.623
 2773TIP3   OH232513   2.467   6.130   8.823
 2773TIP3    H132514   2.373   6.111   8.821
 2773TIP3    H232515   2.491   6.138   8.730
 2774TIP3   OH232516   2.676   5.780   8.382
 2774TIP3    H132517   2.647   5.869   8.362
 2774TIP3    H232518   2.605   5.724   8.353
 2775TIP3   OH232519   2.811   6.112   8.708
 2775TIP3    H132520   2.779   6.072   8.789
 2775TIP3    H232521   2.732   6.123   8.655
 2776TIP3   OH232522   3.088   6.089   8.669
 2776TIP3    H132523   2.993   6.083   8.680
 2776TIP3    H232524   3.123   6.019   8.724
 2777TIP3   OH232525   3.174   5.900   8.848
 2777TIP3    H132526   3.181   5.808   8.823
 2777TIP3    H232527   3.101   5.903   8.909
 2778TIP3   OH232528   2.191   6.074   8.864
 2778TIP3    H132529   2.199   5.996   8.920
 2778TIP3    H232530   2.159   6.142   8.922
 2779TIP3   OH232531   2.680   5.680   8.639
 2779TIP3    H132532   2.720   5.595   8.623
 2779TIP3    H232533   2.679   5.723   8.553
 2780TIP3   OH232534   2.612   5.744   8.892
 2780TIP3    H132535   2.640   5.714   8.805
 2780TIP3    H232536   2.645   5.833   8.898
 2781TIP3   OH232537   2.783   7.467   7.238
 2781TIP3    H132538   2.864   7.492   7.194
 2781TIP3    H232539   2.724   7.542   7.224
 2782TIP3   OH232540   1.919   7.392   7.633
 2782TIP3    H132541   1.841   7.370   7.583
 2782TIP3    H232542   1.928   7.321   7.696
 2783TIP3   OH232543   2.015   7.186   7.793
 2783TIP3    H132544   2.006   7.103   7.840
 2783TIP3    H232545   2.052   7.247   7.856
 2784TIP3   OH232546   3.739   7.436   8.109
 2784TIP3    H132547   3.757   7.495   8.182
 2784TIP3    H232548   3.825   7.405   8.081
 2785TIP3   OH232549   3.684   7.319   8.433
 2785TIP3    H132550   3.645   7.245   8.386
 2785TIP3    H232551   3.730   7.278   8.507
 2786TIP3   OH232552   3.570   6.930   8.867
 2786TIP3    H132553   3.492   6.938   8.922
 2786TIP3    H232554   3.628   7.000   8.898
 2787TIP3   OH232555   3.693   6.740   7.424
 2787TIP3    H132556   3.756   6.812   7.425
 2787TIP3    H232557   3.721   6.682   7.496
 2788TIP3   OH232558   3.745   6.572   7.648
 2788TIP3    H132559   3.663   6.547   7.689
 2788TIP3    H232560   3.804   6.590   7.721
 2789TIP3   OH232561   3.811   6.813   8.183
 2789TIP3    H132562   3.813   6.744   8.117
 2789TIP3    H232563   3.853   6.888   8.141
 2790TIP3   OH232564   3.520   7.114   8.341
 2790TIP3    H132565   3.445   7.163   8.375
 2790TIP3    H232566   3.500   7.102   8.248
 2791TIP3   OH232567   3.714   6.577   7.190
 2791TIP3    H132568   3.636   6.560   7.137
 2791TIP3    H232569   3.684   6.637   7.258
 2792TIP3   OH232570   3.524   6.284   7.185
 2792TIP3    H132571   3.503   6.362   7.133
 2792TIP3    H232572   3.446   6.229   7.180
 2793TIP3   OH232573   3.521   6.455   7.783
 2793TIP3    H132574   3.572   6.374   7.783
 2793TIP3    H232575   3.456   6.442   7.853
 2794TIP3   OH232576   1.953   6.604   8.058
 2794TIP3    H132577   1.959   6.592   7.963
 2794TIP3    H232578   2.027   6.556   8.093
 2795TIP3   OH232579   3.548   6.616   8.576
 2795TIP3    H132580   3.608   6.551   8.540
 2795TIP3    H232581   3.555   6.690   8.515
 2796TIP3   OH232582   3.703   6.365   8.572
 2796TIP3    H132583   3.613   6.338   8.592
 2796TIP3    H232584   3.757   6.291   8.600
 2797TIP3   OH232585   3.501   6.197   8.079
 2797TIP3    H132586   3.588   6.217   8.045
 2797TIP3    H232587   3.501   6.234   8.167
 2798TIP3   OH232588   3.496   6.340   8.315
 2798TIP3    H132589   3.414   6.370   8.355
 2798TIP3    H232590   3.543   6.421   8.294
 2799TIP3   OH232591   2.019   6.124   8.653
 2799TIP3    H132592   2.079   6.110   8.726
 2799TIP3    H232593   1.942   6.072   8.675
 2800TIP3   OH232594   3.740   5.754   8.828
 2800TIP3    H132595   3.813   5.702   8.795
 2800TIP3    H232596   3.727   5.823   8.762
 2801TIP3   OH232597   2.112   6.006   7.939
 2801TIP3    H132598   2.145   5.917   7.936
 2801TIP3    H232599   2.190   6.061   7.943
 2802TIP3   OH232600   1.948   6.279   8.038
 2802TIP3    H132601   1.993   6.267   7.954
 2802TIP3    H232602   2.006   6.336   8.089
 2803TIP3   OH232603   3.630   5.963   8.672
 2803TIP3    H132604   3.565   5.981   8.740
 2803TIP3    H232605   3.580   5.958   8.591
 2804TIP3   OH232606   3.853   5.865   7.196
 2804TIP3    H132607   3.941   5.840   7.166
 2804TIP3    H232608   3.865   5.951   7.236
 2805TIP3   OH232609   1.885   6.009   7.490
 2805TIP3    H132610   1.803   6.030   7.446
 2805TIP3    H232611   1.922   5.937   7.438
 2806TIP3   OH232612   3.454   7.348   7.705
 2806TIP3    H132613   3.502   7.362   7.624
 2806TIP3    H232614   3.460   7.431   7.752
 2807TIP3   OH232615   1.942   5.723   8.250
 2807TIP3    H132616   1.915   5.678   8.170
 2807TIP3    H232617   1.942   5.816   8.226
 2808TIP3   OH232618   2.207   7.122   8.663
 2808TIP3    H132619   2.172   7.211   8.656
 2808TIP3    H232620   2.169   7.089   8.744
 2809TIP3   OH232621   2.526   7.221   8.375
 2809TIP3    H132622   2.478   7.299   8.346
 2809TIP3    H232623   2.610   7.227   8.330
 2810TIP3   OH232624   2.855   7.351   8.648
 2810TIP3    H132625   2.854   7.312   8.735
 2810TIP3    H232626   2.944   7.384   8.638
 2811TIP3   OH232627   3.109   7.442   8.596
 2811TIP3    H132628   3.184   7.391   8.566
 2811TIP3    H232629   3.142   7.492   8.670
 2812TIP3   OH232630   3.630   5.666   8.484
 2812TIP3    H132631   3.580   5.694   8.407
 2812TIP3    H232632   3.657   5.576   8.463
 2813TIP3   OH232633   2.173   7.418   8.407
 2813TIP3    H132634   2.106   7.477   8.373
 2813TIP3    H232635   2.153   7.410   8.500
 2814TIP3   OH232636   2.421   7.460   8.286
 2814TIP3    H132637   2.335   7.458   8.328
 2814TIP3    H232638   2.409   7.514   8.209
 2815TIP3   OH232639   2.922   7.440   8.155
 2815TIP3    H132640   2.849   7.469   8.101
 2815TIP3    H232641   2.927   7.504   8.226
 2816TIP3   OH232642   3.161   7.341   8.260
 2816TIP3    H132643   3.079   7.377   8.227
 2816TIP3    H232644   3.226   7.407   8.240
 2817TIP3   OH232645   3.379   7.502   8.205
 2817TIP3    H132646   3.377   7.576   8.145
 2817TIP3    H232647   3.423   7.432   8.155
 2818TIP3   OH232648   2.155   7.339   7.991
 2818TIP3    H132649   2.158   7.298   8.077
 2818TIP3    H232650   2.232   7.304   7.945
 2819TIP3   OH232651   2.365   7.218   7.864
 2819TIP3    H132652   2.352   7.125   7.883
 2819TIP3    H232653   2.450   7.238   7.904
 2820TIP3   OH232654   2.605   7.216   8.009
 2820TIP3    H132655   2.616   7.126   7.981
 2820TIP3    H232656   2.653   7.223   8.092
 2821TIP3   OH232657   2.889   5.802   7.862
 2821TIP3    H132658   2.821   5.765   7.918
 2821TIP3    H232659   2.959   5.736   7.864
 2822TIP3   OH232660   3.475   5.602   7.848
 2822TIP3    H132661   3.558   5.577   7.808
 2822TIP3    H232662   3.409   5.555   7.798
 2823TIP3   OH232663   2.161   5.686   7.659
 2823TIP3    H132664   2.067   5.672   7.671
 2823TIP3    H232665   2.191   5.608   7.614
 2824TIP3   OH232666   2.623   5.663   7.709
 2824TIP3    H132667   2.661   5.739   7.664
 2824TIP3    H232668   2.660   5.667   7.797
 2825TIP3   OH232669   1.992   7.338   7.316
 2825TIP3    H132670   1.900   7.359   7.297
 2825TIP3    H232671   2.032   7.423   7.335
 2826TIP3   OH232672   2.243   5.964   7.208
 2826TIP3    H132673   2.186   5.890   7.230
 2826TIP3    H232674   2.319   5.953   7.264
 2827TIP3   OH232675   2.763   5.955   7.176
 2827TIP3    H132676   2.712   5.875   7.187
 2827TIP3    H232677   2.789   5.981   7.264
 2828TIP3   OH232678   3.608   7.375   7.472
 2828TIP3    H132679   3.615   7.299   7.413
 2828TIP3    H232680   3.557   7.439   7.423
 2829TIP3   OH232681   2.194   5.786   8.603
 2829TIP3    H132682   2.129   5.727   8.644
 2829TIP3    H232683   2.265   5.792   8.667
 2830TIP3   OH232684   2.344   5.729   8.829
 2830TIP3    H132685   2.438   5.725   8.847
 2830TIP3    H232686   2.314   5.639   8.841
 2831TIP3   OH232687   3.223   5.639   8.775
 2831TIP3    H132688   3.218   5.596   8.861
 2831TIP3    H232689   3.317   5.644   8.757
 2832TIP3   OH232690   3.493   7.257   8.695
 2832TIP3    H132691   3.441   7.241   8.617
 2832TIP3    H232692   3.491   7.352   8.706
 2833TIP3   OH232693   4.088   6.541   8.224
 2833TIP3    H132694   4.105   6.449   8.248
 2833TIP3    H232695   4.119   6.591   8.298
 2834TIP3   OH232696   5.196   6.887   7.913
 2834TIP3    H132697   5.202   6.802   7.957
 2834TIP3    H232698   5.229   6.949   7.979
 2835TIP3   OH232699   4.225   6.955   7.987
 2835TIP3    H132700   4.204   6.862   7.989
 2835TIP3    H232701   4.320   6.959   7.976
 2836TIP3   OH232702   3.909   6.390   7.510
 2836TIP3    H132703   3.845   6.450   7.549
 2836TIP3    H232704   3.869   6.363   7.427
 2837TIP3   OH232705   3.979   6.553   7.832
 2837TIP3    H132706   3.982   6.458   7.843
 2837TIP3    H232707   4.026   6.570   7.751
 2838TIP3   OH232708   5.005   7.317   7.938
 2838TIP3    H132709   5.061   7.274   7.873
 2838TIP3    H232710   4.972   7.245   7.992
 2839TIP3   OH232711   4.732   6.935   8.088
 2839TIP3    H132712   4.783   7.010   8.058
 2839TIP3    H232713   4.790   6.889   8.148
 2840TIP3   OH232714   5.658   5.966   8.141
 2840TIP3    H132715   5.664   6.045   8.195
 2840TIP3    H232716   5.721   5.980   8.071
 2841TIP3   OH232717   4.956   6.267   7.996
 2841TIP3    H132718   4.972   6.174   8.012
 2841TIP3    H232719   4.980   6.280   7.905
 2842TIP3   OH232720   4.306   6.114   7.740
 2842TIP3    H132721   4.236   6.170   7.706
 2842TIP3    H232722   4.294   6.031   7.695
 2843TIP3   OH232723   5.181   6.085   7.653
 2843TIP3    H132724   5.203   6.067   7.744
 2843TIP3    H232725   5.264   6.111   7.613
 2844TIP3   OH232726   3.991   6.284   7.877
 2844TIP3    H132727   4.059   6.242   7.930
 2844TIP3    H232728   4.002   6.247   7.790
 2845TIP3   OH232729   5.675   6.188   8.305
 2845TIP3    H132730   5.585   6.219   8.319
 2845TIP3    H232731   5.711   6.178   8.392
 2846TIP3   OH232732   4.234   6.000   8.231
 2846TIP3    H132733   4.216   6.057   8.156
 2846TIP3    H232734   4.166   6.021   8.295
 2847TIP3   OH232735   4.515   6.793   8.208
 2847TIP3    H132736   4.453   6.854   8.248
 2847TIP3    H232737   4.580   6.850   8.166
 2848TIP3   OH232738   5.219   6.056   7.917
 2848TIP3    H132739   5.148   6.028   7.975
 2848TIP3    H232740   5.278   6.106   7.974
 2849TIP3   OH232741   4.205   6.147   7.995
 2849TIP3    H132742   4.266   6.211   8.033
 2849TIP3    H232743   4.246   6.120   7.913
 2850TIP3   OH232744   4.345   6.966   8.342
 2850TIP3    H132745   4.355   7.061   8.347
 2850TIP3    H232746   4.255   6.950   8.369
 2851TIP3   OH232747   3.854   6.970   7.425
 2851TIP3    H132748   3.787   7.025   7.384
 2851TIP3    H232749   3.914   7.032   7.467
 2852TIP3   OH232750   5.254   7.117   8.087
 2852TIP3    H132751   5.160   7.129   8.075
 2852TIP3    H232752   5.293   7.196   8.050
 2853TIP3   OH232753   5.395   5.874   8.151
 2853TIP3    H132754   5.370   5.844   8.064
 2853TIP3    H232755   5.482   5.912   8.139
 2854TIP3   OH232756   4.573   5.706   8.027
 2854TIP3    H132757   4.563   5.611   8.017
 2854TIP3    H232758   4.486   5.736   8.054
 2855TIP3   OH232759   5.164   7.204   7.745
 2855TIP3    H132760   5.189   7.117   7.714
 2855TIP3    H232761   5.224   7.264   7.701
 2856TIP3   OH232762   5.172   6.940   7.644
 2856TIP3    H132763   5.079   6.937   7.623
 2856TIP3    H232764   5.177   6.911   7.735
 2857TIP3   OH232765   5.424   6.864   8.435
 2857TIP3    H132766   5.421   6.819   8.350
 2857TIP3    H232767   5.417   6.957   8.412
 2858TIP3   OH232768   5.555   6.524   8.242
 2858TIP3    H132769   5.498   6.601   8.234
 2858TIP3    H232770   5.612   6.528   8.165
 2859TIP3   OH232771   5.278   6.502   7.411
 2859TIP3    H132772   5.262   6.597   7.412
 2859TIP3    H232773   5.343   6.489   7.480
 2860TIP3   OH232774   5.186   6.370   8.461
 2860TIP3    H132775   5.165   6.444   8.517
 2860TIP3    H232776   5.135   6.384   8.382
 2861TIP3   OH232777   4.497   6.986   7.940
 2861TIP3    H132778   4.513   7.005   7.848
 2861TIP3    H232779   4.582   6.957   7.973
 2862TIP3   OH232780   4.418   6.595   8.040
 2862TIP3    H132781   4.333   6.634   8.021
 2862TIP3    H232782   4.460   6.659   8.098
 2863TIP3   OH232783   4.965   7.111   8.133
 2863TIP3    H132784   4.980   7.184   8.194
 2863TIP3    H232785   4.958   7.034   8.189
 2864TIP3   OH232786   4.503   6.948   8.570
 2864TIP3    H132787   4.446   7.006   8.621
 2864TIP3    H232788   4.454   6.931   8.490
 2865TIP3   OH232789   4.180   6.609   8.479
 2865TIP3    H132790   4.189   6.681   8.543
 2865TIP3    H232791   4.095   6.570   8.499
 2866TIP3   OH232792   4.326   7.138   8.658
 2866TIP3    H132793   4.332   7.185   8.575
 2866TIP3    H232794   4.232   7.134   8.677
 2867TIP3   OH232795   4.112   6.564   7.593
 2867TIP3    H132796   4.099   6.639   7.534
 2867TIP3    H232797   4.062   6.493   7.553
 2868TIP3   OH232798   3.905   6.776   8.436
 2868TIP3    H132799   3.868   6.777   8.347
 2868TIP3    H232800   3.910   6.683   8.458
 2869TIP3   OH232801   3.965   7.015   8.074
 2869TIP3    H132802   4.053   6.994   8.042
 2869TIP3    H232803   3.980   7.075   8.147
 2870TIP3   OH232804   5.675   7.176   8.640
 2870TIP3    H132805   5.663   7.084   8.615
 2870TIP3    H232806   5.635   7.183   8.727
 2871TIP3   OH232807   4.731   7.092   8.525
 2871TIP3    H132808   4.726   7.176   8.572
 2871TIP3    H232809   4.649   7.048   8.545
 2872TIP3   OH232810   4.716   7.357   7.516
 2872TIP3    H132811   4.788   7.301   7.544
 2872TIP3    H232812   4.672   7.382   7.598
 2873TIP3   OH232813   4.159   7.337   7.693
 2873TIP3    H132814   4.171   7.292   7.776
 2873TIP3    H232815   4.115   7.274   7.637
 2874TIP3   OH232816   5.000   7.365   7.344
 2874TIP3    H132817   5.062   7.305   7.303
 2874TIP3    H232818   4.976   7.323   7.427
 2875TIP3   OH232819   4.949   7.219   7.573
 2875TIP3    H132820   4.931   7.125   7.573
 2875TIP3    H232821   5.016   7.230   7.641
 2876TIP3   OH232822   5.396   6.288   8.657
 2876TIP3    H132823   5.329   6.298   8.589
 2876TIP3    H232824   5.382   6.200   8.691
 2877TIP3   OH232825   4.090   6.981   8.448
 2877TIP3    H132826   4.090   7.008   8.539
 2877TIP3    H232827   4.033   6.904   8.445
 2878TIP3   OH232828   4.320   5.778   8.097
 2878TIP3    H132829   4.248   5.762   8.036
 2878TIP3    H232830   4.295   5.858   8.144
 2879TIP3   OH232831   4.840   5.729   8.449
 2879TIP3    H132832   4.878   5.688   8.527
 2879TIP3    H232833   4.749   5.745   8.472
 2880TIP3   OH232834   5.121   6.097   8.468
 2880TIP3    H132835   5.056   6.082   8.538
 2880TIP3    H232836   5.137   6.191   8.471
 2881TIP3   OH232837   4.372   6.334   8.118
 2881TIP3    H132838   4.310   6.345   8.190
 2881TIP3    H232839   4.392   6.423   8.090
 2882TIP3   OH232840   4.871   6.354   7.490
 2882TIP3    H132841   4.839   6.415   7.424
 2882TIP3    H232842   4.955   6.323   7.456
 2883TIP3   OH232843   4.852   6.331   8.647
 2883TIP3    H132844   4.791   6.267   8.683
 2883TIP3    H232845   4.930   6.322   8.701
 2884TIP3   OH232846   5.025   6.299   7.731
 2884TIP3    H132847   4.970   6.330   7.660
 2884TIP3    H232848   5.069   6.221   7.696
 2885TIP3   OH232849   4.184   6.302   8.329
 2885TIP3    H132850   4.252   6.332   8.388
 2885TIP3    H232851   4.146   6.226   8.373
 2886TIP3   OH232852   4.288   5.989   7.043
 2886TIP3    H132853   4.361   5.934   7.072
 2886TIP3    H232854   4.316   6.022   6.958
 2887TIP3   OH232855   3.760   6.025   7.792
 2887TIP3    H132856   3.829   6.006   7.857
 2887TIP3    H232857   3.795   5.989   7.710
 2888TIP3   OH232858   3.928   6.095   7.341
 2888TIP3    H132859   4.009   6.117   7.294
 2888TIP3    H232860   3.870   6.169   7.322
 2889TIP3   OH232861   5.021   6.389   8.239
 2889TIP3    H132862   5.010   6.356   8.150
 2889TIP3    H232863   4.942   6.361   8.285
 2890TIP3   OH232864   4.582   6.124   7.718
 2890TIP3    H132865   4.488   6.117   7.735
 2890TIP3    H232866   4.619   6.155   7.801
 2891TIP3   OH232867   4.066   6.195   7.628
 2891TIP3    H132868   4.012   6.252   7.574
 2891TIP3    H232869   4.073   6.113   7.578
 2892TIP3   OH232870   4.422   6.073   7.326
 2892TIP3    H132871   4.480   6.139   7.365
 2892TIP3    H232872   4.355   6.124   7.280
 2893TIP3   OH232873   4.981   5.998   8.053
 2893TIP3    H132874   4.954   5.990   8.145
 2893TIP3    H232875   4.926   5.934   8.007
 2894TIP3   OH232876   4.135   6.171   7.171
 2894TIP3    H132877   4.189   6.104   7.128
 2894TIP3    H232878   4.095   6.220   7.099
 2895TIP3   OH232879   5.385   7.527   8.684
 2895TIP3    H132880   5.394   7.553   8.592
 2895TIP3    H232881   5.471   7.547   8.722
 2896TIP3   OH232882   4.150   6.776   8.695
 2896TIP3    H132883   4.215   6.772   8.765
 2896TIP3    H232884   4.066   6.785   8.739
 2897TIP3   OH232885   4.683   6.219   7.951
 2897TIP3    H132886   4.773   6.245   7.968
 2897TIP3    H232887   4.649   6.192   8.037
 2898TIP3   OH232888   4.198   5.924   7.576
 2898TIP3    H132889   4.145   5.856   7.618
 2898TIP3    H232890   4.234   5.882   7.498
 2899TIP3   OH232891   4.593   6.190   8.214
 2899TIP3    H132892   4.528   6.255   8.190
 2899TIP3    H232893   4.659   6.239   8.264
 2900TIP3   OH232894   5.411   6.751   8.190
 2900TIP3    H132895   5.480   6.796   8.141
 2900TIP3    H232896   5.350   6.720   8.123
 2901TIP3   OH232897   4.975   5.988   7.295
 2901TIP3    H132898   4.882   5.999   7.315
 2901TIP3    H232899   5.007   6.077   7.279
 2902TIP3   OH232900   4.791   6.793   8.525
 2902TIP3    H132901   4.833   6.753   8.601
 2902TIP3    H232902   4.767   6.881   8.554
 2903TIP3   OH232903   5.120   6.277   7.399
 2903TIP3    H132904   5.191   6.216   7.421
 2903TIP3    H232905   5.163   6.362   7.394
 2904TIP3   OH232906   4.162   6.686   8.000
 2904TIP3    H132907   4.102   6.653   7.933
 2904TIP3    H232908   4.134   6.642   8.080
 2905TIP3   OH232909   3.929   6.519   8.544
 2905TIP3    H132910   3.968   6.495   8.628
 2905TIP3    H232911   3.846   6.471   8.542
 2906TIP3   OH232912   4.652   6.524   8.668
 2906TIP3    H132913   4.624   6.546   8.579
 2906TIP3    H232914   4.728   6.467   8.656
 2907TIP3   OH232915   5.003   7.052   8.556
 2907TIP3    H132916   4.911   7.063   8.532
 2907TIP3    H232917   5.005   7.064   8.651
 2908TIP3   OH232918   5.611   6.273   7.360
 2908TIP3    H132919   5.671   6.238   7.294
 2908TIP3    H232920   5.623   6.368   7.354
 2909TIP3   OH232921   5.659   6.908   8.581
 2909TIP3    H132922   5.568   6.896   8.554
 2909TIP3    H232923   5.710   6.878   8.506
 2910TIP3   OH232924   5.638   7.215   7.281
 2910TIP3    H132925   5.671   7.132   7.316
 2910TIP3    H232926   5.617   7.196   7.190
 2911TIP3   OH232927   5.225   6.628   8.025
 2911TIP3    H132928   5.160   6.584   8.080
 2911TIP3    H232929   5.245   6.565   7.956
 2912TIP3   OH232930   4.531   7.056   7.680
 2912TIP3    H132931   4.594   7.040   7.609
 2912TIP3    H232932   4.487   7.138   7.655
 2913TIP3   OH232933   3.978   6.643   7.162
 2913TIP3    H132934   4.005   6.601   7.080
 2913TIP3    H232935   3.884   6.626   7.168
 2914TIP3   OH232936   4.626   7.219   8.292
 2914TIP3    H132937   4.684   7.291   8.268
 2914TIP3    H232938   4.677   7.167   8.354
 2915TIP3   OH232939   4.422   7.308   7.616
 2915TIP3    H132940   4.333   7.329   7.644
 2915TIP3    H232941   4.477   7.365   7.669
 2916TIP3   OH232942   4.921   6.872   8.288
 2916TIP3    H132943   4.865   6.844   8.361
 2916TIP3    H232944   5.009   6.845   8.314
 2917TIP3   OH232945   5.171   7.251   8.478
 2917TIP3    H132946   5.116   7.178   8.508
 2917TIP3    H232947   5.123   7.289   8.405
 2918TIP3   OH232948   5.617   7.517   7.136
 2918TIP3    H132949   5.692   7.554   7.184
 2918TIP3    H232950   5.540   7.549   7.184
 2919TIP3   OH232951   4.070   6.061   8.446
 2919TIP3    H132952   3.989   6.092   8.486
 2919TIP3    H232953   4.087   5.977   8.489
 2920TIP3   OH232954   5.273   6.776   7.437
 2920TIP3    H132955   5.235   6.833   7.503
 2920TIP3    H232956   5.364   6.804   7.430
 2921TIP3   OH232957   4.026   7.193   8.281
 2921TIP3    H132958   4.053   7.122   8.339
 2921TIP3    H232959   4.024   7.270   8.337
 2922TIP3   OH232960   4.593   6.963   7.044
 2922TIP3    H132961   4.686   6.984   7.047
 2922TIP3    H232962   4.561   6.985   7.132
 2923TIP3   OH232963   4.519   7.050   7.289
 2923TIP3    H132964   4.580   7.034   7.361
 2923TIP3    H232965   4.481   7.136   7.308
 2924TIP3   OH232966   4.034   6.751   7.409
 2924TIP3    H132967   3.980   6.830   7.410
 2924TIP3    H232968   4.023   6.715   7.322
 2925TIP3   OH232969   4.915   5.982   8.323
 2925TIP3    H132970   4.995   6.012   8.367
 2925TIP3    H232971   4.886   5.908   8.377
 2926TIP3   OH232972   5.072   5.871   7.526
 2926TIP3    H132973   5.027   5.912   7.453
 2926TIP3    H232974   5.106   5.944   7.579
 2927TIP3   OH232975   4.634   6.206   7.464
 2927TIP3    H132976   4.713   6.259   7.470
 2927TIP3    H232977   4.619   6.176   7.554
 2928TIP3   OH232978   4.815   6.258   8.375
 2928TIP3    H132979   4.828   6.280   8.467
 2928TIP3    H232980   4.839   6.165   8.369
 2929TIP3   OH232981   4.696   5.875   7.666
 2929TIP3    H132982   4.660   5.962   7.683
 2929TIP3    H232983   4.722   5.877   7.574
 2930TIP3   OH232984   4.446   7.308   7.341
 2930TIP3    H132985   4.397   7.386   7.315
 2930TIP3    H232986   4.442   7.309   7.437
 2931TIP3   OH232987   4.315   5.820   7.344
 2931TIP3    H132988   4.356   5.906   7.337
 2931TIP3    H232989   4.383   5.759   7.316
 2932TIP3   OH232990   5.361   5.971   8.415
 2932TIP3    H132991   5.277   6.013   8.432
 2932TIP3    H232992   5.363   5.957   8.320
 2933TIP3   OH232993   5.263   6.405   7.853
 2933TIP3    H132994   5.180   6.369   7.822
 2933TIP3    H232995   5.294   6.341   7.917
 2934TIP3   OH232996   5.373   7.367   8.022
 2934TIP3    H132997   5.356   7.427   7.949
 2934TIP3    H232998   5.466   7.379   8.041
 2935TIP3   OH232999   4.089   5.735   7.952
 2935TIP3    H133000   4.070   5.732   7.858
 2935TIP3    H233001   4.094   5.643   7.977
 2936TIP3   OH233002   3.993   7.200   7.515
 2936TIP3    H133003   3.923   7.247   7.559
 2936TIP3    H233004   3.988   7.228   7.424
 2937TIP3   OH233005   3.928   7.409   8.673
 2937TIP3    H133006   3.992   7.398   8.743
 2937TIP3    H233007   3.873   7.331   8.677
 2938TIP3   OH233008   4.328   7.242   8.937
 2938TIP3    H133009   4.399   7.262   8.998
 2938TIP3    H233010   4.370   7.196   8.865
 2939TIP3   OH233011   5.009   7.093   8.824
 2939TIP3    H133012   5.008   7.009   8.870
 2939TIP3    H233013   5.085   7.139   8.860
 2940TIP3   OH233014   3.894   6.800   8.814
 2940TIP3    H133015   3.838   6.727   8.841
 2940TIP3    H233016   3.842   6.847   8.749
 2941TIP3   OH233017   4.585   6.778   8.770
 2941TIP3    H133018   4.564   6.826   8.690
 2941TIP3    H233019   4.620   6.694   8.740
 2942TIP3   OH233020   5.142   6.832   8.462
 2942TIP3    H133021   5.235   6.854   8.458
 2942TIP3    H233022   5.101   6.910   8.498
 2943TIP3   OH233023   4.050   6.435   8.776
 2943TIP3    H133024   4.135   6.392   8.784
 2943TIP3    H233025   4.039   6.484   8.858
 2944TIP3   OH233026   4.393   6.435   8.455
 2944TIP3    H133027   4.325   6.499   8.473
 2944TIP3    H233028   4.471   6.488   8.436
 2945TIP3   OH233029   4.919   6.672   8.748
 2945TIP3    H133030   4.998   6.637   8.707
 2945TIP3    H233031   4.891   6.604   8.808
 2946TIP3   OH233032   4.436   6.192   8.594
 2946TIP3    H133033   4.450   6.125   8.527
 2946TIP3    H233034   4.437   6.275   8.545
 2947TIP3   OH233035   4.468   6.008   8.378
 2947TIP3    H133036   4.525   6.060   8.320
 2947TIP3    H233037   4.386   6.000   8.330
 2948TIP3   OH233038   4.596   6.626   8.415
 2948TIP3    H133039   4.669   6.680   8.446
 2948TIP3    H233040   4.562   6.672   8.338
 2949TIP3   OH233041   5.046   6.268   8.847
 2949TIP3    H133042   5.047   6.173   8.849
 2949TIP3    H233043   5.128   6.294   8.888
 2950TIP3   OH233044   5.163   6.607   8.620
 2950TIP3    H133045   5.138   6.680   8.563
 2950TIP3    H233046   5.259   6.606   8.617
 2951TIP3   OH233047   4.252   6.235   8.794
 2951TIP3    H133048   4.183   6.171   8.776
 2951TIP3    H233049   4.314   6.225   8.721
 2952TIP3   OH233050   4.557   5.751   8.443
 2952TIP3    H133051   4.532   5.843   8.428
 2952TIP3    H233052   4.490   5.700   8.398
 2953TIP3   OH233053   4.682   6.140   8.746
 2953TIP3    H133054   4.675   6.118   8.839
 2953TIP3    H233055   4.591   6.148   8.717
 2954TIP3   OH233056   4.916   6.031   8.638
 2954TIP3    H133057   4.829   6.056   8.670
 2954TIP3    H233058   4.962   6.002   8.717
 2955TIP3   OH233059   5.071   5.979   8.861
 2955TIP3    H133060   5.087   5.885   8.853
 2955TIP3    H233061   5.040   5.991   8.951
 2956TIP3   OH233062   4.051   6.036   8.772
 2956TIP3    H133063   4.063   5.956   8.721
 2956TIP3    H233064   4.061   6.009   8.863
 2957TIP3   OH233065   4.496   5.642   8.692
 2957TIP3    H133066   4.555   5.567   8.695
 2957TIP3    H233067   4.512   5.682   8.606
 2958TIP3   OH233068   4.581   5.820   8.885
 2958TIP3    H133069   4.555   5.757   8.817
 2958TIP3    H233070   4.512   5.886   8.883
 2959TIP3   OH233071   3.805   7.341   7.664
 2959TIP3    H133072   3.722   7.335   7.616
 2959TIP3    H233073   3.794   7.281   7.738
 2960TIP3   OH233074   3.832   7.190   7.891
 2960TIP3    H133075   3.849   7.105   7.931
 2960TIP3    H233076   3.881   7.253   7.944
 2961TIP3   OH233077   5.634   7.430   8.085
 2961TIP3    H133078   5.655   7.487   8.159
 2961TIP3    H233079   5.720   7.408   8.048
 2962TIP3   OH233080   5.541   7.316   8.434
 2962TIP3    H133081   5.502   7.243   8.386
 2962TIP3    H233082   5.590   7.274   8.506
 2963TIP3   OH233083   5.474   6.941   8.848
 2963TIP3    H133084   5.396   6.949   8.904
 2963TIP3    H233085   5.525   7.020   8.868
 2964TIP3   OH233086   5.543   6.830   7.432
 2964TIP3    H133087   5.618   6.888   7.417
 2964TIP3    H233088   5.575   6.764   7.493
 2965TIP3   OH233089   5.631   6.616   7.590
 2965TIP3    H133090   5.563   6.553   7.615
 2965TIP3    H233091   5.696   6.609   7.661
 2966TIP3   OH233092   5.662   6.841   8.112
 2966TIP3    H133093   5.695   6.758   8.078
 2966TIP3    H233094   5.719   6.908   8.073
 2967TIP3   OH233095   5.371   7.114   8.339
 2967TIP3    H133096   5.305   7.168   8.383
 2967TIP3    H233097   5.342   7.109   8.248
 2968TIP3   OH233098   5.683   6.535   7.332
 2968TIP3    H133099   5.777   6.524   7.321
 2968TIP3    H233100   5.673   6.576   7.418
 2969TIP3   OH233101   5.441   6.408   7.636
 2969TIP3    H133102   5.413   6.324   7.598
 2969TIP3    H233103   5.385   6.419   7.713
 2970TIP3   OH233104   3.852   6.553   8.079
 2970TIP3    H133105   3.888   6.561   7.990
 2970TIP3    H233106   3.928   6.545   8.135
 2971TIP3   OH233107   5.432   6.632   8.597
 2971TIP3    H133108   5.504   6.571   8.582
 2971TIP3    H233109   5.448   6.703   8.536
 2972TIP3   OH233110   5.627   6.438   8.624
 2972TIP3    H133111   5.558   6.373   8.641
 2972TIP3    H233112   5.696   6.417   8.686
 2973TIP3   OH233113   5.387   6.166   7.483
 2973TIP3    H133114   5.397   6.072   7.469
 2973TIP3    H233115   5.458   6.205   7.431
 2974TIP3   OH233116   5.384   6.238   8.044
 2974TIP3    H133117   5.477   6.245   8.021
 2974TIP3    H233118   5.382   6.249   8.139
 2975TIP3   OH233119   5.418   6.300   8.314
 2975TIP3    H133120   5.343   6.324   8.367
 2975TIP3    H233121   5.462   6.383   8.295
 2976TIP3   OH233122   3.844   6.126   8.608
 2976TIP3    H133123   3.911   6.112   8.675
 2976TIP3    H233124   3.773   6.066   8.632
 2977TIP3   OH233125   5.633   5.790   8.805
 2977TIP3    H133126   5.695   5.719   8.789
 2977TIP3    H233127   5.636   5.842   8.724
 2978TIP3   OH233128   5.408   5.891   7.460
 2978TIP3    H133129   5.437   5.855   7.544
 2978TIP3    H233130   5.338   5.832   7.432
 2979TIP3   OH233131   3.956   5.974   7.996
 2979TIP3    H133132   3.995   5.887   7.984
 2979TIP3    H233133   4.032   6.033   7.997
 2980TIP3   OH233134   3.738   6.306   8.002
 2980TIP3    H133135   3.812   6.273   7.951
 2980TIP3    H233136   3.768   6.389   8.037
 2981TIP3   OH233137   5.584   5.908   8.559
 2981TIP3    H133138   5.508   5.953   8.522
 2981TIP3    H233139   5.575   5.817   8.529
 2982TIP3   OH233140   5.624   5.958   7.038
 2982TIP3    H133141   5.562   5.976   6.967
 2982TIP3    H233142   5.707   5.992   7.007
 2983TIP3   OH233143   3.849   5.911   7.546
 2983TIP3    H133144   3.786   5.856   7.499
 2983TIP3    H233145   3.878   5.975   7.481
 2984TIP3   OH233146   5.307   7.406   7.621
 2984TIP3    H133147   5.392   7.399   7.579
 2984TIP3    H233148   5.321   7.462   7.697
 2985TIP3   OH233149   3.857   5.727   8.320
 2985TIP3    H133150   3.792   5.721   8.391
 2985TIP3    H233151   3.827   5.801   8.267
 2986TIP3   OH233152   4.046   7.108   8.694
 2986TIP3    H133153   3.959   7.141   8.673
 2986TIP3    H233154   4.043   7.089   8.788
 2987TIP3   OH233155   4.372   7.236   8.399
 2987TIP3    H133156   4.329   7.314   8.362
 2987TIP3    H233157   4.462   7.242   8.368
 2988TIP3   OH233158   4.739   7.338   8.656
 2988TIP3    H133159   4.743   7.304   8.746
 2988TIP3    H233160   4.826   7.376   8.642
 2989TIP3   OH233161   4.990   7.445   8.613
 2989TIP3    H133162   5.062   7.394   8.576
 2989TIP3    H233163   5.031   7.497   8.682
 2990TIP3   OH233164   5.512   5.661   8.467
 2990TIP3    H133165   5.434   5.661   8.412
 2990TIP3    H233166   5.547   5.572   8.458
 2991TIP3   OH233167   4.016   7.440   8.409
 2991TIP3    H133168   3.945   7.493   8.373
 2991TIP3    H233169   3.997   7.434   8.502
 2992TIP3   OH233170   4.270   7.474   8.296
 2992TIP3    H133171   4.181   7.470   8.331
 2992TIP3    H233172   4.263   7.530   8.219
 2993TIP3   OH233173   4.768   7.441   8.209
 2993TIP3    H133174   4.708   7.478   8.145
 2993TIP3    H233175   4.771   7.505   8.280
 2994TIP3   OH233176   5.021   7.344   8.271
 2994TIP3    H133177   4.937   7.382   8.244
 2994TIP3    H233178   5.086   7.408   8.244
 2995TIP3   OH233179   5.233   7.513   8.207
 2995TIP3    H133180   5.211   7.591   8.155
 2995TIP3    H233181   5.280   7.457   8.146
 2996TIP3   OH233182   4.000   7.348   8.054
 2996TIP3    H133183   4.003   7.303   8.138
 2996TIP3    H233184   4.077   7.315   8.007
 2997TIP3   OH233185   4.219   7.228   7.942
 2997TIP3    H133186   4.211   7.133   7.948
 2997TIP3    H233187   4.302   7.248   7.983
 2998TIP3   OH233188   4.473   7.235   8.062
 2998TIP3    H133189   4.483   7.151   8.016
 2998TIP3    H233190   4.520   7.222   8.145
 2999TIP3   OH233191   4.808   5.818   7.928
 2999TIP3    H133192   4.725   5.787   7.964
 2999TIP3    H233193   4.790   5.831   7.835
 3000TIP3   OH233194   5.336   5.734   7.914
 3000TIP3    H133195   5.400   5.757   7.846
 3000TIP3    H233196   5.252   5.736   7.869
 3001TIP3   OH233197   5.504   5.784   7.697
 3001TIP3    H133198   5.552   5.704   7.677
 3001TIP3    H233199   5.572   5.848   7.717
 3002TIP3   OH233200   4.022   5.740   7.685
 3002TIP3    H133201   3.952   5.786   7.639
 3002TIP3    H233202   4.024   5.653   7.644
 3003TIP3   OH233203   4.472   5.730   7.764
 3003TIP3    H133204   4.541   5.767   7.709
 3003TIP3    H233205   4.508   5.733   7.852
 3004TIP3   OH233206   5.127   5.690   7.736
 3004TIP3    H133207   5.095   5.749   7.668
 3004TIP3    H233208   5.191   5.634   7.692
 3005TIP3   OH233209   5.188   5.709   7.341
 3005TIP3    H133210   5.144   5.764   7.405
 3005TIP3    H233211   5.167   5.619   7.367
 3006TIP3   OH233212   3.942   7.291   7.261
 3006TIP3    H133213   3.886   7.261   7.190
 3006TIP3    H233214   3.912   7.380   7.279
 3007TIP3   OH233215   4.117   5.802   7.151
 3007TIP3    H133216   4.160   5.864   7.092
 3007TIP3    H233217   4.175   5.798   7.227
 3008TIP3   OH233218   4.707   5.961   7.357
 3008TIP3    H133219   4.633   5.920   7.312
 3008TIP3    H233220   4.673   6.046   7.386
 3009TIP3   OH233221   5.533   7.401   7.463
 3009TIP3    H133222   5.561   7.334   7.401
 3009TIP3    H233223   5.507   7.475   7.408
 3010TIP3   OH233224   4.077   5.789   8.637
 3010TIP3    H133225   4.012   5.725   8.665
 3010TIP3    H233226   4.154   5.770   8.690
 3011TIP3   OH233227   4.254   5.698   8.824
 3011TIP3    H133228   4.339   5.671   8.788
 3011TIP3    H233229   4.220   5.619   8.867
 3012TIP3   OH233230   5.136   5.716   8.826
 3012TIP3    H133231   5.130   5.661   8.904
 3012TIP3    H233232   5.225   5.703   8.794
 3013TIP3   OH233233   5.355   7.253   8.692
 3013TIP3    H133234   5.303   7.243   8.612
 3013TIP3    H233235   5.378   7.346   8.695
 3014TIP3   OH233236   6.862   6.564   7.744
 3014TIP3    H133237   6.866   6.659   7.733
 3014TIP3    H233238   6.816   6.533   7.666
 3015TIP3   OH233239   6.812   6.619   8.021
 3015TIP3    H133240   6.823   6.546   8.083
 3015TIP3    H233241   6.810   6.577   7.935
 3016TIP3   OH233242   5.963   6.454   8.144
 3016TIP3    H133243   5.983   6.392   8.214
 3016TIP3    H233244   6.048   6.493   8.122
 3017TIP3   OH233245   7.206   6.885   7.884
 3017TIP3    H133246   7.163   6.804   7.912
 3017TIP3    H233247   7.200   6.942   7.961
 3018TIP3   OH233248   6.119   6.958   7.948
 3018TIP3    H133249   6.095   6.871   7.915
 3018TIP3    H233250   6.213   6.951   7.967
 3019TIP3   OH233251   5.686   6.228   7.621
 3019TIP3    H133252   5.633   6.295   7.665
 3019TIP3    H233253   5.662   6.236   7.529
 3020TIP3   OH233254   5.822   6.573   7.788
 3020TIP3    H133255   5.850   6.484   7.808
 3020TIP3    H233256   5.900   6.627   7.803
 3021TIP3   OH233257   6.821   7.359   7.902
 3021TIP3    H133258   6.896   7.308   7.872
 3021TIP3    H233259   6.745   7.317   7.860
 3022TIP3   OH233260   6.620   6.826   8.071
 3022TIP3    H133261   6.677   6.757   8.036
 3022TIP3    H233262   6.669   6.863   8.144
 3023TIP3   OH233263   7.383   5.887   8.131
 3023TIP3    H133264   7.395   5.963   8.189
 3023TIP3    H233265   7.393   5.923   8.043
 3024TIP3   OH233266   6.944   6.184   8.060
 3024TIP3    H133267   6.951   6.090   8.076
 3024TIP3    H233268   6.901   6.191   7.975
 3025TIP3   OH233269   6.229   6.067   7.749
 3025TIP3    H133270   6.225   6.154   7.712
 3025TIP3    H233271   6.178   6.012   7.689
 3026TIP3   OH233272   6.988   6.131   7.630
 3026TIP3    H133273   7.025   6.090   7.708
 3026TIP3    H233274   7.064   6.153   7.577
 3027TIP3   OH233275   5.894   6.319   7.869
 3027TIP3    H133276   5.960   6.287   7.930
 3027TIP3    H233277   5.912   6.273   7.787
 3028TIP3   OH233278   6.346   6.405   7.865
 3028TIP3    H133279   6.431   6.360   7.864
 3028TIP3    H233280   6.302   6.374   7.786
 3029TIP3   OH233281   7.397   6.082   8.333
 3029TIP3    H133282   7.362   6.169   8.313
 3029TIP3    H233283   7.474   6.098   8.388
 3030TIP3   OH233284   6.130   5.978   8.196
 3030TIP3    H133285   6.094   6.044   8.136
 3030TIP3    H233286   6.072   5.981   8.272
 3031TIP3   OH233287   6.858   6.814   7.629
 3031TIP3    H133288   6.841   6.827   7.535
 3031TIP3    H233289   6.841   6.899   7.668
 3032TIP3   OH233290   6.367   6.753   8.165
 3032TIP3    H133291   6.328   6.830   8.206
 3032TIP3    H233292   6.447   6.785   8.125
 3033TIP3   OH233293   7.150   6.049   7.837
 3033TIP3    H133294   7.222   5.993   7.810
 3033TIP3    H233295   7.182   6.093   7.916
 3034TIP3   OH233296   6.098   6.154   7.979
 3034TIP3    H133297   6.161   6.206   8.029
 3034TIP3    H233298   6.150   6.119   7.906
 3035TIP3   OH233299   6.259   6.964   8.315
 3035TIP3    H133300   6.273   7.058   8.312
 3035TIP3    H233301   6.166   6.954   8.337
 3036TIP3   OH233302   5.772   6.990   7.380
 3036TIP3    H133303   5.840   6.937   7.339
 3036TIP3    H233304   5.817   7.038   7.449
 3037TIP3   OH233305   7.174   7.059   8.098
 3037TIP3    H133306   7.085   7.074   8.130
 3037TIP3    H233307   7.201   7.144   8.063
 3038TIP3   OH233308   7.144   5.806   8.249
 3038TIP3    H133309   7.070   5.846   8.205
 3038TIP3    H233310   7.221   5.834   8.199
 3039TIP3   OH233311   6.474   5.660   8.028
 3039TIP3    H133312   6.452   5.567   8.038
 3039TIP3    H233313   6.391   5.706   8.038
 3040TIP3   OH233314   7.031   7.233   7.761
 3040TIP3    H133315   7.085   7.160   7.732
 3040TIP3    H233316   7.080   7.311   7.733
 3041TIP3   OH233317   7.169   7.017   7.649
 3041TIP3    H133318   7.166   6.946   7.585
 3041TIP3    H233319   7.189   6.973   7.732
 3042TIP3   OH233320   7.280   6.827   8.421
 3042TIP3    H133321   7.276   6.781   8.337
 3042TIP3    H233322   7.290   6.919   8.398
 3043TIP3   OH233323   6.762   6.499   7.499
 3043TIP3    H133324   6.686   6.552   7.478
 3043TIP3    H233325   6.834   6.540   7.450
 3044TIP3   OH233326   7.464   6.514   8.157
 3044TIP3    H133327   7.395   6.580   8.167
 3044TIP3    H233328   7.514   6.543   8.081
 3045TIP3   OH233329   7.117   6.582   7.578
 3045TIP3    H133330   7.051   6.589   7.647
 3045TIP3    H233331   7.181   6.520   7.611
 3046TIP3   OH233332   7.027   6.404   8.440
 3046TIP3    H133333   7.004   6.477   8.497
 3046TIP3    H233334   6.976   6.419   8.361
 3047TIP3   OH233335   6.186   6.600   7.632
 3047TIP3    H133336   6.179   6.600   7.537
 3047TIP3    H233337   6.199   6.508   7.655
 3048TIP3   OH233338   6.407   6.976   7.951
 3048TIP3    H133339   6.405   6.979   7.855
 3048TIP3    H233340   6.487   6.929   7.973
 3049TIP3   OH233341   6.214   6.550   8.056
 3049TIP3    H133342   6.270   6.510   7.988
 3049TIP3    H233343   6.268   6.619   8.093
 3050TIP3   OH233344   6.939   7.102   8.233
 3050TIP3    H133345   6.906   7.180   8.278
 3050TIP3    H233346   6.872   7.036   8.247
 3051TIP3   OH233347   6.409   6.950   8.551
 3051TIP3    H133348   6.350   7.013   8.593
 3051TIP3    H233349   6.368   6.931   8.467
 3052TIP3   OH233350   6.978   6.561   7.338
 3052TIP3    H133351   7.040   6.580   7.409
 3052TIP3    H233352   7.016   6.602   7.261
 3053TIP3   OH233353   6.029   6.504   8.506
 3053TIP3    H133354   6.031   6.560   8.583
 3053TIP3    H233355   5.945   6.523   8.465
 3054TIP3   OH233356   6.810   7.076   7.704
 3054TIP3    H133357   6.889   7.123   7.729
 3054TIP3    H233358   6.763   7.137   7.648
 3055TIP3   OH233359   6.218   7.139   8.608
 3055TIP3    H133360   6.233   7.185   8.525
 3055TIP3    H233361   6.123   7.131   8.615
 3056TIP3   OH233362   6.195   6.522   7.367
 3056TIP3    H133363   6.106   6.503   7.336
 3056TIP3    H233364   6.236   6.436   7.374
 3057TIP3   OH233365   5.787   6.812   8.361
 3057TIP3    H133366   5.740   6.823   8.278
 3057TIP3    H233367   5.791   6.717   8.373
 3058TIP3   OH233368   5.856   7.023   8.030
 3058TIP3    H133369   5.945   6.996   8.005
 3058TIP3    H233370   5.870   7.083   8.104
 3059TIP3   OH233371   7.548   7.130   8.660
 3059TIP3    H133372   7.540   7.038   8.635
 3059TIP3    H233373   7.462   7.154   8.694
 3060TIP3   OH233374   6.623   7.126   8.490
 3060TIP3    H133375   6.608   7.208   8.538
 3060TIP3    H233376   6.550   7.070   8.515
 3061TIP3   OH233377   6.694   7.282   7.560
 3061TIP3    H133378   6.625   7.251   7.501
 3061TIP3    H233379   6.653   7.352   7.611
 3062TIP3   OH233380   6.110   7.316   7.651
 3062TIP3    H133381   6.114   7.293   7.744
 3062TIP3    H233382   6.047   7.254   7.614
 3063TIP3   OH233383   6.899   7.330   7.144
 3063TIP3    H133384   6.834   7.261   7.130
 3063TIP3    H233385   6.907   7.337   7.239
 3064TIP3   OH233386   6.927   7.360   7.421
 3064TIP3    H133387   6.852   7.333   7.473
 3064TIP3    H233388   6.995   7.296   7.442
 3065TIP3   OH233389   7.186   6.302   8.661
 3065TIP3    H133390   7.135   6.342   8.590
 3065TIP3    H233391   7.195   6.211   8.635
 3066TIP3   OH233392   5.995   6.987   8.400
 3066TIP3    H133393   5.983   7.013   8.491
 3066TIP3    H233394   5.928   6.920   8.384
 3067TIP3   OH233395   6.220   5.768   8.045
 3067TIP3    H133396   6.149   5.760   7.980
 3067TIP3    H233397   6.198   5.846   8.095
 3068TIP3   OH233398   6.672   5.796   8.465
 3068TIP3    H133399   6.710   5.751   8.540
 3068TIP3    H233400   6.578   5.794   8.480
 3069TIP3   OH233401   6.950   6.132   8.473
 3069TIP3    H133402   6.911   6.122   8.560
 3069TIP3    H233403   6.965   6.226   8.464
 3070TIP3   OH233404   7.061   6.622   7.082
 3070TIP3    H133405   7.015   6.558   7.028
 3070TIP3    H233406   7.125   6.661   7.023
 3071TIP3   OH233407   6.250   6.295   8.165
 3071TIP3    H133408   6.189   6.286   8.239
 3071TIP3    H233409   6.243   6.387   8.140
 3072TIP3   OH233410   6.205   6.320   7.639
 3072TIP3    H133411   6.114   6.293   7.627
 3072TIP3    H233412   6.246   6.306   7.554
 3073TIP3   OH233413   6.782   6.231   7.449
 3073TIP3    H133414   6.772   6.319   7.485
 3073TIP3    H233415   6.849   6.190   7.504
 3074TIP3   OH233416   6.688   6.352   8.611
 3074TIP3    H133417   6.644   6.277   8.650
 3074TIP3    H233418   6.767   6.364   8.665
 3075TIP3   OH233419   6.854   6.292   7.819
 3075TIP3    H133420   6.863   6.384   7.792
 3075TIP3    H233421   6.893   6.242   7.748
 3076TIP3   OH233422   6.047   6.273   8.347
 3076TIP3    H133423   6.038   6.336   8.419
 3076TIP3    H233424   6.023   6.188   8.386
 3077TIP3   OH233425   5.687   5.978   7.747
 3077TIP3    H133426   5.745   5.989   7.823
 3077TIP3    H233427   5.685   6.064   7.706
 3078TIP3   OH233428   5.791   6.241   7.159
 3078TIP3    H133429   5.795   6.306   7.089
 3078TIP3    H233430   5.815   6.158   7.117
 3079TIP3   OH233431   6.871   6.406   8.204
 3079TIP3    H133432   6.904   6.329   8.157
 3079TIP3    H233433   6.791   6.375   8.247
 3080TIP3   OH233434   6.502   6.046   7.705
 3080TIP3    H133435   6.409   6.036   7.726
 3080TIP3    H233436   6.532   6.117   7.761
 3081TIP3   OH233437   5.960   6.194   7.630
 3081TIP3    H133438   5.867   6.201   7.610
 3081TIP3    H233439   5.987   6.109   7.596
 3082TIP3   OH233440   6.320   6.274   7.396
 3082TIP3    H133441   6.395   6.215   7.406
 3082TIP3    H233442   6.298   6.270   7.303
 3083TIP3   OH233443   6.912   5.905   8.116
 3083TIP3    H133444   6.847   5.937   8.178
 3083TIP3    H233445   6.862   5.848   8.056
 3084TIP3   OH233446   6.259   6.294   7.134
 3084TIP3    H133447   6.202   6.223   7.104
 3084TIP3    H233448   6.271   6.349   7.057
 3085TIP3   OH233449   7.317   7.497   8.717
 3085TIP3    H133450   7.330   7.523   8.626
 3085TIP3    H233451   7.399   7.519   8.761
 3086TIP3   OH233452   6.006   6.652   8.737
 3086TIP3    H133453   6.073   6.679   8.799
 3086TIP3    H233454   5.929   6.704   8.761
 3087TIP3   OH233455   6.579   6.249   7.872
 3087TIP3    H133456   6.673   6.265   7.866
 3087TIP3    H233457   6.565   6.227   7.964
 3088TIP3   OH233458   6.072   5.953   7.550
 3088TIP3    H133459   6.039   5.865   7.569
 3088TIP3    H233460   6.097   5.950   7.458
 3089TIP3   OH233461   6.506   6.205   8.133
 3089TIP3    H133462   6.419   6.244   8.144
 3089TIP3    H233463   6.559   6.243   8.203
 3090TIP3   OH233464   6.564   6.661   7.407
 3090TIP3    H133465   6.509   6.648   7.329
 3090TIP3    H233466   6.506   6.706   7.470
 3091TIP3   OH233467   7.278   6.713   8.176
 3091TIP3    H133468   7.338   6.773   8.133
 3091TIP3    H233469   7.207   6.699   8.113
 3092TIP3   OH233470   6.634   6.782   8.518
 3092TIP3    H133471   6.681   6.758   8.598
 3092TIP3    H233472   6.567   6.843   8.547
 3093TIP3   OH233473   6.068   6.697   7.861
 3093TIP3    H133474   6.112   6.671   7.780
 3093TIP3    H233475   6.109   6.643   7.928
 3094TIP3   OH233476   6.771   6.838   7.357
 3094TIP3    H133477   6.735   6.872   7.276
 3094TIP3    H233478   6.706   6.777   7.390
 3095TIP3   OH233479   5.769   6.542   8.417
 3095TIP3    H133480   5.729   6.504   8.495
 3095TIP3    H233481   5.708   6.521   8.346
 3096TIP3   OH233482   6.481   6.525   8.687
 3096TIP3    H133483   6.409   6.492   8.633
 3096TIP3    H233484   6.559   6.482   8.651
 3097TIP3   OH233485   6.880   7.049   8.563
 3097TIP3    H133486   6.793   7.070   8.530
 3097TIP3    H233487   6.873   7.060   8.658
 3098TIP3   OH233488   7.292   6.346   7.315
 3098TIP3    H133489   7.231   6.317   7.248
 3098TIP3    H233490   7.283   6.441   7.317
 3099TIP3   OH233491   7.517   6.875   8.559
 3099TIP3    H133492   7.426   6.867   8.530
 3099TIP3    H233493   7.569   6.856   8.482
 3100TIP3   OH233494   7.144   7.184   7.432
 3100TIP3    H133495   7.161   7.131   7.510
 3100TIP3    H233496   7.103   7.123   7.371
 3101TIP3   OH233497   7.090   6.653   7.986
 3101TIP3    H133498   6.996   6.659   8.000
 3101TIP3    H233499   7.104   6.563   7.956
 3102TIP3   OH233500   6.325   7.023   7.688
 3102TIP3    H133501   6.361   7.103   7.651
 3102TIP3    H233502   6.231   7.040   7.696
 3103TIP3   OH233503   5.943   6.458   7.276
 3103TIP3    H133504   5.959   6.510   7.198
 3103TIP3    H233505   5.915   6.373   7.242
 3104TIP3   OH233506   6.388   6.782   7.572
 3104TIP3    H133507   6.374   6.868   7.611
 3104TIP3    H233508   6.320   6.726   7.608
 3105TIP3   OH233509   6.544   7.253   8.254
 3105TIP3    H133510   6.613   7.313   8.227
 3105TIP3    H233511   6.584   7.201   8.324
 3106TIP3   OH233512   6.381   7.274   7.597
 3106TIP3    H133513   6.292   7.308   7.596
 3106TIP3    H233514   6.434   7.347   7.630
 3107TIP3   OH233515   6.775   6.880   8.299
 3107TIP3    H133516   6.715   6.854   8.369
 3107TIP3    H233517   6.858   6.840   8.323
 3108TIP3   OH233518   7.019   6.974   7.301
 3108TIP3    H133519   7.076   6.910   7.345
 3108TIP3    H233520   6.931   6.939   7.312
 3109TIP3   OH233521   7.096   7.206   8.506
 3109TIP3    H133522   7.027   7.144   8.531
 3109TIP3    H233523   7.049   7.275   8.459
 3110TIP3   OH233524   7.430   7.287   7.049
 3110TIP3    H133525   7.435   7.351   6.978
 3110TIP3    H233526   7.389   7.334   7.121
 3111TIP3   OH233527   5.979   5.991   8.425
 3111TIP3    H133528   5.902   6.034   8.463
 3111TIP3    H233529   5.987   5.908   8.473
 3112TIP3   OH233530   7.187   6.817   7.454
 3112TIP3    H133531   7.160   6.738   7.501
 3112TIP3    H233532   7.281   6.807   7.442
 3113TIP3   OH233533   5.923   7.202   8.239
 3113TIP3    H133534   5.956   7.131   8.294
 3113TIP3    H233535   5.917   7.277   8.298
 3114TIP3   OH233536   6.758   6.012   8.322
 3114TIP3    H133537   6.835   6.042   8.371
 3114TIP3    H233538   6.724   5.938   8.374
 3115TIP3   OH233539   6.856   5.905   7.508
 3115TIP3    H133540   6.892   5.895   7.420
 3115TIP3    H233541   6.911   5.971   7.549
 3116TIP3   OH233542   6.537   6.103   7.436
 3116TIP3    H133543   6.625   6.140   7.433
 3116TIP3    H233544   6.526   6.077   7.527
 3117TIP3   OH233545   6.670   6.279   8.341
 3117TIP3    H133546   6.667   6.307   8.432
 3117TIP3    H233547   6.693   6.186   8.345
 3118TIP3   OH233548   6.661   5.823   7.686
 3118TIP3    H133549   6.607   5.902   7.689
 3118TIP3    H233550   6.729   5.842   7.622
 3119TIP3   OH233551   6.156   5.948   7.284
 3119TIP3    H133552   6.129   6.004   7.210
 3119TIP3    H233553   6.251   5.939   7.274
 3120TIP3   OH233554   7.209   6.060   8.536
 3120TIP3    H133555   7.120   6.056   8.501
 3120TIP3    H233556   7.265   6.049   8.460
 3121TIP3   OH233557   7.125   6.380   7.919
 3121TIP3    H133558   7.040   6.338   7.928
 3121TIP3    H233559   7.186   6.320   7.963
 3122TIP3   OH233560   5.840   6.417   6.958
 3122TIP3    H133561   5.892   6.491   6.989
 3122TIP3    H233562   5.895   6.375   6.892
 3123TIP3   OH233563   7.280   7.308   8.044
 3123TIP3    H133564   7.261   7.388   7.996
 3123TIP3    H233565   7.374   7.312   8.062
 3124TIP3   OH233566   5.985   5.747   7.899
 3124TIP3    H133567   5.979   5.738   7.804
 3124TIP3    H233568   5.956   5.662   7.933
 3125TIP3   OH233569   5.893   7.160   7.564
 3125TIP3    H133570   5.843   7.175   7.644
 3125TIP3    H233571   5.875   7.237   7.510
 3126TIP3   OH233572   5.829   7.408   8.656
 3126TIP3    H133573   5.890   7.390   8.729
 3126TIP3    H233574   5.775   7.330   8.651
 3127TIP3   OH233575   6.225   7.207   8.875
 3127TIP3    H133576   6.302   7.165   8.913
 3127TIP3    H233577   6.230   7.188   8.782
 3128TIP3   OH233578   6.888   7.085   8.835
 3128TIP3    H133579   6.898   7.002   8.881
 3128TIP3    H233580   6.963   7.137   8.864
 3129TIP3   OH233581   5.773   6.791   8.806
 3129TIP3    H133582   5.701   6.740   8.844
 3129TIP3    H233583   5.733   6.838   8.732
 3130TIP3   OH233584   6.429   6.784   8.776
 3130TIP3    H133585   6.418   6.834   8.695
 3130TIP3    H233586   6.457   6.697   8.747
 3131TIP3   OH233587   6.999   6.821   8.464
 3131TIP3    H133588   7.090   6.843   8.446
 3131TIP3    H233589   6.960   6.903   8.497
 3132TIP3   OH233590   5.849   6.422   8.789
 3132TIP3    H133591   5.917   6.474   8.747
 3132TIP3    H233592   5.845   6.455   8.879
 3133TIP3   OH233593   6.393   6.600   7.190
 3133TIP3    H133594   6.323   6.576   7.251
 3133TIP3    H233595   6.376   6.546   7.112
 3134TIP3   OH233596   6.294   6.419   8.504
 3134TIP3    H133597   6.205   6.453   8.503
 3134TIP3    H233598   6.344   6.481   8.451
 3135TIP3   OH233599   6.321   6.492   6.943
 3135TIP3    H133600   6.258   6.560   6.920
 3135TIP3    H233601   6.359   6.466   6.859
 3136TIP3   OH233602   6.786   6.694   8.753
 3136TIP3    H133603   6.862   6.652   8.714
 3136TIP3    H233604   6.752   6.630   8.815
 3137TIP3   OH233605   6.328   6.150   8.555
 3137TIP3    H133606   6.341   6.104   8.472
 3137TIP3    H233607   6.316   6.242   8.530
 3138TIP3   OH233608   6.376   6.019   8.309
 3138TIP3    H133609   6.434   6.062   8.247
 3138TIP3    H233610   6.292   6.012   8.264
 3139TIP3   OH233611   6.447   6.608   8.386
 3139TIP3    H133612   6.521   6.658   8.422
 3139TIP3    H233613   6.423   6.655   8.307
 3140TIP3   OH233614   6.912   6.347   8.782
 3140TIP3    H133615   6.896   6.253   8.772
 3140TIP3    H233616   7.007   6.355   8.785
 3141TIP3   OH233617   7.033   6.614   8.635
 3141TIP3    H133618   7.009   6.687   8.578
 3141TIP3    H233619   7.129   6.609   8.628
 3142TIP3   OH233620   6.179   6.135   8.794
 3142TIP3    H133621   6.098   6.087   8.782
 3142TIP3    H233622   6.220   6.136   8.707
 3143TIP3   OH233623   6.399   5.754   8.390
 3143TIP3    H133624   6.389   5.846   8.365
 3143TIP3    H233625   6.326   5.709   8.348
 3144TIP3   OH233626   6.556   6.134   8.712
 3144TIP3    H133627   6.523   6.092   8.792
 3144TIP3    H233628   6.481   6.134   8.653
 3145TIP3   OH233629   6.840   6.093   8.719
 3145TIP3    H133630   6.747   6.079   8.732
 3145TIP3    H233631   6.882   6.029   8.776
 3146TIP3   OH233632   7.000   5.935   8.883
 3146TIP3    H133633   6.983   5.841   8.873
 3146TIP3    H233634   6.971   5.955   8.972
 3147TIP3   OH233635   5.947   5.975   8.779
 3147TIP3    H133636   5.952   5.903   8.716
 3147TIP3    H233637   5.950   5.933   8.864
 3148TIP3   OH233638   6.433   5.644   8.635
 3148TIP3    H133639   6.483   5.563   8.627
 3148TIP3    H233640   6.417   5.672   8.545
 3149TIP3   OH233641   6.569   5.814   8.804
 3149TIP3    H133642   6.525   5.746   8.753
 3149TIP3    H233643   6.499   5.872   8.834
 3150TIP3   OH233644   5.723   7.428   7.665
 3150TIP3    H133645   5.656   7.423   7.597
 3150TIP3    H233646   5.711   7.348   7.716
 3151TIP3   OH233647   5.774   7.197   7.815
 3151TIP3    H133648   5.769   7.115   7.864
 3151TIP3    H233649   5.808   7.261   7.878
 3152TIP3   OH233650   7.537   7.326   8.158
 3152TIP3    H133651   7.528   7.301   8.250
 3152TIP3    H233652   7.558   7.419   8.160
 3153TIP3   OH233653   7.475   7.273   8.425
 3153TIP3    H133654   7.418   7.201   8.400
 3153TIP3    H233655   7.524   7.240   8.501
 3154TIP3   OH233656   7.410   6.913   8.929
 3154TIP3    H133657   7.325   6.934   8.966
 3154TIP3    H233658   7.470   6.979   8.965
 3155TIP3   OH233659   7.458   6.777   7.449
 3155TIP3    H133660   7.519   6.836   7.492
 3155TIP3    H233661   7.471   6.693   7.492
 3156TIP3   OH233662   7.498   6.548   7.596
 3156TIP3    H133663   7.429   6.502   7.644
 3156TIP3    H233664   7.576   6.538   7.651
 3157TIP3   OH233665   7.498   6.843   8.079
 3157TIP3    H133666   7.532   6.787   8.010
 3157TIP3    H233667   7.521   6.932   8.052
 3158TIP3   OH233668   7.287   7.087   8.348
 3158TIP3    H133669   7.215   7.130   8.393
 3158TIP3    H233670   7.258   7.078   8.258
 3159TIP3   OH233671   7.096   6.297   7.128
 3159TIP3    H133672   7.062   6.353   7.058
 3159TIP3    H233673   7.101   6.210   7.088
 3160TIP3   OH233674   7.284   6.390   7.687
 3160TIP3    H133675   7.273   6.307   7.641
 3160TIP3    H233676   7.237   6.379   7.769
 3161TIP3   OH233677   5.744   6.587   8.052
 3161TIP3    H133678   5.752   6.580   7.957
 3161TIP3    H233679   5.820   6.540   8.087
 3162TIP3   OH233680   7.306   6.617   8.603
 3162TIP3    H133681   7.366   6.548   8.574
 3162TIP3    H233682   7.310   6.683   8.534
 3163TIP3   OH233683   7.443   6.368   8.562
 3163TIP3    H133684   7.362   6.345   8.607
 3163TIP3    H233685   7.495   6.288   8.563
 3164TIP3   OH233686   7.099   6.082   6.966
 3164TIP3    H133687   7.190   6.058   6.979
 3164TIP3    H233688   7.089   6.090   6.871
 3165TIP3   OH233689   7.235   6.169   7.520
 3165TIP3    H133690   7.263   6.079   7.504
 3165TIP3    H233691   7.259   6.216   7.440
 3166TIP3   OH233692   7.279   6.186   8.042
 3166TIP3    H133693   7.374   6.195   8.045
 3166TIP3    H233694   7.250   6.209   8.131
 3167TIP3   OH233695   7.259   6.319   8.288
 3167TIP3    H133696   7.183   6.350   8.337
 3167TIP3    H233697   7.303   6.400   8.260
 3168TIP3   OH233698   5.774   6.105   8.563
 3168TIP3    H133699   5.814   6.105   8.650
 3168TIP3    H233700   5.704   6.040   8.569
 3169TIP3   OH233701   7.529   5.713   8.822
 3169TIP3    H133702   7.605   5.665   8.788
 3169TIP3    H233703   7.513   5.782   8.758
 3170TIP3   OH233704   7.299   5.904   7.464
 3170TIP3    H133705   7.276   5.816   7.495
 3170TIP3    H233706   7.313   5.892   7.370
 3171TIP3   OH233707   5.869   5.991   7.960
 3171TIP3    H133708   5.909   5.906   7.944
 3171TIP3    H233709   5.942   6.052   7.963
 3172TIP3   OH233710   5.658   6.273   8.026
 3172TIP3    H133711   5.736   6.292   7.975
 3172TIP3    H233712   5.690   6.259   8.115
 3173TIP3   OH233713   7.433   5.905   8.654
 3173TIP3    H133714   7.365   5.950   8.704
 3173TIP3    H233715   7.385   5.862   8.583
 3174TIP3   OH233716   5.603   5.808   7.262
 3174TIP3    H133717   5.568   5.861   7.333
 3174TIP3    H233718   5.621   5.871   7.191
 3175TIP3   OH233719   7.168   7.459   7.677
 3175TIP3    H133720   7.200   7.445   7.588
 3175TIP3    H233721   7.238   7.506   7.722
 3176TIP3   OH233722   5.704   5.726   8.262
 3176TIP3    H133723   5.641   5.730   8.335
 3176TIP3    H233724   5.694   5.810   8.217
 3177TIP3   OH233725   5.945   7.098   8.649
 3177TIP3    H133726   5.858   7.134   8.632
 3177TIP3    H233727   5.944   7.077   8.743
 3178TIP3   OH233728   6.287   7.238   8.357
 3178TIP3    H133729   6.241   7.318   8.334
 3178TIP3    H233730   6.377   7.251   8.325
 3179TIP3   OH233731   6.599   7.360   8.632
 3179TIP3    H133732   6.612   7.315   8.716
 3179TIP3    H233733   6.676   7.416   8.623
 3180TIP3   OH233734   6.831   7.502   8.583
 3180TIP3    H133735   6.879   7.456   8.514
 3180TIP3    H233736   6.897   7.523   8.649
 3181TIP3   OH233737   7.294   5.732   8.483
 3181TIP3    H133738   7.239   5.762   8.410
 3181TIP3    H233739   7.347   5.661   8.445
 3182TIP3   OH233740   5.910   7.437   8.389
 3182TIP3    H133741   5.839   7.490   8.355
 3182TIP3    H233742   5.893   7.432   8.483
 3183TIP3   OH233743   6.172   7.480   8.293
 3183TIP3    H133744   6.083   7.474   8.326
 3183TIP3    H233745   6.164   7.526   8.210
 3184TIP3   OH233746   6.747   7.421   8.169
 3184TIP3    H133747   6.770   7.415   8.076
 3184TIP3    H233748   6.725   7.513   8.183
 3185TIP3   OH233749   6.940   7.378   8.358
 3185TIP3    H133750   6.867   7.394   8.299
 3185TIP3    H233751   7.015   7.419   8.315
 3186TIP3   OH233752   7.168   7.468   8.237
 3186TIP3    H133753   7.161   7.535   8.169
 3186TIP3    H233754   7.200   7.390   8.191
 3187TIP3   OH233755   5.901   7.353   8.010
 3187TIP3    H133756   5.899   7.309   8.095
 3187TIP3    H233757   5.984   7.326   7.970
 3188TIP3   OH233758   6.130   7.233   7.915
 3188TIP3    H133759   6.118   7.139   7.927
 3188TIP3    H233760   6.215   7.252   7.955
 3189TIP3   OH233761   6.386   7.241   8.028
 3189TIP3    H133762   6.397   7.151   7.999
 3189TIP3    H233763   6.437   7.247   8.109
 3190TIP3   OH233764   6.735   5.750   7.947
 3190TIP3    H133765   6.648   5.725   7.979
 3190TIP3    H233766   6.719   5.782   7.858
 3191TIP3   OH233767   7.266   5.669   7.859
 3191TIP3    H133768   7.302   5.758   7.865
 3191TIP3    H233769   7.248   5.657   7.766
 3192TIP3   OH233770   7.407   5.917   7.818
 3192TIP3    H133771   7.445   5.845   7.767
 3192TIP3    H233772   7.446   5.996   7.782
 3193TIP3   OH233773   5.977   5.698   7.623
 3193TIP3    H133774   5.899   5.669   7.576
 3193TIP3    H233775   6.031   5.620   7.631
 3194TIP3   OH233776   5.701   5.560   7.186
 3194TIP3    H133777   5.700   5.562   7.090
 3194TIP3    H233778   5.689   5.651   7.212
 3195TIP3   OH233779   6.477   5.625   7.750
 3195TIP3    H133780   6.528   5.698   7.717
 3195TIP3    H233781   6.463   5.646   7.843
 3196TIP3   OH233782   5.850   7.364   7.385
 3196TIP3    H133783   5.775   7.327   7.338
 3196TIP3    H233784   5.853   7.455   7.358
 3197TIP3   OH233785   6.431   5.908   7.271
 3197TIP3    H133786   6.505   5.873   7.221
 3197TIP3    H233787   6.470   5.979   7.323
 3198TIP3   OH233788   7.317   7.401   7.451
 3198TIP3    H133789   7.267   7.321   7.436
 3198TIP3    H233790   7.323   7.442   7.365
 3199TIP3   OH233791   5.955   5.753   8.594
 3199TIP3    H133792   5.893   5.695   8.639
 3199TIP3    H233793   6.040   5.733   8.633
 3200TIP3   OH233794   6.179   5.691   8.729
 3200TIP3    H133795   6.269   5.678   8.697
 3200TIP3    H233796   6.181   5.662   8.820
 3201TIP3   OH233797   6.996   5.663   8.841
 3201TIP3    H133798   6.983   5.611   8.920
 3201TIP3    H233799   7.087   5.649   8.817
 3202TIP3   OH233800   7.287   7.223   8.707
 3202TIP3    H133801   7.224   7.213   8.636
 3202TIP3    H233802   7.300   7.317   8.715
 3203TIP3   OH233803   7.551   6.319   7.452
 3203TIP3    H133804   7.532   6.406   7.487
 3203TIP3    H233805   7.480   6.301   7.390
 3204TIP3   OH233806   7.618   6.781   8.325
 3204TIP3    H133807   7.583   6.802   8.238
 3204TIP3    H233808   7.611   6.685   8.330
 3205TIP3   OH233809   7.599   7.094   8.018
 3205TIP3    H133810   7.692   7.079   8.034
 3205TIP3    H233811   7.579   7.174   8.066
 3206TIP3   OH233812   7.538   6.113   7.668
 3206TIP3    H133813   7.527   6.202   7.635
 3206TIP3    H233814   7.554   6.060   7.590
 3207TIP3   OH233815   7.612   6.505   8.393
 3207TIP3    H133816   7.558   6.459   8.457
 3207TIP3    H233817   7.570   6.487   8.308
 3208TIP3   OH233818   7.627   6.686   8.725
 3208TIP3    H133819   7.554   6.655   8.778
 3208TIP3    H233820   7.591   6.755   8.670
 3209TIP3   OH233821   7.467   7.516   7.658
 3209TIP3    H133822   7.422   7.479   7.582
 3209TIP3    H233823   7.490   7.440   7.711
 3210TIP3   OH233824   7.561   7.289   7.788
 3210TIP3    H133825   7.525   7.217   7.840
 3210TIP3    H233826   7.656   7.279   7.796
 3211TIP3   OH233827   7.611   6.619   7.949
 3211TIP3    H133828   7.640   6.586   7.864
 3211TIP3    H233829   7.691   6.652   7.991
 3212TIP3   OH233830   7.575   6.121   8.552
 3212TIP3    H133831   7.667   6.098   8.566
 3212TIP3    H233832   7.527   6.048   8.590
 3213TIP3   OH233833   7.537   6.254   8.099
 3213TIP3    H133834   7.633   6.258   8.092
 3213TIP3    H233835   7.511   6.344   8.119
 3214TIP3   OH233836   7.575   5.997   7.421
 3214TIP3    H133837   7.497   5.943   7.419
 3214TIP3    H233838   7.569   6.053   7.344
 3215TIP3   OH233839   7.570   5.693   8.203
 3215TIP3    H133840   7.535   5.643   8.277
 3215TIP3    H233841   7.500   5.754   8.179
 3216TIP3   OH233842   0.834   7.585   7.986
 3216TIP3    H133843   0.828   7.546   7.899
 3216TIP3    H233844   0.745   7.580   8.020
 3217TIP3   OH233845   1.751   7.464   7.254
 3217TIP3    H133846   1.725   7.451   7.162
 3217TIP3    H233847   1.760   7.558   7.262
 3218TIP3   OH233848   0.574   7.641   8.072
 3218TIP3    H133849   0.491   7.630   8.026
 3218TIP3    H233850   0.578   7.734   8.094
 3219TIP3   OH233851   1.053   7.558   8.382
 3219TIP3    H133852   1.097   7.535   8.464
 3219TIP3    H233853   0.960   7.551   8.402
 3220TIP3   OH233854   0.321   7.633   7.969
 3220TIP3    H133855   0.306   7.614   7.876
 3220TIP3    H233856   0.281   7.558   8.015
 3221TIP3   OH233857   0.778   7.574   8.375
 3221TIP3    H133858   0.773   7.666   8.351
 3221TIP3    H233859   0.701   7.534   8.334
 3222TIP3   OH233860   0.713   7.473   8.622
 3222TIP3    H133861   0.787   7.424   8.655
 3222TIP3    H233862   0.733   7.487   8.529
 3223TIP3   OH233863   1.886   7.551   8.829
 3223TIP3    H133864   1.961   7.520   8.778
 3223TIP3    H233865   1.906   7.642   8.850
 3224TIP3   OH233866   0.099   7.641   8.366
 3224TIP3    H133867   0.075   7.731   8.387
 3224TIP3    H233868   0.028   7.610   8.310
 3225TIP3   OH233869   1.623   7.587   8.495
 3225TIP3    H133870   1.567   7.586   8.418
 3225TIP3    H233871   1.687   7.517   8.480
 3226TIP3   OH233872   1.510   7.545   7.831
 3226TIP3    H133873   1.522   7.640   7.821
 3226TIP3    H233874   1.416   7.535   7.848
 3227TIP3   OH233875   0.295   7.562   7.707
 3227TIP3    H133876   0.212   7.539   7.666
 3227TIP3    H233877   0.352   7.486   7.691
 3228TIP3   OH233878   0.244   7.528   7.391
 3228TIP3    H133879   0.233   7.608   7.340
 3228TIP3    H233880   0.175   7.532   7.458
 3229TIP3   OH233881   0.818   7.494   7.571
 3229TIP3    H133882   0.844   7.512   7.481
 3229TIP3    H233883   0.829   7.577   7.617
 3230TIP3   OH233884   1.239   7.531   7.879
 3230TIP3    H133885   1.220   7.616   7.838
 3230TIP3    H233886   1.184   7.530   7.957
 3231TIP3   OH233887   1.290   7.637   7.303
 3231TIP3    H133888   1.234   7.594   7.240
 3231TIP3    H233889   1.244   7.628   7.387
 3232TIP3   OH233890   0.438   7.501   8.656
 3232TIP3    H133891   0.531   7.480   8.647
 3232TIP3    H233892   0.414   7.464   8.741
 3233TIP3   OH233893   1.347   7.571   8.828
 3233TIP3    H133894   1.329   7.529   8.912
 3233TIP3    H233895   1.441   7.562   8.817
 3234TIP3   OH233896   2.684   7.498   8.018
 3234TIP3    H133897   2.670   7.415   7.973
 3234TIP3    H233898   2.597   7.527   8.044
 3235TIP3   OH233899   3.475   7.586   7.360
 3235TIP3    H133900   3.380   7.596   7.349
 3235TIP3    H233901   3.511   7.672   7.337
 3236TIP3   OH233902   2.435   7.620   8.056
 3236TIP3    H133903   2.361   7.611   7.995
 3236TIP3    H233904   2.454   7.713   8.057
 3237TIP3   OH233905   2.948   7.567   8.401
 3237TIP3    H133906   3.000   7.523   8.468
 3237TIP3    H233907   2.858   7.538   8.418
 3238TIP3   OH233908   2.223   7.588   7.880
 3238TIP3    H133909   2.197   7.577   7.789
 3238TIP3    H233910   2.187   7.511   7.925
 3239TIP3   OH233911   2.669   7.547   8.367
 3239TIP3    H133912   2.666   7.637   8.333
 3239TIP3    H233913   2.587   7.508   8.338
 3240TIP3   OH233914   2.659   7.544   8.639
 3240TIP3    H133915   2.722   7.474   8.658
 3240TIP3    H233916   2.652   7.545   8.544
 3241TIP3   OH233917   3.736   7.570   8.793
 3241TIP3    H133918   3.807   7.526   8.745
 3241TIP3    H233919   3.768   7.659   8.807
 3242TIP3   OH233920   1.966   7.567   8.309
 3242TIP3    H133921   1.898   7.523   8.360
 3242TIP3    H233922   1.949   7.661   8.323
 3243TIP3   OH233923   3.543   7.550   8.427
 3243TIP3    H133924   3.479   7.535   8.357
 3243TIP3    H233925   3.594   7.469   8.430
 3244TIP3   OH233926   3.402   7.548   7.894
 3244TIP3    H133927   3.412   7.640   7.920
 3244TIP3    H233928   3.314   7.544   7.856
 3245TIP3   OH233929   2.144   7.542   7.614
 3245TIP3    H133930   2.059   7.499   7.624
 3245TIP3    H233931   2.206   7.471   7.603
 3246TIP3   OH233932   2.598   7.462   7.716
 3246TIP3    H133933   2.669   7.524   7.700
 3246TIP3    H233934   2.522   7.517   7.737
 3247TIP3   OH233935   3.153   7.547   7.772
 3247TIP3    H133936   3.155   7.520   7.681
 3247TIP3    H233937   3.088   7.489   7.813
 3248TIP3   OH233938   3.192   7.606   7.342
 3248TIP3    H133939   3.141   7.591   7.263
 3248TIP3    H233940   3.168   7.533   7.400
 3249TIP3   OH233941   2.421   7.547   8.780
 3249TIP3    H133942   2.502   7.542   8.729
 3249TIP3    H233943   2.422   7.468   8.834
 3250TIP3   OH233944   3.230   7.566   8.810
 3250TIP3    H133945   3.226   7.525   8.896
 3250TIP3    H233946   3.322   7.559   8.784
 3251TIP3   OH233947   4.541   7.503   8.035
 3251TIP3    H133948   4.520   7.410   8.044
 3251TIP3    H233949   4.458   7.548   8.052
 3252TIP3   OH233950   5.429   7.614   7.315
 3252TIP3    H133951   5.339   7.610   7.347
 3252TIP3    H233952   5.448   7.708   7.307
 3253TIP3   OH233953   4.304   7.644   8.074
 3253TIP3    H133954   4.223   7.633   8.024
 3253TIP3    H233955   4.333   7.733   8.054
 3254TIP3   OH233956   4.804   7.573   8.450
 3254TIP3    H133957   4.875   7.539   8.504
 3254TIP3    H233958   4.725   7.531   8.485
 3255TIP3   OH233959   4.060   7.604   7.950
 3255TIP3    H133960   4.032   7.591   7.859
 3255TIP3    H233961   4.028   7.526   7.996
 3256TIP3   OH233962   4.518   7.540   8.392
 3256TIP3    H133963   4.516   7.636   8.387
 3256TIP3    H233964   4.436   7.512   8.352
 3257TIP3   OH233965   4.497   7.480   8.656
 3257TIP3    H133966   4.569   7.421   8.679
 3257TIP3    H233967   4.498   7.483   8.561
 3258TIP3   OH233968   5.637   7.567   8.780
 3258TIP3    H133969   5.709   7.526   8.732
 3258TIP3    H233970   5.667   7.656   8.796
 3259TIP3   OH233971   3.818   7.609   8.315
 3259TIP3    H133972   3.737   7.612   8.366
 3259TIP3    H233973   3.846   7.700   8.311
 3260TIP3   OH233974   5.429   7.560   8.405
 3260TIP3    H133975   5.356   7.546   8.344
 3260TIP3    H233976   5.469   7.474   8.413
 3261TIP3   OH233977   5.300   7.570   7.844
 3261TIP3    H133978   5.334   7.659   7.839
 3261TIP3    H233979   5.205   7.580   7.843
 3262TIP3   OH233980   3.979   7.546   7.682
 3262TIP3    H133981   3.908   7.483   7.686
 3262TIP3    H233982   4.059   7.494   7.674
 3263TIP3   OH233983   3.850   7.521   7.401
 3263TIP3    H133984   3.898   7.535   7.483
 3263TIP3    H233985   3.767   7.483   7.428
 3264TIP3   OH233986   4.603   7.460   7.758
 3264TIP3    H133987   4.666   7.530   7.741
 3264TIP3    H233988   4.586   7.464   7.852
 3265TIP3   OH233989   5.019   7.577   7.849
 3265TIP3    H133990   4.935   7.594   7.807
 3265TIP3    H233991   5.010   7.489   7.886
 3266TIP3   OH233992   5.176   7.571   7.438
 3266TIP3    H133993   5.105   7.520   7.398
 3266TIP3    H233994   5.212   7.514   7.505
 3267TIP3   OH233995   4.240   7.556   8.735
 3267TIP3    H133996   4.323   7.514   8.712
 3267TIP3    H233997   4.192   7.490   8.784
 3268TIP3   OH233998   5.143   7.563   8.810
 3268TIP3    H133999   5.141   7.513   8.892
 3268TIP3    H234000   5.231   7.548   8.775
 3269TIP3   OH234001   6.413   7.509   7.950
 3269TIP3    H134002   6.412   7.416   7.974
 3269TIP3    H234003   6.333   7.544   7.988
 3270TIP3   OH234004   7.297   7.506   7.197
 3270TIP3    H134005   7.206   7.526   7.217
 3270TIP3    H234006   7.327   7.580   7.144
 3271TIP3   OH234007   6.186   7.627   8.059
 3271TIP3    H134008   6.107   7.622   8.004
 3271TIP3    H234009   6.209   7.720   8.061
 3272TIP3   OH234010   6.696   7.630   8.369
 3272TIP3    H134011   6.737   7.597   8.450
 3272TIP3    H234012   6.604   7.606   8.378
 3273TIP3   OH234013   5.960   7.610   7.906
 3273TIP3    H134014   5.960   7.592   7.812
 3273TIP3    H234015   5.917   7.534   7.945
 3274TIP3   OH234016   6.417   7.591   8.371
 3274TIP3    H134017   6.417   7.680   8.336
 3274TIP3    H234018   6.337   7.552   8.336
 3275TIP3   OH234019   6.366   7.503   8.625
 3275TIP3    H134020   6.436   7.440   8.642
 3275TIP3    H234021   6.376   7.527   8.533
 3276TIP3   OH234022   7.568   7.555   8.824
 3276TIP3    H134023   7.652   7.514   8.803
 3276TIP3    H234024   7.587   7.648   8.830
 3277TIP3   OH234025   5.702   7.599   8.302
 3277TIP3    H134026   5.617   7.596   8.344
 3277TIP3    H234027   5.727   7.691   8.303
 3278TIP3   OH234028   7.350   7.520   8.437
 3278TIP3    H134029   7.277   7.503   8.378
 3278TIP3    H234030   7.398   7.437   8.441
 3279TIP3   OH234031   7.181   7.567   7.976
 3279TIP3    H134032   7.213   7.656   7.961
 3279TIP3    H234033   7.098   7.563   7.929
 3280TIP3   OH234034   5.962   7.557   7.636
 3280TIP3    H134035   5.876   7.516   7.632
 3280TIP3    H234036   6.023   7.485   7.618
 3281TIP3   OH234037   6.549   7.467   7.708
 3281TIP3    H134038   6.585   7.551   7.681
 3281TIP3    H234039   6.505   7.485   7.791
 3282TIP3   OH234040   6.960   7.587   7.812
 3282TIP3    H134041   7.008   7.544   7.741
 3282TIP3    H234042   6.890   7.525   7.834
 3283TIP3   OH234043   7.034   7.560   7.264
 3283TIP3    H134044   6.985   7.530   7.188
 3283TIP3    H234045   6.999   7.509   7.337
 3284TIP3   OH234046   6.119   7.568   8.733
 3284TIP3    H134047   6.198   7.530   8.694
 3284TIP3    H234048   6.077   7.494   8.778
 3285TIP3   OH234049   7.040   7.532   8.770
 3285TIP3    H134050   7.017   7.488   8.851
 3285TIP3    H234051   7.133   7.514   8.758
 3286TIP3   OH234052   7.534   7.595   8.236
 3286TIP3    H134053   7.480   7.578   8.313
 3286TIP3    H234054   7.485   7.660   8.186
 3287TIP3   OH234055   1.186   0.993   9.497
 3287TIP3    H134056   1.162   1.086   9.499
 3287TIP3    H234057   1.134   0.954   9.567
 3288TIP3   OH234058   1.004   1.042   9.965
 3288TIP3    H134059   1.042   0.986  10.032
 3288TIP3    H234060   1.002   0.988   9.886
 3289TIP3   OH234061   1.452   1.194   9.777
 3289TIP3    H134062   1.399   1.115   9.787
 3289TIP3    H234063   1.492   1.207   9.863
 3290TIP3   OH234064   0.419   1.293   9.856
 3290TIP3    H134065   0.390   1.211   9.816
 3290TIP3    H234066   0.493   1.269   9.911
 3291TIP3   OH234067   0.187   0.751   9.399
 3291TIP3    H134068   0.177   0.788   9.487
 3291TIP3    H234069   0.098   0.746   9.365
 3292TIP3   OH234070   0.184   0.847   9.665
 3292TIP3    H134071   0.237   0.769   9.680
 3292TIP3    H234072   0.238   0.919   9.699
 3293TIP3   OH234073   1.193   1.797   9.795
 3293TIP3    H134074   1.222   1.738   9.725
 3293TIP3    H234075   1.149   1.739   9.858
 3294TIP3   OH234076   1.033   1.318  -0.017
 3294TIP3    H134077   1.028   1.226  -0.042
 3294TIP3    H234078   1.066   1.316   0.073
 3295TIP3   OH234079   1.165   0.594   9.889
 3295TIP3    H134080   1.222   0.626   9.960
 3295TIP3    H234081   1.124   0.673   9.854
 3296TIP3   OH234082   0.652   0.406   9.646
 3296TIP3    H134083   0.638   0.492   9.604
 3296TIP3    H234084   0.596   0.346   9.597
 3297TIP3   OH234085   1.317   0.347   9.551
 3297TIP3    H134086   1.405   0.345   9.589
 3297TIP3    H234087   1.289   0.438   9.561
 3298TIP3   OH234088   0.339   0.626   9.705
 3298TIP3    H134089   0.403   0.589   9.766
 3298TIP3    H234090   0.327   0.559   9.639
 3299TIP3   OH234091   0.725   0.860   9.672
 3299TIP3    H134092   0.820   0.857   9.680
 3299TIP3    H234093   0.701   0.777   9.630
 3300TIP3   OH234094   1.139   1.263   9.446
 3300TIP3    H134095   1.113   1.249   9.355
 3300TIP3    H234096   1.107   1.351   9.467
 3301TIP3   OH234097   1.519   0.355   9.743
 3301TIP3    H134098   1.457   0.357   9.816
 3301TIP3    H234099   1.588   0.416   9.769
 3302TIP3   OH234100   0.507   0.482   9.866
 3302TIP3    H134101   0.561   0.479   9.945
 3302TIP3    H234102   0.565   0.452   9.796
 3303TIP3   OH234103   0.059   1.314   9.276
 3303TIP3    H134104   0.071   1.335   9.183
 3303TIP3    H234105   0.086   1.393   9.322
 3304TIP3   OH234106   1.625   1.286   0.062
 3304TIP3    H134107   1.532   1.297   0.084
 3304TIP3    H234108   1.669   1.355   0.112
 3305TIP3   OH234109   0.805   0.068   9.844
 3305TIP3    H134110   0.822  -0.024   9.864
 3305TIP3    H234111   0.727   0.090   9.896
 3306TIP3   OH234112   1.321   1.630   9.612
 3306TIP3    H134113   1.334   1.535   9.611
 3306TIP3    H234114   1.410   1.666   9.607
 3307TIP3   OH234115   1.363   1.367   9.583
 3307TIP3    H134116   1.298   1.315   9.536
 3307TIP3    H234117   1.401   1.305   9.647
 3308TIP3   OH234118   1.127   0.894   9.244
 3308TIP3    H134119   1.130   0.938   9.329
 3308TIP3    H234120   1.219   0.885   9.219
 3309TIP3   OH234121   1.068   0.887   8.974
 3309TIP3    H134122   1.080   0.903   9.068
 3309TIP3    H234123   1.129   0.817   8.954
 3310TIP3   OH234124   1.453   1.005   9.399
 3310TIP3    H134125   1.366   1.003   9.439
 3310TIP3    H234126   1.508   0.954   9.459
 3311TIP3   OH234127   0.520   1.011   9.556
 3311TIP3    H134128   0.494   0.973   9.472
 3311TIP3    H234129   0.595   0.958   9.584
 3312TIP3   OH234130   0.790   1.404   9.892
 3312TIP3    H134131   0.786   1.404   9.796
 3312TIP3    H234132   0.880   1.377   9.912
 3313TIP3   OH234133   0.590   0.939   9.902
 3313TIP3    H134134   0.645   0.906   9.830
 3313TIP3    H234135   0.640   1.012   9.938
 3314TIP3   OH234136   1.386   0.859   9.167
 3314TIP3    H134137   1.433   0.919   9.225
 3314TIP3    H234138   1.418   0.881   9.079
 3315TIP3   OH234139   1.085   1.533   9.489
 3315TIP3    H134140   1.156   1.568   9.543
 3315TIP3    H234141   1.062   1.606   9.431
 3316TIP3   OH234142   1.582   0.091   9.078
 3316TIP3    H134143   1.545   0.113   9.163
 3316TIP3    H234144   1.668   0.133   9.078
 3317TIP3   OH234145   0.404   0.909   9.320
 3317TIP3    H134146   0.351   0.979   9.282
 3317TIP3    H234147   0.342   0.839   9.339
 3318TIP3   OH234148   1.811   1.482   9.016
 3318TIP3    H134149   1.819   1.576   9.006
 3318TIP3    H234150   1.901   1.450   9.020
 3319TIP3   OH234151   0.179   1.429   9.903
 3319TIP3    H134152   0.258   1.389   9.865
 3319TIP3    H234153   0.176   1.396   9.993
 3320TIP3   OH234154   1.081   1.776   9.344
 3320TIP3    H134155   1.064   1.782   9.250
 3320TIP3    H234156   1.042   1.855   9.380
 3321TIP3   OH234157   0.393   1.654   9.528
 3321TIP3    H134158   0.400   1.610   9.613
 3321TIP3    H234159   0.326   1.604   9.481
 3322TIP3   OH234160   1.354   1.751   9.040
 3322TIP3    H134161   1.403   1.677   9.003
 3322TIP3    H234162   1.370   1.745   9.134
 3323TIP3   OH234163   1.353   1.729   9.319
 3323TIP3    H134164   1.260   1.741   9.339
 3323TIP3    H234165   1.380   1.654   9.372
 3324TIP3   OH234166   0.568   0.180   9.962
 3324TIP3    H134167   0.494   0.200   9.904
 3324TIP3    H234168   0.610   0.264   9.977
 3325TIP3   OH234169   1.448   0.899   8.898
 3325TIP3    H134170   1.416   0.941   8.818
 3325TIP3    H234171   1.541   0.922   8.901
 3326TIP3   OH234172   0.954   0.337   9.032
 3326TIP3    H134173   0.901   0.323   9.110
 3326TIP3    H234174   0.931   0.265   8.974
 3327TIP3   OH234175   0.582   0.655   9.547
 3327TIP3    H134176   0.492   0.674   9.573
 3327TIP3    H234177   0.576   0.632   9.455
 3328TIP3   OH234178   1.073   0.631   9.310
 3328TIP3    H134179   1.066   0.724   9.287
 3328TIP3    H234180   1.167   0.615   9.316
 3329TIP3   OH234181   1.246   0.602   9.628
 3329TIP3    H134182   1.191   0.674   9.596
 3329TIP3    H234183   1.207   0.578   9.712
 3330TIP3   OH234184   0.656   0.397   8.853
 3330TIP3    H134185   0.611   0.402   8.937
 3330TIP3    H234186   0.604   0.451   8.794
 3331TIP3   OH234187   0.080   0.395   9.652
 3331TIP3    H134188   0.099   0.365   9.741
 3331TIP3    H234189   0.166   0.398   9.609
 3332TIP3   OH234190   0.229   0.510   9.270
 3332TIP3    H134191   0.210   0.530   9.178
 3332TIP3    H234192   0.220   0.594   9.315
 3333TIP3   OH234193   0.910   0.325   9.615
 3333TIP3    H134194   0.820   0.352   9.635
 3333TIP3    H234195   0.954   0.323   9.699
 3334TIP3   OH234196   0.327   0.430   9.518
 3334TIP3    H134197   0.307   0.453   9.428
 3334TIP3    H234198   0.389   0.358   9.512
 3335TIP3   OH234199   0.602   0.556   9.294
 3335TIP3    H134200   0.695   0.542   9.314
 3335TIP3    H234201   0.603   0.603   9.210
 3336TIP3   OH234202   1.317   0.358   9.932
 3336TIP3    H134203   1.330   0.354  10.027
 3336TIP3    H234204   1.255   0.430   9.920
 3337TIP3   OH234205   0.602   0.670   9.046
 3337TIP3    H134206   0.532   0.675   8.980
 3337TIP3    H234207   0.674   0.719   9.008
 3338TIP3   OH234208   0.884   0.600   9.928
 3338TIP3    H134209   0.897   0.663   9.857
 3338TIP3    H234210   0.970   0.560   9.941
 3339TIP3   OH234211   0.497   0.212   9.525
 3339TIP3    H134212   0.417   0.159   9.524
 3339TIP3    H234213   0.567   0.147   9.534
 3340TIP3   OH234214   0.771   1.189   9.214
 3340TIP3    H134215   0.721   1.112   9.186
 3340TIP3    H234216   0.749   1.199   9.307
 3341TIP3   OH234217   1.220   0.399   9.141
 3341TIP3    H134218   1.128   0.423   9.126
 3341TIP3    H234219   1.258   0.476   9.184
 3342TIP3   OH234220   1.344   0.610   9.273
 3342TIP3    H134221   1.423   0.595   9.324
 3342TIP3    H234222   1.360   0.693   9.229
 3343TIP3   OH234223   0.366   1.026   9.779
 3343TIP3    H134224   0.408   1.033   9.693
 3343TIP3    H234225   0.433   0.987   9.835
 3344TIP3   OH234226   1.040   1.243   9.183
 3344TIP3    H134227   1.029   1.338   9.176
 3344TIP3    H234228   0.951   1.209   9.191
 3345TIP3   OH234229   1.773   0.658   9.172
 3345TIP3    H134230   1.723   0.629   9.096
 3345TIP3    H234231   1.798   0.748   9.152
 3346TIP3   OH234232   1.677   1.492   9.262
 3346TIP3    H134233   1.632   1.409   9.280
 3346TIP3    H234234   1.715   1.479   9.176
 3347TIP3   OH234235   1.312   0.959   9.817
 3347TIP3    H134236   1.223   0.933   9.793
 3347TIP3    H234237   1.366   0.884   9.792
 3348TIP3   OH234238   0.695   1.446   9.631
 3348TIP3    H134239   0.721   1.512   9.567
 3348TIP3    H234240   0.611   1.478   9.665
 3349TIP3   OH234241   0.108   0.890   9.064
 3349TIP3    H134242   0.148   0.957   9.119
 3349TIP3    H234243   0.014   0.902   9.075
 3350TIP3   OH234244   0.680   1.223   9.465
 3350TIP3    H134245   0.693   1.293   9.529
 3350TIP3    H234246   0.622   1.161   9.509
 3351TIP3   OH234247   0.663   1.675   9.474
 3351TIP3    H134248   0.568   1.679   9.486
 3351TIP3    H234249   0.693   1.762   9.501
 3352TIP3   OH234250   1.470   1.301   9.026
 3352TIP3    H134251   1.496   1.273   9.114
 3352TIP3    H234252   1.381   1.268   9.016
 3353TIP3   OH234253   1.831   1.757   9.015
 3353TIP3    H134254   1.842   1.822   8.946
 3353TIP3    H234255   1.773   1.799   9.079
 3354TIP3   OH234256   1.575   1.221   9.269
 3354TIP3    H134257   1.521   1.163   9.322
 3354TIP3    H234258   1.663   1.185   9.274
 3355TIP3   OH234259   0.774   1.427   8.887
 3355TIP3    H134260   0.783   1.338   8.853
 3355TIP3    H234261   0.730   1.416   8.971
 3356TIP3   OH234262   0.638   1.414   9.125
 3356TIP3    H134263   0.686   1.341   9.165
 3356TIP3    H234264   0.675   1.492   9.167
 3357TIP3   OH234265   0.234   1.102   9.208
 3357TIP3    H134266   0.171   1.159   9.252
 3357TIP3    H234267   0.293   1.161   9.162
 3358TIP3   OH234268   1.202   0.212   9.343
 3358TIP3    H134269   1.208   0.269   9.267
 3358TIP3    H234270   1.237   0.265   9.415
 3359TIP3   OH234271   0.994   1.508   9.162
 3359TIP3    H134272   0.909   1.542   9.191
 3359TIP3    H234273   1.042   1.586   9.134
 3360TIP3   OH234274   0.857   0.489   9.389
 3360TIP3    H134275   0.930   0.545   9.360
 3360TIP3    H234276   0.886   0.454   9.473
 3361TIP3   OH234277   0.958   0.122   9.433
 3361TIP3    H134278   0.946   0.190   9.499
 3361TIP3    H234279   1.044   0.140   9.395
 3362TIP3   OH234280   0.761   1.638   9.224
 3362TIP3    H134281   0.774   1.728   9.193
 3362TIP3    H234282   0.730   1.649   9.314
 3363TIP3   OH234283   0.566   0.338   9.112
 3363TIP3    H134284   0.543   0.409   9.172
 3363TIP3    H234285   0.643   0.297   9.153
 3364TIP3   OH234286   1.458   0.720   9.778
 3364TIP3    H134287   1.393   0.669   9.730
 3364TIP3    H234288   1.434   0.710   9.870
 3365TIP3   OH234289   0.392   1.296   9.078
 3365TIP3    H134290   0.461   1.353   9.111
 3365TIP3    H234291   0.436   1.240   9.014
 3366TIP3   OH234292   0.150   0.618   9.027
 3366TIP3    H134293   0.135   0.709   9.051
 3366TIP3    H234294   0.119   0.612   8.937
 3367TIP3   OH234295   1.589   1.665   9.924
 3367TIP3    H134296   1.549   1.745   9.890
 3367TIP3    H234297   1.658   1.696   9.984
 3368TIP3   OH234298   0.321   0.131   9.813
 3368TIP3    H134299   0.295   0.130   9.721
 3368TIP3    H234300   0.301   0.044   9.846
 3369TIP3   OH234301   0.156   1.583   9.357
 3369TIP3    H134302   0.121   1.649   9.417
 3369TIP3    H234303   0.161   1.627   9.273
 3370TIP3   OH234304   0.983   1.603   8.861
 3370TIP3    H134305   0.913   1.540   8.878
 3370TIP3    H234306   1.061   1.548   8.847
 3371TIP3   OH234307   1.474   1.547   8.905
 3371TIP3    H134308   1.490   1.464   8.951
 3371TIP3    H234309   1.545   1.551   8.841
 3372TIP3   OH234310   0.555   1.140   8.922
 3372TIP3    H134311   0.571   1.081   8.995
 3372TIP3    H234312   0.640   1.149   8.879
 3373TIP3   OH234313   1.209   1.230   8.966
 3373TIP3    H134314   1.153   1.223   9.043
 3373TIP3    H234315   1.170   1.171   8.902
 3374TIP3   OH234316   0.610   0.978   9.137
 3374TIP3    H134317   0.549   0.936   9.198
 3374TIP3    H234318   0.660   0.905   9.100
 3375TIP3   OH234319   0.792   0.845   8.958
 3375TIP3    H134320   0.784   0.878   8.868
 3375TIP3    H234321   0.884   0.856   8.979
 3376TIP3   OH234322   1.704   1.004   8.871
 3376TIP3    H134323   1.701   0.984   8.778
 3376TIP3    H234324   1.709   1.099   8.875
 3377TIP3   OH234325   0.842   1.883   9.122
 3377TIP3    H134326   0.928   1.848   9.099
 3377TIP3    H234327   0.812   1.928   9.043
 3378TIP3   OH234328   0.132   1.355   9.007
 3378TIP3    H134329   0.223   1.358   9.036
 3378TIP3    H234330   0.131   1.288   8.938
 3379TIP3   OH234331   0.074   1.780   9.542
 3379TIP3    H134332  -0.018   1.808   9.546
 3379TIP3    H234333   0.091   1.740   9.627
 3380TIP3   OH234334   0.111   1.669   9.792
 3380TIP3    H134335   0.133   1.580   9.821
 3380TIP3    H234336   0.174   1.725   9.837
 3381TIP3   OH234337   1.825   1.108   9.295
 3381TIP3    H134338   1.894   1.175   9.302
 3381TIP3    H234339   1.841   1.050   9.369
 3382TIP3   OH234340   1.864   0.928   9.502
 3382TIP3    H134341   1.779   0.901   9.535
 3382TIP3    H234342   1.916   0.946   9.580
 3383TIP3   OH234343   1.886   1.279   9.967
 3383TIP3    H134344   1.908   1.189   9.946
 3383TIP3    H234345   1.793   1.275   9.992
 3384TIP3   OH234346   1.834   0.915   9.099
 3384TIP3    H134347   1.789   0.942   9.019
 3384TIP3    H234348   1.822   0.987   9.160
 3385TIP3   OH234349   1.643   0.603   8.937
 3385TIP3    H134350   1.619   0.647   8.855
 3385TIP3    H234351   1.640   0.510   8.916
 3386TIP3   OH234352   1.607   0.823   9.559
 3386TIP3    H134353   1.604   0.746   9.501
 3386TIP3    H234354   1.560   0.795   9.638
 3387TIP3   OH234355   0.154   1.053   9.962
 3387TIP3    H134356   0.227   1.036   9.903
 3387TIP3    H234357   0.157   0.981  10.025
 3388TIP3   OH234358   1.645   0.338   8.866
 3388TIP3    H134359   1.694   0.295   8.937
 3388TIP3    H234360   1.566   0.285   8.857
 3389TIP3   OH234361   1.600   0.604   9.387
 3389TIP3    H134362   1.609   0.509   9.402
 3389TIP3    H234363   1.660   0.622   9.314
 3390TIP3   OH234364   1.676   0.559   9.848
 3390TIP3    H134365   1.760   0.605   9.851
 3390TIP3    H234366   1.614   0.625   9.817
 3391TIP3   OH234367   1.622   0.331   9.404
 3391TIP3    H134368   1.686   0.290   9.463
 3391TIP3    H234369   1.566   0.260   9.375
 3392TIP3   OH234370   0.149   0.328   9.912
 3392TIP3    H134371   0.220   0.265   9.896
 3392TIP3    H234372   0.194   0.408   9.939
 3393TIP3   OH234373   0.192   0.604   9.938
 3393TIP3    H134374   0.236   0.619   9.854
 3393TIP3    H234375   0.102   0.632   9.923
 3394TIP3   OH234376   1.816   0.223   9.049
 3394TIP3    H134377   1.882   0.186   8.990
 3394TIP3    H234378   1.865   0.289   9.100
 3395TIP3   OH234379   0.114   0.268   9.335
 3395TIP3    H134380   0.020   0.285   9.325
 3395TIP3    H234381   0.156   0.350   9.309
 3396TIP3   OH234382   1.584   1.719   9.607
 3396TIP3    H134383   1.638   1.729   9.529
 3396TIP3    H234384   1.635   1.663   9.666
 3397TIP3   OH234385   0.335   1.762   9.921
 3397TIP3    H134386   0.364   1.766  10.012
 3397TIP3    H234387   0.386   1.691   9.882
 3398TIP3   OH234388   0.473   1.554   9.780
 3398TIP3    H134389   0.458   1.465   9.813
 3398TIP3    H234390   0.548   1.585   9.831
 3399TIP3   OH234391   0.681   1.652   9.932
 3399TIP3    H134392   0.731   1.571   9.933
 3399TIP3    H234393   0.695   1.690  10.019
 3400TIP3   OH234394   1.003   0.253   9.868
 3400TIP3    H134395   0.935   0.185   9.863
 3400TIP3    H234396   1.082   0.210   9.834
 3401TIP3   OH234397   1.647   0.117   9.794
 3401TIP3    H134398   1.596   0.186   9.753
 3401TIP3    H234399   1.655   0.144   9.885
 3402TIP3   OH234400   1.807   0.205   9.568
 3402TIP3    H134401   1.765   0.157   9.639
 3402TIP3    H234402   1.862   0.270   9.612
 3403TIP3   OH234403   0.236   0.111   9.535
 3403TIP3    H134404   0.197   0.179   9.480
 3403TIP3    H234405   0.192   0.031   9.510
 3404TIP3   OH234406   0.233   0.059   9.190
 3404TIP3    H134407   0.273   0.109   9.118
 3404TIP3    H234408   0.187   0.125   9.242
 3405TIP3   OH234409   0.721   0.052   9.580
 3405TIP3    H134410   0.795   0.066   9.521
 3405TIP3    H234411   0.755   0.075   9.666
 3406TIP3   OH234412   1.240   0.165   9.752
 3406TIP3    H134413   1.259   0.212   9.671
 3406TIP3    H234414   1.279   0.218   9.821
 3407TIP3   OH234415   1.462   0.116   9.323
 3407TIP3    H134416   1.372   0.147   9.330
 3407TIP3    H234417   1.456   0.022   9.339
 3408TIP3   OH234418   0.133   1.744   9.121
 3408TIP3    H134419   0.042   1.742   9.091
 3408TIP3    H234420   0.144   1.831   9.159
 3409TIP3   OH234421   0.369   0.192   8.990
 3409TIP3    H134422   0.404   0.150   8.912
 3409TIP3    H234423   0.445   0.233   9.032
 3410TIP3   OH234424   0.798   0.266   9.247
 3410TIP3    H134425   0.839   0.197   9.299
 3410TIP3    H234426   0.810   0.345   9.299
 3411TIP3   OH234427   1.080   1.761   9.062
 3411TIP3    H134428   1.174   1.767   9.048
 3411TIP3    H234429   1.047   1.718   8.983
 3412TIP3   OH234430   1.753   1.728   9.381
 3412TIP3    H134431   1.726   1.643   9.346
 3412TIP3    H234432   1.732   1.790   9.311
 3413TIP3   OH234433   0.269   1.699   8.872
 3413TIP3    H134434   0.237   1.704   8.961
 3413TIP3    H234435   0.357   1.663   8.880
 3414TIP3   OH234436   3.139   1.048   9.556
 3414TIP3    H134437   3.111   1.140   9.551
 3414TIP3    H234438   3.075   1.001   9.503
 3415TIP3   OH234439   2.874   0.929   9.905
 3415TIP3    H134440   2.945   0.898   9.962
 3415TIP3    H234441   2.859   0.858   9.843
 3416TIP3   OH234442   3.506   1.227   9.801
 3416TIP3    H134443   3.444   1.155   9.786
 3416TIP3    H234444   3.478   1.266   9.884
 3417TIP3   OH234445   2.366   1.298   9.882
 3417TIP3    H134446   2.347   1.216   9.836
 3417TIP3    H234447   2.462   1.301   9.884
 3418TIP3   OH234448   1.972   0.700   9.379
 3418TIP3    H134449   1.939   0.782   9.415
 3418TIP3    H234450   1.909   0.677   9.310
 3419TIP3   OH234451   2.064   0.956   9.712
 3419TIP3    H134452   2.096   0.866   9.713
 3419TIP3    H234453   2.143   1.009   9.709
 3420TIP3   OH234454   3.008   1.736   9.792
 3420TIP3    H134455   2.993   1.671   9.723
 3420TIP3    H234456   2.993   1.688   9.873
 3421TIP3   OH234457   2.824   1.198   9.923
 3421TIP3    H134458   2.841   1.106   9.904
 3421TIP3    H234459   2.910   1.234   9.944
 3422TIP3   OH234460   3.160   0.646   9.893
 3422TIP3    H134461   3.163   0.558   9.930
 3422TIP3    H234462   3.117   0.634   9.808
 3423TIP3   OH234463   2.501   0.465   9.647
 3423TIP3    H134464   2.498   0.543   9.593
 3423TIP3    H234465   2.444   0.402   9.602
 3424TIP3   OH234466   3.282   0.474   9.539
 3424TIP3    H134467   3.320   0.439   9.620
 3424TIP3    H234468   3.356   0.510   9.491
 3425TIP3   OH234469   2.140   0.693   9.749
 3425TIP3    H134470   2.213   0.661   9.802
 3425TIP3    H234471   2.158   0.662   9.661
 3426TIP3   OH234472   2.641   0.817   9.654
 3426TIP3    H134473   2.712   0.762   9.686
 3426TIP3    H234474   2.591   0.760   9.596
 3427TIP3   OH234475   3.036   1.293   9.495
 3427TIP3    H134476   3.022   1.291   9.400
 3427TIP3    H234477   3.013   1.383   9.521
 3428TIP3   OH234478   3.365   0.398   9.790
 3428TIP3    H134479   3.295   0.384   9.854
 3428TIP3    H234480   3.424   0.460   9.832
 3429TIP3   OH234481   2.382   0.607   9.855
 3429TIP3    H134482   2.422   0.694   9.855
 3429TIP3    H234483   2.429   0.560   9.787
 3430TIP3   OH234484   2.027   1.299   9.292
 3430TIP3    H134485   2.028   1.329   9.201
 3430TIP3    H234486   2.036   1.378   9.344
 3431TIP3   OH234487   3.480   1.316   0.062
 3431TIP3    H134488   3.397   1.324   0.109
 3431TIP3    H234489   3.540   1.374   0.109
 3432TIP3   OH234490   2.743   0.091   9.822
 3432TIP3    H134491   2.743   0.004   9.863
 3432TIP3    H234492   2.655   0.126   9.841
 3433TIP3   OH234493   3.281   1.581   9.540
 3433TIP3    H134494   3.324   1.496   9.545
 3433TIP3    H234495   3.345   1.643   9.574
 3434TIP3   OH234496   3.436   1.362   9.564
 3434TIP3    H134497   3.465   1.313   9.486
 3434TIP3    H234498   3.473   1.314   9.638
 3435TIP3   OH234499   2.974   0.955   9.346
 3435TIP3    H134500   2.895   1.003   9.322
 3435TIP3    H234501   3.033   0.968   9.272
 3436TIP3   OH234502   3.000   0.795   9.025
 3436TIP3    H134503   3.071   0.840   9.071
 3436TIP3    H234504   3.043   0.727   8.974
 3437TIP3   OH234505   3.360   1.005   9.398
 3437TIP3    H134506   3.290   1.023   9.460
 3437TIP3    H234507   3.418   0.944   9.443
 3438TIP3   OH234508   2.489   1.016   9.524
 3438TIP3    H134509   2.460   0.974   9.442
 3438TIP3    H234510   2.553   0.956   9.560
 3439TIP3   OH234511   2.635   1.385   9.849
 3439TIP3    H134512   2.637   1.397   9.755
 3439TIP3    H234513   2.707   1.324   9.867
 3440TIP3   OH234514   2.490   0.862   9.877
 3440TIP3    H134515   2.551   0.856   9.804
 3440TIP3    H234516   2.518   0.939   9.926
 3441TIP3   OH234517   3.215   0.916   9.178
 3441TIP3    H134518   3.262   0.956   9.252
 3441TIP3    H234519   3.271   0.932   9.102
 3442TIP3   OH234520   3.009   1.570   9.564
 3442TIP3    H134521   3.104   1.568   9.558
 3442TIP3    H234522   2.982   1.630   9.495
 3443TIP3   OH234523   3.489   0.073   9.128
 3443TIP3    H134524   3.449   0.119   9.201
 3443TIP3    H234525   3.560   0.131   9.100
 3444TIP3   OH234526   2.394   0.915   9.278
 3444TIP3    H134527   2.322   0.975   9.259
 3444TIP3    H234528   2.357   0.828   9.261
 3445TIP3   OH234529   3.702   1.508   9.025
 3445TIP3    H134530   3.716   1.602   9.016
 3445TIP3    H234531   3.790   1.471   9.028
 3446TIP3   OH234532   1.824   1.523   9.834
 3446TIP3    H134533   1.850   1.439   9.870
 3446TIP3    H234534   1.736   1.538   9.869
 3447TIP3   OH234535   2.971   1.773   9.376
 3447TIP3    H134536   2.947   1.774   9.283
 3447TIP3    H234537   2.931   1.852   9.412
 3448TIP3   OH234538   2.250   1.675   9.548
 3448TIP3    H134539   2.259   1.630   9.632
 3448TIP3    H234540   2.180   1.627   9.503
 3449TIP3   OH234541   3.225   1.761   9.049
 3449TIP3    H134542   3.271   1.686   9.012
 3449TIP3    H234543   3.249   1.761   9.142
 3450TIP3   OH234544   3.241   1.752   9.325
 3450TIP3    H134545   3.149   1.761   9.348
 3450TIP3    H234546   3.273   1.681   9.382
 3451TIP3   OH234547   2.490   0.187   9.886
 3451TIP3    H134548   2.406   0.202   9.841
 3451TIP3    H234549   2.493   0.254   9.954
 3452TIP3   OH234550   3.379   0.958   8.968
 3452TIP3    H134551   3.310   0.972   8.903
 3452TIP3    H234552   3.460   0.979   8.922
 3453TIP3   OH234553   2.876   0.459   9.004
 3453TIP3    H134554   2.803   0.412   9.045
 3453TIP3    H234555   2.845   0.479   8.916
 3454TIP3   OH234556   2.456   0.687   9.499
 3454TIP3    H134557   2.362   0.674   9.503
 3454TIP3    H234558   2.478   0.674   9.407
 3455TIP3   OH234559   2.987   0.687   9.397
 3455TIP3    H134560   2.973   0.781   9.383
 3455TIP3    H234561   3.066   0.667   9.346
 3456TIP3   OH234562   3.054   0.592   9.645
 3456TIP3    H134563   3.019   0.631   9.564
 3456TIP3    H234564   3.129   0.541   9.616
 3457TIP3   OH234565   2.582   0.402   8.902
 3457TIP3    H134566   2.558   0.486   8.939
 3457TIP3    H234567   2.513   0.384   8.838
 3458TIP3   OH234568   1.963   0.388   9.696
 3458TIP3    H134569   1.983   0.376   9.788
 3458TIP3    H234570   1.996   0.475   9.675
 3459TIP3   OH234571   1.944   0.431   9.181
 3459TIP3    H134572   2.019   0.475   9.142
 3459TIP3    H234573   1.877   0.499   9.187
 3460TIP3   OH234574   2.769   0.403   9.612
 3460TIP3    H134575   2.677   0.414   9.639
 3460TIP3    H234576   2.816   0.386   9.693
 3461TIP3   OH234577   2.195   0.600   9.502
 3461TIP3    H134578   2.120   0.623   9.447
 3461TIP3    H234579   2.220   0.512   9.472
 3462TIP3   OH234580   2.518   0.623   9.241
 3462TIP3    H134581   2.608   0.604   9.269
 3462TIP3    H234582   2.526   0.643   9.148
 3463TIP3   OH234583   3.161   0.384   9.979
 3463TIP3    H134584   3.154   0.372  10.073
 3463TIP3    H234585   3.082   0.342   9.943
 3464TIP3   OH234586   2.527   0.666   8.970
 3464TIP3    H134587   2.462   0.700   8.909
 3464TIP3    H234588   2.603   0.723   8.958
 3465TIP3   OH234589   2.835   0.671   9.797
 3465TIP3    H134590   2.905   0.635   9.742
 3465TIP3    H234591   2.837   0.617   9.876
 3466TIP3   OH234592   2.330   0.358   9.453
 3466TIP3    H134593   2.284   0.277   9.475
 3466TIP3    H234594   2.359   0.346   9.363
 3467TIP3   OH234595   2.750   1.106   9.259
 3467TIP3    H134596   2.688   1.084   9.189
 3467TIP3    H234597   2.698   1.157   9.321
 3468TIP3   OH234598   3.096   0.425   9.163
 3468TIP3    H134599   3.019   0.443   9.110
 3468TIP3    H234600   3.131   0.512   9.184
 3469TIP3   OH234601   3.225   0.651   9.258
 3469TIP3    H134602   3.314   0.631   9.288
 3469TIP3    H234603   3.232   0.740   9.224
 3470TIP3   OH234604   2.325   1.054   9.743
 3470TIP3    H134605   2.375   1.054   9.661
 3470TIP3    H234606   2.367   0.988   9.797
 3471TIP3   OH234607   2.976   1.252   9.214
 3471TIP3    H134608   2.946   1.342   9.207
 3471TIP3    H234609   2.896   1.201   9.227
 3472TIP3   OH234610   3.649   0.675   9.144
 3472TIP3    H134611   3.601   0.647   9.066
 3472TIP3    H234612   3.677   0.764   9.124
 3473TIP3   OH234613   3.563   1.525   9.267
 3473TIP3    H134614   3.531   1.438   9.292
 3473TIP3    H234615   3.604   1.512   9.182
 3474TIP3   OH234616   3.318   1.023   9.770
 3474TIP3    H134617   3.250   1.036   9.704
 3474TIP3    H234618   3.344   0.932   9.760
 3475TIP3   OH234619   2.539   1.468   9.595
 3475TIP3    H134620   2.552   1.547   9.542
 3475TIP3    H234621   2.461   1.486   9.647
 3476TIP3   OH234622   2.104   0.871   9.067
 3476TIP3    H134623   2.139   0.946   9.114
 3476TIP3    H234624   2.009   0.877   9.080
 3477TIP3   OH234625   2.582   1.256   9.422
 3477TIP3    H134626   2.574   1.326   9.486
 3477TIP3    H234627   2.543   1.179   9.465
 3478TIP3   OH234628   2.508   1.711   9.457
 3478TIP3    H134629   2.415   1.707   9.479
 3478TIP3    H234630   2.534   1.800   9.481
 3479TIP3   OH234631   3.382   1.317   9.074
 3479TIP3    H134632   3.407   1.288   9.161
 3479TIP3    H234633   3.300   1.272   9.056
 3480TIP3   OH234634   3.734   1.782   9.024
 3480TIP3    H134635   3.752   1.835   8.947
 3480TIP3    H234636   3.669   1.831   9.073
 3481TIP3   OH234637   3.493   1.233   9.317
 3481TIP3    H134638   3.440   1.157   9.340
 3481TIP3    H234639   3.580   1.197   9.299
 3482TIP3   OH234640   2.681   1.417   8.937
 3482TIP3    H134641   2.695   1.337   8.885
 3482TIP3    H234642   2.644   1.386   9.019
 3483TIP3   OH234643   2.550   1.378   9.177
 3483TIP3    H134644   2.561   1.333   9.261
 3483TIP3    H234645   2.573   1.469   9.196
 3484TIP3   OH234646   2.199   1.095   9.201
 3484TIP3    H134647   2.138   1.148   9.252
 3484TIP3    H234648   2.245   1.158   9.146
 3485TIP3   OH234649   3.122   0.298   9.403
 3485TIP3    H134650   3.109   0.334   9.315
 3485TIP3    H234651   3.171   0.366   9.449
 3486TIP3   OH234652   2.879   1.505   9.213
 3486TIP3    H134653   2.789   1.537   9.225
 3486TIP3    H234654   2.927   1.580   9.180
 3487TIP3   OH234655   2.754   0.544   9.369
 3487TIP3    H134656   2.833   0.598   9.367
 3487TIP3    H234657   2.757   0.500   9.454
 3488TIP3   OH234658   2.853   0.223   9.419
 3488TIP3    H134659   2.825   0.287   9.485
 3488TIP3    H234660   2.947   0.240   9.408
 3489TIP3   OH234661   2.634   1.636   9.227
 3489TIP3    H134662   2.636   1.715   9.173
 3489TIP3    H234663   2.590   1.663   9.307
 3490TIP3   OH234664   2.428   0.363   9.192
 3490TIP3    H134665   2.435   0.457   9.204
 3490TIP3    H234666   2.518   0.333   9.183
 3491TIP3   OH234667   3.386   0.753   9.772
 3491TIP3    H134668   3.302   0.726   9.810
 3491TIP3    H234669   3.451   0.701   9.820
 3492TIP3   OH234670   2.322   1.294   9.051
 3492TIP3    H134671   2.396   1.331   9.098
 3492TIP3    H234672   2.360   1.255   8.972
 3493TIP3   OH234673   2.127   0.592   9.053
 3493TIP3    H134674   2.125   0.687   9.061
 3493TIP3    H234675   2.155   0.576   8.963
 3494TIP3   OH234676   3.495   1.717   9.994
 3494TIP3    H134677   3.485   1.800   9.949
 3494TIP3    H234678   3.565   1.731  10.057
 3495TIP3   OH234679   2.233   0.200   9.790
 3495TIP3    H134680   2.214   0.207   9.697
 3495TIP3    H234681   2.206   0.112   9.814
 3496TIP3   OH234682   2.040   1.564   9.395
 3496TIP3    H134683   1.954   1.595   9.424
 3496TIP3    H234684   2.055   1.609   9.312
 3497TIP3   OH234685   2.886   1.592   8.894
 3497TIP3    H134686   2.813   1.533   8.912
 3497TIP3    H234687   2.960   1.534   8.878
 3498TIP3   OH234688   3.348   1.549   8.931
 3498TIP3    H134689   3.374   1.476   8.987
 3498TIP3    H234690   3.416   1.552   8.863
 3499TIP3   OH234691   2.455   1.154   8.854
 3499TIP3    H134692   2.476   1.096   8.928
 3499TIP3    H234693   2.540   1.175   8.816
 3500TIP3   OH234694   3.143   1.208   8.998
 3500TIP3    H134695   3.081   1.204   9.071
 3500TIP3    H234696   3.128   1.127   8.949
 3501TIP3   OH234697   2.558   1.014   9.074
 3501TIP3    H134698   2.508   0.969   9.143
 3501TIP3    H234699   2.616   0.947   9.039
 3502TIP3   OH234700   2.736   0.841   8.953
 3502TIP3    H134701   2.752   0.880   8.867
 3502TIP3    H234702   2.823   0.821   8.987
 3503TIP3   OH234703   3.623   1.041   8.845
 3503TIP3    H134704   3.613   1.021   8.752
 3503TIP3    H234705   3.606   1.135   8.851
 3504TIP3   OH234706   2.703   1.877   9.092
 3504TIP3    H134707   2.789   1.838   9.103
 3504TIP3    H234708   2.710   1.931   9.014
 3505TIP3   OH234709   2.058   1.360   9.022
 3505TIP3    H134710   2.153   1.358   9.034
 3505TIP3    H234711   2.041   1.297   8.952
 3506TIP3   OH234712   1.909   1.913   9.532
 3506TIP3    H134713   1.862   1.861   9.467
 3506TIP3    H234714   1.926   1.852   9.604
 3507TIP3   OH234715   1.961   1.731   9.722
 3507TIP3    H134716   1.914   1.655   9.756
 3507TIP3    H234717   2.032   1.745   9.784
 3508TIP3   OH234718   3.737   1.109   9.288
 3508TIP3    H134719   3.803   1.178   9.296
 3508TIP3    H234720   3.757   1.049   9.361
 3509TIP3   OH234721   3.774   0.926   9.494
 3509TIP3    H134722   3.689   0.897   9.526
 3509TIP3    H234723   3.825   0.941   9.574
 3510TIP3   OH234724   3.754   1.293   9.918
 3510TIP3    H134725   3.798   1.208   9.916
 3510TIP3    H234726   3.675   1.279   9.865
 3511TIP3   OH234727   3.737   0.930   9.076
 3511TIP3    H134728   3.692   0.964   8.999
 3511TIP3    H234729   3.727   0.998   9.142
 3512TIP3   OH234730   3.531   0.597   8.908
 3512TIP3    H134731   3.510   0.634   8.822
 3512TIP3    H234732   3.527   0.502   8.894
 3513TIP3   OH234733   3.513   0.812   9.532
 3513TIP3    H134734   3.510   0.731   9.480
 3513TIP3    H234735   3.470   0.789   9.614
 3514TIP3   OH234736   1.926   1.000   9.942
 3514TIP3    H134737   1.976   0.996   9.860
 3514TIP3    H234738   1.987   0.967  10.008
 3515TIP3   OH234739   3.508   0.328   8.849
 3515TIP3    H134740   3.560   0.283   8.915
 3515TIP3    H234741   3.419   0.327   8.885
 3516TIP3   OH234742   3.494   0.580   9.364
 3516TIP3    H134743   3.529   0.492   9.380
 3516TIP3    H234744   3.545   0.613   9.290
 3517TIP3   OH234745   3.548   0.581   9.916
 3517TIP3    H134746   3.631   0.627   9.905
 3517TIP3    H234747   3.572   0.494   9.949
 3518TIP3   OH234748   3.572   0.317   9.421
 3518TIP3    H134749   3.607   0.283   9.504
 3518TIP3    H234750   3.500   0.258   9.400
 3519TIP3   OH234751   2.063   0.353   9.954
 3519TIP3    H134752   2.138   0.310   9.913
 3519TIP3    H234753   2.102   0.428  10.000
 3520TIP3   OH234754   1.901   0.713   9.882
 3520TIP3    H134755   1.980   0.710   9.828
 3520TIP3    H234756   1.885   0.806   9.896
 3521TIP3   OH234757   3.692   0.230   9.026
 3521TIP3    H134758   3.754   0.186   8.967
 3521TIP3    H234759   3.741   0.303   9.062
 3522TIP3   OH234760   1.987   0.214   9.350
 3522TIP3    H134761   1.915   0.206   9.413
 3522TIP3    H234762   1.968   0.295   9.302
 3523TIP3   OH234763   3.464   1.772   9.610
 3523TIP3    H134764   3.506   1.785   9.526
 3523TIP3    H234765   3.535   1.749   9.670
 3524TIP3   OH234766   2.170   1.757   9.901
 3524TIP3    H134767   2.136   1.737   9.989
 3524TIP3    H234768   2.222   1.680   9.878
 3525TIP3   OH234769   2.335   1.556   9.791
 3525TIP3    H134770   2.329   1.467   9.825
 3525TIP3    H234771   2.413   1.593   9.832
 3526TIP3   OH234772   2.565   1.646   9.911
 3526TIP3    H134773   2.604   1.559   9.907
 3526TIP3    H234774   2.591   1.679   9.998
 3527TIP3   OH234775   2.911   0.304   9.849
 3527TIP3    H134776   2.852   0.228   9.851
 3527TIP3    H234777   2.979   0.280   9.786
 3528TIP3   OH234778   3.493   0.149   9.823
 3528TIP3    H134779   3.565   0.158   9.761
 3528TIP3    H234780   3.432   0.219   9.799
 3529TIP3   OH234781   3.698   0.215   9.647
 3529TIP3    H134782   3.771   0.154   9.640
 3529TIP3    H234783   3.735   0.292   9.689
 3530TIP3   OH234784   2.188   0.137   9.522
 3530TIP3    H134785   2.115   0.156   9.463
 3530TIP3    H234786   2.195   0.041   9.521
 3531TIP3   OH234787   2.117   0.075   9.142
 3531TIP3    H134788   2.156   0.141   9.085
 3531TIP3    H234789   2.073   0.126   9.210
 3532TIP3   OH234790   2.793  -0.008   9.557
 3532TIP3    H134791   2.809   0.066   9.498
 3532TIP3    H234792   2.795   0.030   9.645
 3533TIP3   OH234793   3.088   0.203   9.673
 3533TIP3    H134794   3.107   0.217   9.580
 3533TIP3    H234795   3.118   0.114   9.690
 3534TIP3   OH234796   3.358   0.153   9.363
 3534TIP3    H134797   3.275   0.200   9.367
 3534TIP3    H234798   3.336   0.063   9.389
 3535TIP3   OH234799   2.063   1.707   9.161
 3535TIP3    H134800   1.983   1.713   9.109
 3535TIP3    H234801   2.082   1.797   9.185
 3536TIP3   OH234802   2.266   0.270   8.985
 3536TIP3    H134803   2.329   0.221   8.932
 3536TIP3    H234804   2.317   0.302   9.059
 3537TIP3   OH234805   2.706   0.332   9.199
 3537TIP3    H134806   2.748   0.260   9.246
 3537TIP3    H234807   2.724   0.410   9.251
 3538TIP3   OH234808   2.953   1.758   9.096
 3538TIP3    H134809   3.046   1.775   9.080
 3538TIP3    H234810   2.924   1.707   9.021
 3539TIP3   OH234811   3.599   1.779   9.369
 3539TIP3    H134812   3.590   1.689   9.338
 3539TIP3    H234813   3.591   1.833   9.290
 3540TIP3   OH234814   2.226   1.705   8.927
 3540TIP3    H134815   2.188   1.685   9.013
 3540TIP3    H234816   2.304   1.649   8.923
 3541TIP3   OH234817   5.027   1.030   9.538
 3541TIP3    H134818   5.004   1.122   9.525
 3541TIP3    H234819   4.959   0.982   9.491
 3542TIP3   OH234820   4.749   0.940   9.923
 3542TIP3    H134821   4.826   0.913   9.973
 3542TIP3    H234822   4.743   0.875   9.853
 3543TIP3   OH234823   5.374   1.209   9.783
 3543TIP3    H134824   5.307   1.141   9.780
 3543TIP3    H234825   5.355   1.258   9.863
 3544TIP3   OH234826   4.234   1.338   9.894
 3544TIP3    H134827   4.214   1.260   9.842
 3544TIP3    H234828   4.330   1.345   9.891
 3545TIP3   OH234829   3.859   0.702   9.350
 3545TIP3    H134830   3.834   0.784   9.392
 3545TIP3    H234831   3.794   0.689   9.281
 3546TIP3   OH234832   3.970   0.945   9.716
 3546TIP3    H134833   4.001   0.855   9.716
 3546TIP3    H234834   4.049   0.998   9.718
 3547TIP3   OH234835   4.953   1.712   9.797
 3547TIP3    H134836   5.004   1.644   9.754
 3547TIP3    H234837   4.919   1.670   9.876
 3548TIP3   OH234838   4.638   1.185   9.967
 3548TIP3    H134839   4.684   1.106   9.938
 3548TIP3    H234840   4.680   1.207  10.051
 3549TIP3   OH234841   5.041   0.653   9.905
 3549TIP3    H134842   5.047   0.564   9.940
 3549TIP3    H234843   5.005   0.642   9.817
 3550TIP3   OH234844   4.381   0.437   9.668
 3550TIP3    H134845   4.379   0.519   9.618
 3550TIP3    H234846   4.328   0.376   9.617
 3551TIP3   OH234847   5.173   0.484   9.523
 3551TIP3    H134848   5.210   0.467   9.610
 3551TIP3    H234849   5.247   0.519   9.473
 3552TIP3   OH234850   4.000   0.664   9.751
 3552TIP3    H134851   4.069   0.623   9.803
 3552TIP3    H234852   4.024   0.644   9.660
 3553TIP3   OH234853   4.503   0.824   9.673
 3553TIP3    H134854   4.588   0.786   9.691
 3553TIP3    H234855   4.460   0.761   9.615
 3554TIP3   OH234856   4.931   1.266   9.446
 3554TIP3    H134857   4.908   1.264   9.353
 3554TIP3    H234858   4.907   1.354   9.475
 3555TIP3   OH234859   5.236   0.449   9.782
 3555TIP3    H134860   5.179   0.416   9.852
 3555TIP3    H234861   5.308   0.492   9.829
 3556TIP3   OH234862   4.226   0.545   9.874
 3556TIP3    H134863   4.267   0.630   9.887
 3556TIP3    H234864   4.280   0.501   9.808
 3557TIP3   OH234865   3.927   1.309   9.296
 3557TIP3    H134866   3.923   1.343   9.206
 3557TIP3    H234867   3.943   1.387   9.350
 3558TIP3   OH234868   5.393   1.319   0.043
 3558TIP3    H134869   5.311   1.322   0.092
 3558TIP3    H234870   5.446   1.389   0.081
 3559TIP3   OH234871   4.633   0.074   9.879
 3559TIP3    H134872   4.640  -0.010   9.925
 3559TIP3    H234873   4.540   0.096   9.884
 3560TIP3   OH234874   5.123   1.560   9.635
 3560TIP3    H134875   5.164   1.475   9.615
 3560TIP3    H234876   5.188   1.625   9.607
 3561TIP3   OH234877   5.282   1.350   9.560
 3561TIP3    H134878   5.315   1.316   9.476
 3561TIP3    H234879   5.328   1.299   9.626
 3562TIP3   OH234880   4.846   0.963   9.321
 3562TIP3    H134881   4.761   1.004   9.311
 3562TIP3    H234882   4.903   1.009   9.260
 3563TIP3   OH234883   4.923   0.843   8.945
 3563TIP3    H134884   4.979   0.863   9.020
 3563TIP3    H234885   4.968   0.771   8.901
 3564TIP3   OH234886   5.246   1.000   9.370
 3564TIP3    H134887   5.174   1.012   9.432
 3564TIP3    H234888   5.307   0.942   9.415
 3565TIP3   OH234889   4.368   1.027   9.536
 3565TIP3    H134890   4.344   0.985   9.454
 3565TIP3    H234891   4.426   0.964   9.579
 3566TIP3   OH234892   4.502   1.401   9.863
 3566TIP3    H134893   4.516   1.409   9.769
 3566TIP3    H234894   4.562   1.332   9.891
 3567TIP3   OH234895   4.357   0.787   9.903
 3567TIP3    H134896   4.408   0.796   9.822
 3567TIP3    H234897   4.352   0.876   9.938
 3568TIP3   OH234898   5.122   0.903   9.137
 3568TIP3    H134899   5.165   0.947   9.210
 3568TIP3    H234900   5.171   0.933   9.060
 3569TIP3   OH234901   4.879   1.527   9.510
 3569TIP3    H134902   4.960   1.541   9.560
 3569TIP3    H234903   4.867   1.608   9.461
 3570TIP3   OH234904   5.347   0.081   9.111
 3570TIP3    H134905   5.319   0.111   9.198
 3570TIP3    H234906   5.428   0.128   9.094
 3571TIP3   OH234907   4.286   0.923   9.287
 3571TIP3    H134908   4.220   0.988   9.263
 3571TIP3    H234909   4.245   0.839   9.268
 3572TIP3   OH234910   5.608   1.509   9.003
 3572TIP3    H134911   5.613   1.605   8.998
 3572TIP3    H234912   5.700   1.482   9.006
 3573TIP3   OH234913   3.694   1.564   9.851
 3573TIP3    H134914   3.714   1.475   9.881
 3573TIP3    H234915   3.614   1.588   9.898
 3574TIP3   OH234916   4.889   1.771   9.372
 3574TIP3    H134917   4.859   1.779   9.282
 3574TIP3    H234918   4.858   1.851   9.414
 3575TIP3   OH234919   4.162   1.720   9.547
 3575TIP3    H134920   4.178   1.676   9.631
 3575TIP3    H234921   4.106   1.659   9.498
 3576TIP3   OH234922   5.133   1.778   9.036
 3576TIP3    H134923   5.184   1.706   9.000
 3576TIP3    H234924   5.153   1.778   9.130
 3577TIP3   OH234925   5.159   1.763   9.314
 3577TIP3    H134926   5.068   1.752   9.342
 3577TIP3    H234927   5.211   1.734   9.389
 3578TIP3   OH234928   4.361   0.135   9.893
 3578TIP3    H134929   4.289   0.152   9.832
 3578TIP3    H234930   4.353   0.203   9.960
 3579TIP3   OH234931   5.255   0.979   8.911
 3579TIP3    H134932   5.224   0.996   8.822
 3579TIP3    H234933   5.350   0.990   8.905
 3580TIP3   OH234934   4.756   0.342   9.093
 3580TIP3    H134935   4.688   0.335   9.161
 3580TIP3    H234936   4.732   0.276   9.028
 3581TIP3   OH234937   4.338   0.666   9.525
 3581TIP3    H134938   4.243   0.661   9.520
 3581TIP3    H234939   4.368   0.653   9.435
 3582TIP3   OH234940   4.881   0.703   9.395
 3582TIP3    H134941   4.861   0.793   9.368
 3582TIP3    H234942   4.955   0.677   9.339
 3583TIP3   OH234943   4.965   0.624   9.642
 3583TIP3    H134944   4.932   0.664   9.561
 3583TIP3    H234945   5.036   0.566   9.613
 3584TIP3   OH234946   4.451   0.387   8.944
 3584TIP3    H134947   4.413   0.374   9.031
 3584TIP3    H234948   4.391   0.447   8.900
 3585TIP3   OH234949   3.812   0.430   9.770
 3585TIP3    H134950   3.873   0.399   9.837
 3585TIP3    H234951   3.848   0.515   9.742
 3586TIP3   OH234952   3.822   0.452   9.127
 3586TIP3    H134953   3.899   0.494   9.090
 3586TIP3    H234954   3.758   0.523   9.136
 3587TIP3   OH234955   4.664   0.411   9.670
 3587TIP3    H134956   4.570   0.406   9.687
 3587TIP3    H234957   4.705   0.372   9.748
 3588TIP3   OH234958   4.072   0.606   9.496
 3588TIP3    H134959   4.001   0.629   9.436
 3588TIP3    H234960   4.099   0.518   9.469
 3589TIP3   OH234961   4.425   0.614   9.274
 3589TIP3    H134962   4.515   0.605   9.306
 3589TIP3    H234963   4.434   0.653   9.187
 3590TIP3   OH234964   5.056   0.389  -0.015
 3590TIP3    H134965   5.056   0.376   0.079
 3590TIP3    H234966   4.977   0.344  -0.045
 3591TIP3   OH234967   4.434   0.703   9.019
 3591TIP3    H134968   4.392   0.665   8.942
 3591TIP3    H234969   4.510   0.749   8.984
 3592TIP3   OH234970   4.734   0.705   9.771
 3592TIP3    H134971   4.812   0.680   9.722
 3592TIP3    H234972   4.719   0.633   9.832
 3593TIP3   OH234973   4.201   0.362   9.453
 3593TIP3    H134974   4.143   0.287   9.465
 3593TIP3    H234975   4.239   0.348   9.366
 3594TIP3   OH234976   4.618   1.110   9.250
 3594TIP3    H134977   4.555   1.090   9.181
 3594TIP3    H234978   4.569   1.164   9.312
 3595TIP3   OH234979   5.010   0.393   9.170
 3595TIP3    H134980   4.918   0.388   9.145
 3595TIP3    H234981   5.025   0.487   9.186
 3596TIP3   OH234982   5.102   0.647   9.239
 3596TIP3    H134983   5.191   0.625   9.267
 3596TIP3    H234984   5.112   0.732   9.195
 3597TIP3   OH234985   4.212   1.085   9.760
 3597TIP3    H134986   4.264   1.074   9.680
 3597TIP3    H234987   4.273   1.065   9.831
 3598TIP3   OH234988   4.846   1.241   9.178
 3598TIP3    H134989   4.823   1.334   9.176
 3598TIP3    H234990   4.764   1.196   9.195
 3599TIP3   OH234991   5.539   0.664   9.141
 3599TIP3    H134992   5.493   0.640   9.060
 3599TIP3    H234993   5.563   0.756   9.129
 3600TIP3   OH234994   5.489   1.501   9.259
 3600TIP3    H134995   5.437   1.423   9.276
 3600TIP3    H234996   5.518   1.491   9.168
 3601TIP3   OH234997   5.180   1.011   9.772
 3601TIP3    H134998   5.118   1.025   9.701
 3601TIP3    H234999   5.215   0.923   9.756
 3602TIP3   OH235000   4.426   1.466   9.598
 3602TIP3    H135001   4.453   1.543   9.548
 3602TIP3    H235002   4.347   1.493   9.644
 3603TIP3   OH235003   4.012   0.890   9.048
 3603TIP3    H135004   4.046   0.965   9.097
 3603TIP3    H235005   3.917   0.899   9.054
 3604TIP3   OH235006   4.454   1.262   9.412
 3604TIP3    H135007   4.453   1.333   9.476
 3604TIP3    H235008   4.418   1.187   9.459
 3605TIP3   OH235009   4.431   1.710   9.471
 3605TIP3    H135010   4.340   1.736   9.487
 3605TIP3    H235011   4.483   1.783   9.505
 3606TIP3   OH235012   5.275   1.328   9.051
 3606TIP3    H135013   5.292   1.300   9.141
 3606TIP3    H235014   5.189   1.291   9.030
 3607TIP3   OH235015   5.616   1.785   9.008
 3607TIP3    H135016   5.615   1.851   8.939
 3607TIP3    H235017   5.560   1.820   9.077
 3608TIP3   OH235018   5.367   1.239   9.302
 3608TIP3    H135019   5.312   1.163   9.321
 3608TIP3    H235020   5.456   1.204   9.298
 3609TIP3   OH235021   4.568   1.412   8.907
 3609TIP3    H135022   4.569   1.332   8.855
 3609TIP3    H235023   4.533   1.385   8.992
 3610TIP3   OH235024   4.446   1.390   9.162
 3610TIP3    H135025   4.450   1.346   9.247
 3610TIP3    H235026   4.473   1.480   9.180
 3611TIP3   OH235027   4.099   1.108   9.200
 3611TIP3    H135028   4.039   1.160   9.254
 3611TIP3    H235029   4.145   1.173   9.146
 3612TIP3   OH235030   5.020   0.284   9.424
 3612TIP3    H135031   5.010   0.306   9.331
 3612TIP3    H235032   5.068   0.358   9.461
 3613TIP3   OH235033   4.773   1.501   9.186
 3613TIP3    H135034   4.687   1.535   9.209
 3613TIP3    H235035   4.826   1.578   9.165
 3614TIP3   OH235036   4.654   0.550   9.426
 3614TIP3    H135037   4.733   0.604   9.413
 3614TIP3    H235038   4.663   0.517   9.515
 3615TIP3   OH235039   4.758   0.216   9.492
 3615TIP3    H135040   4.739   0.289   9.552
 3615TIP3    H235041   4.849   0.231   9.466
 3616TIP3   OH235042   4.538   1.641   9.230
 3616TIP3    H135043   4.555   1.727   9.192
 3616TIP3    H235044   4.500   1.661   9.316
 3617TIP3   OH235045   4.331   0.365   9.200
 3617TIP3    H135046   4.343   0.458   9.221
 3617TIP3    H235047   4.410   0.323   9.233
 3618TIP3   OH235048   5.274   0.752   9.746
 3618TIP3    H135049   5.190   0.715   9.773
 3618TIP3    H235050   5.338   0.710   9.803
 3619TIP3   OH235051   4.206   1.315   9.049
 3619TIP3    H135052   4.281   1.355   9.092
 3619TIP3    H235053   4.241   1.274   8.970
 3620TIP3   OH235054   4.008   0.613   9.010
 3620TIP3    H135055   4.014   0.704   9.042
 3620TIP3    H235056   4.019   0.621   8.915
 3621TIP3   OH235057   5.384   1.693   9.939
 3621TIP3    H135058   5.356   1.761   9.878
 3621TIP3    H235059   5.445   1.737   9.997
 3622TIP3   OH235060   4.124   0.181   9.753
 3622TIP3    H135061   4.100   0.194   9.661
 3622TIP3    H235062   4.087   0.095   9.775
 3623TIP3   OH235063   3.961   1.560   9.426
 3623TIP3    H135064   3.908   1.594   9.498
 3623TIP3    H235065   3.946   1.621   9.354
 3624TIP3   OH235066   4.774   1.596   8.884
 3624TIP3    H135067   4.706   1.531   8.900
 3624TIP3    H235068   4.852   1.545   8.861
 3625TIP3   OH235069   5.264   1.570   8.918
 3625TIP3    H135070   5.284   1.492   8.970
 3625TIP3    H235071   5.333   1.572   8.851
 3626TIP3   OH235072   4.318   1.165   8.852
 3626TIP3    H135073   4.346   1.107   8.922
 3626TIP3    H235074   4.396   1.178   8.798
 3627TIP3   OH235075   5.026   1.240   8.973
 3627TIP3    H135076   4.964   1.234   9.045
 3627TIP3    H235077   4.995   1.178   8.907
 3628TIP3   OH235078   4.435   1.016   9.059
 3628TIP3    H135079   4.393   0.965   9.128
 3628TIP3    H235080   4.502   0.958   9.022
 3629TIP3   OH235081   4.639   0.866   8.938
 3629TIP3    H135082   4.633   0.898   8.848
 3629TIP3    H235083   4.733   0.857   8.953
 3630TIP3   OH235084   5.540   1.050   8.876
 3630TIP3    H135085   5.513   1.018   8.790
 3630TIP3    H235086   5.515   1.142   8.876
 3631TIP3   OH235087   4.631   1.893   9.139
 3631TIP3    H135088   4.715   1.853   9.121
 3631TIP3    H235089   4.605   1.934   9.057
 3632TIP3   OH235090   3.938   1.366   9.021
 3632TIP3    H135091   4.033   1.363   9.026
 3632TIP3    H235092   3.916   1.310   8.946
 3633TIP3   OH235093   3.791   1.902   9.532
 3633TIP3    H135094   3.736   1.871   9.459
 3633TIP3    H235095   3.817   1.822   9.578
 3634TIP3   OH235096   3.861   1.677   9.667
 3634TIP3    H135097   3.800   1.629   9.723
 3634TIP3    H235098   3.924   1.715   9.729
 3635TIP3   OH235099   5.618   1.128   9.300
 3635TIP3    H135100   5.682   1.198   9.302
 3635TIP3    H235101   5.643   1.069   9.371
 3636TIP3   OH235102   5.668   0.933   9.491
 3636TIP3    H135103   5.581   0.901   9.516
 3636TIP3    H235104   5.716   0.940   9.573
 3637TIP3   OH235105   5.656   1.296   9.937
 3637TIP3    H135106   5.680   1.208   9.909
 3637TIP3    H235107   5.560   1.294   9.939
 3638TIP3   OH235108   5.616   0.926   9.111
 3638TIP3    H135109   5.588   0.964   9.027
 3638TIP3    H235110   5.605   0.997   9.174
 3639TIP3   OH235111   5.411   0.603   8.905
 3639TIP3    H135112   5.377   0.643   8.825
 3639TIP3    H235113   5.402   0.509   8.891
 3640TIP3   OH235114   5.408   0.814   9.510
 3640TIP3    H135115   5.403   0.732   9.461
 3640TIP3    H235116   5.362   0.796   9.592
 3641TIP3   OH235117   3.826   1.023   9.933
 3641TIP3    H135118   3.880   1.006   9.856
 3641TIP3    H235119   3.880   0.993  10.007
 3642TIP3   OH235120   5.391   0.334   8.854
 3642TIP3    H135121   5.449   0.294   8.919
 3642TIP3    H235122   5.315   0.276   8.852
 3643TIP3   OH235123   5.384   0.574   9.355
 3643TIP3    H135124   5.417   0.486   9.373
 3643TIP3    H235125   5.434   0.605   9.280
 3644TIP3   OH235126   5.435   0.602   9.915
 3644TIP3    H135127   5.523   0.640   9.915
 3644TIP3    H235128   5.446   0.516   9.955
 3645TIP3   OH235129   5.457   0.312   9.424
 3645TIP3    H135130   5.474   0.297   9.517
 3645TIP3    H235131   5.388   0.249   9.401
 3646TIP3   OH235132   4.016   0.354   9.938
 3646TIP3    H135133   4.056   0.289   9.880
 3646TIP3    H235134   4.082   0.423   9.946
 3647TIP3   OH235135   3.776   0.734   9.895
 3647TIP3    H135136   3.851   0.719   9.837
 3647TIP3    H235137   3.768   0.830   9.899
 3648TIP3   OH235138   5.571   0.221   9.030
 3648TIP3    H135139   5.631   0.180   8.968
 3648TIP3    H235140   5.622   0.290   9.071
 3649TIP3   OH235141   3.832   0.252   9.316
 3649TIP3    H135142   3.743   0.262   9.350
 3649TIP3    H235143   3.843   0.325   9.255
 3650TIP3   OH235144   5.318   1.733   9.539
 3650TIP3    H135145   5.408   1.723   9.509
 3650TIP3    H235146   5.324   1.790   9.616
 3651TIP3   OH235147   4.037   1.772   9.863
 3651TIP3    H135148   4.013   1.758   9.955
 3651TIP3    H235149   4.105   1.707   9.846
 3652TIP3   OH235150   4.236   1.594   9.788
 3652TIP3    H135151   4.223   1.509   9.829
 3652TIP3    H235152   4.315   1.629   9.829
 3653TIP3   OH235153   4.466   1.674   9.922
 3653TIP3    H135154   4.498   1.584   9.919
 3653TIP3    H235155   4.484   1.702  10.012
 3654TIP3   OH235156   4.819   0.272   9.866
 3654TIP3    H135157   4.761   0.197   9.875
 3654TIP3    H235158   4.890   0.241   9.810
 3655TIP3   OH235159   5.302   0.164   9.838
 3655TIP3    H135160   5.365   0.204   9.778
 3655TIP3    H235161   5.216   0.190   9.804
 3656TIP3   OH235162   5.523   0.252   9.686
 3656TIP3    H135163   5.578   0.174   9.688
 3656TIP3    H235164   5.576   0.320   9.727
 3657TIP3   OH235165   4.024   0.159   9.491
 3657TIP3    H135166   3.955   0.184   9.431
 3657TIP3    H235167   4.031   0.064   9.483
 3658TIP3   OH235168   3.956   0.065   9.136
 3658TIP3    H135169   4.014   0.129   9.095
 3658TIP3    H235170   3.905   0.116   9.199
 3659TIP3   OH235171   4.636  -0.003   9.609
 3659TIP3    H135172   4.680   0.064   9.556
 3659TIP3    H235173   4.646   0.027   9.699
 3660TIP3   OH235174   5.027   0.182   9.704
 3660TIP3    H135175   5.030   0.205   9.611
 3660TIP3    H235176   5.029   0.086   9.705
 3661TIP3   OH235177   5.252   0.136   9.368
 3661TIP3    H135178   5.170   0.184   9.381
 3661TIP3    H235179   5.230   0.045   9.390
 3662TIP3   OH235180   3.930   1.743   9.222
 3662TIP3    H135181   3.863   1.744   9.153
 3662TIP3    H235182   3.964   1.832   9.224
 3663TIP3   OH235183   4.136   0.260   9.027
 3663TIP3    H135184   4.195   0.203   8.978
 3663TIP3    H235185   4.190   0.299   9.094
 3664TIP3   OH235186   4.578   0.315   9.305
 3664TIP3    H135187   4.625   0.250   9.358
 3664TIP3    H235188   4.599   0.399   9.345
 3665TIP3   OH235189   4.862   1.755   9.088
 3665TIP3    H135190   4.954   1.773   9.066
 3665TIP3    H235191   4.828   1.709   9.012
 3666TIP3   OH235192   5.564   1.729   9.385
 3666TIP3    H135193   5.532   1.648   9.347
 3666TIP3    H235194   5.538   1.797   9.322
 3667TIP3   OH235195   4.161   1.758   8.948
 3667TIP3    H135196   4.137   1.733   9.037
 3667TIP3    H235197   4.227   1.694   8.922
 3668TIP3   OH235198   6.882   1.100   9.512
 3668TIP3    H135199   6.836   1.183   9.497
 3668TIP3    H235200   6.827   1.034   9.471
 3669TIP3   OH235201   6.715   0.921   9.886
 3669TIP3    H135202   6.743   0.893   9.973
 3669TIP3    H235203   6.673   0.843   9.848
 3670TIP3   OH235204   7.077   1.265   9.644
 3670TIP3    H135205   7.015   1.193   9.633
 3670TIP3    H235206   7.105   1.258   9.735
 3671TIP3   OH235207   6.135   1.318   9.880
 3671TIP3    H135208   6.117   1.235   9.835
 3671TIP3    H235209   6.230   1.324   9.882
 3672TIP3   OH235210   5.749   0.705   9.345
 3672TIP3    H135211   5.723   0.789   9.384
 3672TIP3    H235212   5.681   0.688   9.280
 3673TIP3   OH235213   5.866   0.933   9.721
 3673TIP3    H135214   5.893   0.841   9.717
 3673TIP3    H235215   5.949   0.981   9.726
 3674TIP3   OH235216   6.948   1.719   9.862
 3674TIP3    H135217   6.954   1.659   9.788
 3674TIP3    H235218   6.881   1.680   9.919
 3675TIP3   OH235219   6.562   1.153   9.919
 3675TIP3    H135220   6.613   1.079   9.886
 3675TIP3    H235221   6.613   1.184   9.994
 3676TIP3   OH235222   6.908   0.621   9.956
 3676TIP3    H135223   6.918   0.531   9.988
 3676TIP3    H235224   6.895   0.611   9.862
 3677TIP3   OH235225   6.283   0.417   9.637
 3677TIP3    H135226   6.282   0.502   9.593
 3677TIP3    H235227   6.218   0.365   9.589
 3678TIP3   OH235228   7.037   0.398   9.558
 3678TIP3    H135229   7.060   0.364   9.645
 3678TIP3    H235230   7.119   0.397   9.509
 3679TIP3   OH235231   5.878   0.644   9.743
 3679TIP3    H135232   5.957   0.610   9.786
 3679TIP3    H235233   5.895   0.632   9.650
 3680TIP3   OH235234   6.419   0.801   9.678
 3680TIP3    H135235   6.494   0.751   9.710
 3680TIP3    H235236   6.370   0.739   9.623
 3681TIP3   OH235237   6.738   1.324   9.445
 3681TIP3    H135238   6.723   1.361   9.358
 3681TIP3    H235239   6.724   1.397   9.504
 3682TIP3   OH235240   7.092   0.332   9.823
 3682TIP3    H135241   7.035   0.331   9.899
 3682TIP3    H235242   7.152   0.405   9.838
 3683TIP3   OH235243   6.125   0.558   9.823
 3683TIP3    H135244   6.173   0.640   9.839
 3683TIP3    H235245   6.180   0.510   9.761
 3684TIP3   OH235246   5.807   1.329   9.280
 3684TIP3    H135247   5.813   1.355   9.188
 3684TIP3    H235248   5.810   1.411   9.328
 3685TIP3   OH235249   7.168   1.253   9.911
 3685TIP3    H135250   7.125   1.266   9.995
 3685TIP3    H235251   7.213   1.169   9.919
 3686TIP3   OH235252   6.487   0.098   9.895
 3686TIP3    H135253   6.509   0.005   9.909
 3686TIP3    H235254   6.396   0.106   9.924
 3687TIP3   OH235255   6.986   1.609   9.615
 3687TIP3    H135256   7.024   1.536   9.567
 3687TIP3    H235257   7.041   1.684   9.593
 3688TIP3   OH235258   7.099   1.432   9.430
 3688TIP3    H135259   7.153   1.385   9.366
 3688TIP3    H235260   7.091   1.371   9.504
 3689TIP3   OH235261   6.747   0.936   9.332
 3689TIP3    H135262   6.672   0.987   9.301
 3689TIP3    H235263   6.808   0.936   9.258
 3690TIP3   OH235264   6.764   0.858   8.948
 3690TIP3    H135265   6.819   0.886   9.021
 3690TIP3    H235266   6.808   0.781   8.913
 3691TIP3   OH235267   7.097   1.030   9.353
 3691TIP3    H135268   7.030   1.061   9.414
 3691TIP3    H235269   7.144   0.961   9.401
 3692TIP3   OH235270   6.275   1.002   9.544
 3692TIP3    H135271   6.231   0.954   9.473
 3692TIP3    H235272   6.334   0.937   9.583
 3693TIP3   OH235273   6.408   1.377   9.847
 3693TIP3    H135274   6.397   1.384   9.752
 3693TIP3    H235275   6.467   1.303   9.859
 3694TIP3   OH235276   6.255   0.790   9.898
 3694TIP3    H135277   6.315   0.792   9.823
 3694TIP3    H235278   6.263   0.877   9.937
 3695TIP3   OH235279   6.962   0.910   9.142
 3695TIP3    H135280   7.014   0.961   9.204
 3695TIP3    H235281   7.013   0.910   9.061
 3696TIP3   OH235282   6.719   1.573   9.561
 3696TIP3    H135283   6.808   1.583   9.594
 3696TIP3    H235284   6.711   1.640   9.492
 3697TIP3   OH235285   7.275   0.123   9.035
 3697TIP3    H135286   7.228   0.136   9.117
 3697TIP3    H235287   7.354   0.177   9.044
 3698TIP3   OH235288   6.130   0.899   9.326
 3698TIP3    H135289   6.076   0.974   9.302
 3698TIP3    H235290   6.075   0.823   9.308
 3699TIP3   OH235291   7.560   1.472   9.028
 3699TIP3    H135292   7.565   1.568   9.019
 3699TIP3    H235293   7.650   1.442   9.018
 3700TIP3   OH235294   5.627   1.566   9.852
 3700TIP3    H135295   5.638   1.473   9.874
 3700TIP3    H235296   5.536   1.585   9.874
 3701TIP3   OH235297   6.754   1.769   9.363
 3701TIP3    H135298   6.733   1.766   9.270
 3701TIP3    H235299   6.716   1.851   9.394
 3702TIP3   OH235300   6.020   1.702   9.535
 3702TIP3    H135301   5.997   1.673   9.624
 3702TIP3    H235302   5.954   1.660   9.479
 3703TIP3   OH235303   7.014   1.723   9.028
 3703TIP3    H135304   7.063   1.653   8.985
 3703TIP3    H235305   7.028   1.707   9.121
 3704TIP3   OH235306   7.012   1.671   9.300
 3704TIP3    H135307   6.926   1.686   9.340
 3704TIP3    H235308   7.044   1.590   9.340
 3705TIP3   OH235309   6.216   0.156   9.950
 3705TIP3    H135310   6.149   0.166   9.883
 3705TIP3    H235311   6.238   0.245   9.975
 3706TIP3   OH235312   7.085   0.888   8.895
 3706TIP3    H135313   7.055   0.921   8.811
 3706TIP3    H235314   7.177   0.916   8.901
 3707TIP3   OH235315   6.651   0.331   9.103
 3707TIP3    H135316   6.580   0.333   9.167
 3707TIP3    H235317   6.630   0.256   9.047
 3708TIP3   OH235318   6.230   0.665   9.535
 3708TIP3    H135319   6.134   0.664   9.531
 3708TIP3    H235320   6.257   0.649   9.444
 3709TIP3   OH235321   6.772   0.688   9.445
 3709TIP3    H135322   6.750   0.778   9.423
 3709TIP3    H235323   6.839   0.663   9.382
 3710TIP3   OH235324   6.863   0.581   9.681
 3710TIP3    H135325   6.824   0.627   9.606
 3710TIP3    H235326   6.909   0.507   9.642
 3711TIP3   OH235327   6.348   0.362   8.966
 3711TIP3    H135328   6.303   0.352   9.050
 3711TIP3    H235329   6.287   0.415   8.914
 3712TIP3   OH235330   5.704   0.419   9.807
 3712TIP3    H135331   5.759   0.379   9.875
 3712TIP3    H235332   5.753   0.496   9.778
 3713TIP3   OH235333   5.707   0.435   9.141
 3713TIP3    H135334   5.791   0.473   9.116
 3713TIP3    H235335   5.646   0.508   9.141
 3714TIP3   OH235336   6.557   0.358   9.649
 3714TIP3    H135337   6.462   0.365   9.660
 3714TIP3    H235338   6.591   0.346   9.738
 3715TIP3   OH235339   5.963   0.612   9.487
 3715TIP3    H135340   5.892   0.634   9.427
 3715TIP3    H235341   5.987   0.522   9.463
 3716TIP3   OH235342   6.310   0.589   9.290
 3716TIP3    H135343   6.404   0.580   9.308
 3716TIP3    H235344   6.306   0.626   9.202
 3717TIP3   OH235345   6.917   0.359   0.037
 3717TIP3    H135346   6.907   0.371   0.132
 3717TIP3    H235347   6.835   0.320   0.009
 3718TIP3   OH235348   6.284   0.676   9.038
 3718TIP3    H135349   6.236   0.634   8.967
 3718TIP3    H235350   6.359   0.717   8.994
 3719TIP3   OH235351   6.618   0.661   9.816
 3719TIP3    H135352   6.694   0.618   9.778
 3719TIP3    H235353   6.601   0.612   9.897
 3720TIP3   OH235354   6.072   0.354   9.458
 3720TIP3    H135355   6.015   0.281   9.479
 3720TIP3    H235356   6.105   0.335   9.370
 3721TIP3   OH235357   6.537   1.089   9.241
 3721TIP3    H135358   6.463   1.052   9.193
 3721TIP3    H235359   6.497   1.142   9.309
 3722TIP3   OH235360   6.907   0.410   9.135
 3722TIP3    H135361   6.814   0.395   9.121
 3722TIP3    H235362   6.912   0.499   9.169
 3723TIP3   OH235363   6.964   0.652   9.254
 3723TIP3    H135364   7.055   0.633   9.278
 3723TIP3    H235365   6.969   0.738   9.211
 3724TIP3   OH235366   6.116   1.063   9.762
 3724TIP3    H135367   6.168   1.048   9.683
 3724TIP3    H235368   6.178   1.047   9.834
 3725TIP3   OH235369   6.726   1.233   9.104
 3725TIP3    H135370   6.710   1.321   9.139
 3725TIP3    H235371   6.662   1.177   9.147
 3726TIP3   OH235372   7.398   0.683   9.127
 3726TIP3    H135373   7.358   0.652   9.045
 3726TIP3    H235374   7.437   0.767   9.105
 3727TIP3   OH235375   7.365   1.493   9.229
 3727TIP3    H135376   7.328   1.406   9.240
 3727TIP3    H235377   7.436   1.481   9.166
 3728TIP3   OH235378   7.000   0.969   9.829
 3728TIP3    H135379   6.904   0.967   9.823
 3728TIP3    H235380   7.029   0.894   9.777
 3729TIP3   OH235381   6.300   1.426   9.595
 3729TIP3    H135382   6.317   1.512   9.556
 3729TIP3    H235383   6.207   1.412   9.580
 3730TIP3   OH235384   5.888   0.876   9.105
 3730TIP3    H135385   5.921   0.957   9.144
 3730TIP3    H235386   5.793   0.884   9.109
 3731TIP3   OH235387   6.375   1.227   9.416
 3731TIP3    H135388   6.372   1.295   9.483
 3731TIP3    H235389   6.339   1.149   9.459
 3732TIP3   OH235390   6.293   1.678   9.492
 3732TIP3    H135391   6.201   1.703   9.500
 3732TIP3    H235392   6.342   1.755   9.523
 3733TIP3   OH235393   7.158   1.281   9.002
 3733TIP3    H135394   7.170   1.263   9.096
 3733TIP3    H235395   7.078   1.234   8.979
 3734TIP3   OH235396   7.550   1.752   9.022
 3734TIP3    H135397   7.545   1.811   8.947
 3734TIP3    H235398   7.479   1.780   9.080
 3735TIP3   OH235399   7.247   1.241   9.263
 3735TIP3    H135400   7.194   1.170   9.299
 3735TIP3    H235401   7.336   1.206   9.263
 3736TIP3   OH235402   6.454   1.382   8.924
 3736TIP3    H135403   6.456   1.297   8.880
 3736TIP3    H235404   6.427   1.363   9.014
 3737TIP3   OH235405   6.346   1.368   9.178
 3737TIP3    H135406   6.356   1.315   9.257
 3737TIP3    H235407   6.371   1.456   9.206
 3738TIP3   OH235408   5.975   1.110   9.230
 3738TIP3    H135409   5.913   1.170   9.271
 3738TIP3    H235410   6.029   1.165   9.174
 3739TIP3   OH235411   6.896   0.255   9.365
 3739TIP3    H135412   6.899   0.306   9.285
 3739TIP3    H235413   6.937   0.310   9.431
 3740TIP3   OH235414   6.672   1.479   9.217
 3740TIP3    H135415   6.587   1.514   9.243
 3740TIP3    H235416   6.718   1.554   9.178
 3741TIP3   OH235417   6.550   0.525   9.429
 3741TIP3    H135418   6.624   0.586   9.429
 3741TIP3    H235419   6.558   0.478   9.512
 3742TIP3   OH235420   6.655   0.165   9.468
 3742TIP3    H135421   6.640   0.233   9.535
 3742TIP3    H235422   6.740   0.187   9.431
 3743TIP3   OH235423   6.435   1.616   9.264
 3743TIP3    H135424   6.450   1.701   9.224
 3743TIP3    H235425   6.387   1.635   9.345
 3744TIP3   OH235426   6.209   0.344   9.212
 3744TIP3    H135427   6.220   0.436   9.233
 3744TIP3    H235428   6.289   0.302   9.245
 3745TIP3   OH235429   7.101   0.729   9.717
 3745TIP3    H135430   7.021   0.678   9.703
 3745TIP3    H235431   7.154   0.675   9.776
 3746TIP3   OH235432   6.104   1.293   9.067
 3746TIP3    H135433   6.183   1.331   9.105
 3746TIP3    H235434   6.138   1.232   9.000
 3747TIP3   OH235435   5.917   0.592   9.069
 3747TIP3    H135436   5.915   0.677   9.112
 3747TIP3    H235437   5.934   0.612   8.977
 3748TIP3   OH235438   7.381   1.772   9.980
 3748TIP3    H135439   7.428   1.722   9.914
 3748TIP3    H235440   7.445   1.788  10.049
 3749TIP3   OH235441   5.994   0.154   9.782
 3749TIP3    H135442   5.968   0.173   9.692
 3749TIP3    H235443   5.978   0.060   9.791
 3750TIP3   OH235444   5.820   1.599   9.367
 3750TIP3    H135445   5.733   1.632   9.390
 3750TIP3    H235446   5.843   1.645   9.286
 3751TIP3   OH235447   6.653   1.566   8.876
 3751TIP3    H135448   6.585   1.502   8.896
 3751TIP3    H235449   6.729   1.513   8.853
 3752TIP3   OH235450   7.138   1.527   8.888
 3752TIP3    H135451   7.160   1.444   8.931
 3752TIP3    H235452   7.208   1.540   8.825
 3753TIP3   OH235453   6.208   1.098   8.907
 3753TIP3    H135454   6.241   1.050   8.983
 3753TIP3    H235455   6.287   1.117   8.855
 3754TIP3   OH235456   6.910   1.183   8.915
 3754TIP3    H135457   6.849   1.193   8.988
 3754TIP3    H235458   6.862   1.132   8.850
 3755TIP3   OH235459   6.316   0.972   9.126
 3755TIP3    H135460   6.259   0.929   9.190
 3755TIP3    H235461   6.360   0.900   9.081
 3756TIP3   OH235462   6.489   0.833   8.953
 3756TIP3    H135463   6.475   0.858   8.861
 3756TIP3    H235464   6.583   0.839   8.966
 3757TIP3   OH235465   7.336   1.008   8.873
 3757TIP3    H135466   7.332   0.995   8.779
 3757TIP3    H235467   7.363   1.100   8.884
 3758TIP3   OH235468   6.516   1.859   9.151
 3758TIP3    H135469   6.596   1.819   9.118
 3758TIP3    H235470   6.486   1.915   9.079
 3759TIP3   OH235471   5.854   1.381   9.005
 3759TIP3    H135472   5.946   1.365   9.026
 3759TIP3    H235473   5.831   1.312   8.943
 3760TIP3   OH235474   5.685   1.907   9.564
 3760TIP3    H135475   5.646   1.849   9.499
 3760TIP3    H235476   5.722   1.849   9.630
 3761TIP3   OH235477   5.801   1.745   9.747
 3761TIP3    H135478   5.739   1.679   9.779
 3761TIP3    H235479   5.858   1.762   9.821
 3762TIP3   OH235480   7.506   1.147   9.261
 3762TIP3    H135481   7.584   1.201   9.277
 3762TIP3    H235482   7.506   1.083   9.333
 3763TIP3   OH235483   7.467   0.944   9.444
 3763TIP3    H135484   7.379   0.910   9.459
 3763TIP3    H235485   7.511   0.936   9.529
 3764TIP3   OH235486   7.584   1.114   9.867
 3764TIP3    H135487   7.671   1.101   9.904
 3764TIP3    H235488   7.566   1.207   9.881
 3765TIP3   OH235489   7.510   0.935   9.076
 3765TIP3    H135490   7.454   0.957   9.002
 3765TIP3    H235491   7.504   1.011   9.134
 3766TIP3   OH235492   7.280   0.595   8.889
 3766TIP3    H135493   7.247   0.620   8.803
 3766TIP3    H235494   7.320   0.509   8.875
 3767TIP3   OH235495   7.222   0.822   9.485
 3767TIP3    H135496   7.225   0.740   9.436
 3767TIP3    H235497   7.186   0.797   9.570
 3768TIP3   OH235498   5.707   1.018   9.925
 3768TIP3    H135499   5.765   1.001   9.851
 3768TIP3    H235500   5.761   0.998  10.002
 3769TIP3   OH235501   7.269   0.313   8.802
 3769TIP3    H135502   7.270   0.245   8.869
 3769TIP3    H235503   7.176   0.333   8.788
 3770TIP3   OH235504   7.227   0.594   9.326
 3770TIP3    H135505   7.251   0.504   9.348
 3770TIP3    H235506   7.290   0.620   9.258
 3771TIP3   OH235507   7.266   0.539   9.867
 3771TIP3    H135508   7.333   0.586   9.817
 3771TIP3    H235509   7.315   0.480   9.925
 3772TIP3   OH235510   7.266   0.319   9.397
 3772TIP3    H135511   7.317   0.271   9.463
 3772TIP3    H235512   7.218   0.251   9.351
 3773TIP3   OH235513   5.874   0.292   9.988
 3773TIP3    H135514   5.916   0.245   9.916
 3773TIP3    H235515   5.934   0.282  10.062
 3774TIP3   OH235516   5.681   0.728   9.916
 3774TIP3    H135517   5.743   0.707   9.846
 3774TIP3    H235518   5.671   0.823   9.912
 3775TIP3   OH235519   7.504   0.291   9.012
 3775TIP3    H135520   7.559   0.229   8.964
 3775TIP3    H235521   7.505   0.370   8.957
 3776TIP3   OH235522   5.715   0.233   9.329
 3776TIP3    H135523   5.627   0.247   9.363
 3776TIP3    H235524   5.729   0.304   9.266
 3777TIP3   OH235525   7.144   1.826   9.557
 3777TIP3    H135526   7.198   1.783   9.490
 3777TIP3    H235527   7.200   1.894   9.593
 3778TIP3   OH235528   5.996   1.778   9.942
 3778TIP3    H135529   5.965   1.741  10.024
 3778TIP3    H235530   6.043   1.706   9.899
 3779TIP3   OH235531   6.115   1.579   9.796
 3779TIP3    H135532   6.101   1.491   9.831
 3779TIP3    H235533   6.203   1.577   9.760
 3780TIP3   OH235534   6.507   1.621   9.946
 3780TIP3    H135535   6.473   1.537   9.914
 3780TIP3    H235536   6.446   1.648  10.014
 3781TIP3   OH235537   6.680   0.285   9.896
 3781TIP3    H135538   6.612   0.219   9.909
 3781TIP3    H235539   6.748   0.241   9.846
 3782TIP3   OH235540   7.223   0.096   9.754
 3782TIP3    H135541   7.291   0.120   9.692
 3782TIP3    H235542   7.190   0.180   9.787
 3783TIP3   OH235543   7.421   0.160   9.568
 3783TIP3    H135544   7.455   0.071   9.560
 3783TIP3    H235545   7.498   0.215   9.583
 3784TIP3   OH235546   5.904   0.147   9.515
 3784TIP3    H135547   5.834   0.170   9.454
 3784TIP3    H235548   5.915   0.052   9.504
 3785TIP3   OH235549   5.848   0.043   9.153
 3785TIP3    H135550   5.900   0.108   9.107
 3785TIP3    H235551   5.794   0.093   9.214
 3786TIP3   OH235552   6.452   0.040   9.623
 3786TIP3    H135553   6.520   0.072   9.563
 3786TIP3    H235554   6.476   0.076   9.708
 3787TIP3   OH235555   6.871   0.144   9.765
 3787TIP3    H135556   6.962   0.170   9.764
 3787TIP3    H235557   6.872   0.050   9.746
 3788TIP3   OH235558   7.124   0.118   9.272
 3788TIP3    H135559   7.037   0.152   9.293
 3788TIP3    H235560   7.117   0.023   9.283
 3789TIP3   OH235561   5.857   1.752   9.140
 3789TIP3    H135562   5.774   1.759   9.092
 3789TIP3    H235563   5.869   1.839   9.179
 3790TIP3   OH235564   6.010   0.245   9.035
 3790TIP3    H135565   6.071   0.197   8.979
 3790TIP3    H235566   6.066   0.287   9.101
 3791TIP3   OH235567   6.462   0.295   9.306
 3791TIP3    H135568   6.511   0.227   9.351
 3791TIP3    H235569   6.486   0.376   9.351
 3792TIP3   OH235570   6.743   1.722   9.081
 3792TIP3    H135571   6.836   1.734   9.059
 3792TIP3    H235572   6.707   1.676   9.006
 3793TIP3   OH235573   7.331   1.721   9.378
 3793TIP3    H135574   7.336   1.632   9.341
 3793TIP3    H235575   7.345   1.778   9.303
 3794TIP3   OH235576   6.004   1.704   8.904
 3794TIP3    H135577   5.968   1.703   8.993
 3794TIP3    H235578   6.080   1.646   8.908
 3795TIP3   OH235579   7.608   0.738   9.319
 3795TIP3    H135580   7.556   0.811   9.352
 3795TIP3    H235581   7.551   0.695   9.255
 3796TIP3   OH235582   7.585   1.387   9.936
 3796TIP3    H135583   7.678   1.401   9.921
 3796TIP3    H235584   7.569   1.424  10.023
 3797TIP3   OH235585   7.527   0.475   9.542
 3797TIP3    H135586   7.610   0.450   9.583
 3797TIP3    H235587   7.539   0.455   9.449
 3798TIP3   OH235588   7.478   1.803   9.593
 3798TIP3    H135589   7.434   1.763   9.519
 3798TIP3    H235590   7.482   1.735   9.660
 3799TIP3   OH235591   7.520   1.622   9.796
 3799TIP3    H135592   7.516   1.532   9.827
 3799TIP3    H235593   7.614   1.643   9.795
 3800TIP3   OH235594   7.596   0.906   9.684
 3800TIP3    H135595   7.689   0.885   9.675
 3800TIP3    H235596   7.594   0.985   9.738
 3801TIP3   OH235597   7.451   0.673   9.721
 3801TIP3    H135598   7.473   0.607   9.655
 3801TIP3    H235599   7.504   0.749   9.697
 3802TIP3   OH235600   7.529   0.344   9.286
 3802TIP3    H135601   7.436   0.337   9.311
 3802TIP3    H235602   7.529   0.334   9.191
 3803TIP3   OH235603   1.258   2.884   9.540
 3803TIP3    H135604   1.247   2.978   9.522
 3803TIP3    H235605   1.188   2.842   9.490
 3804TIP3   OH235606   0.938   2.844   9.935
 3804TIP3    H135607   0.999   2.804   9.996
 3804TIP3    H235608   0.939   2.786   9.859
 3805TIP3   OH235609   1.515   3.095   9.781
 3805TIP3    H135610   1.484   3.005   9.793
 3805TIP3    H235611   1.543   3.122   9.868
 3806TIP3   OH235612   0.413   3.197   9.850
 3806TIP3    H135613   0.396   3.110   9.815
 3806TIP3    H235614   0.506   3.195   9.874
 3807TIP3   OH235615   0.186   2.675   9.378
 3807TIP3    H135616   0.179   2.704   9.468
 3807TIP3    H235617   0.095   2.667   9.348
 3808TIP3   OH235618   0.183   2.756   9.647
 3808TIP3    H135619   0.225   2.678   9.683
 3808TIP3    H235620   0.241   2.828   9.673
 3809TIP3   OH235621   1.137   3.635   9.822
 3809TIP3    H135622   1.174   3.576   9.757
 3809TIP3    H235623   1.117   3.578   9.897
 3810TIP3   OH235624   0.891   3.108   9.979
 3810TIP3    H135625   0.911   3.018   9.954
 3810TIP3    H235626   0.976   3.148   9.994
 3811TIP3   OH235627   1.140   2.507   9.934
 3811TIP3    H135628   1.152   2.413   9.948
 3811TIP3    H235629   1.164   2.521   9.842
 3812TIP3   OH235630   0.653   2.273   9.661
 3812TIP3    H135631   0.644   2.358   9.618
 3812TIP3    H235632   0.596   2.215   9.610
 3813TIP3   OH235633   1.364   2.339   9.481
 3813TIP3    H135634   1.389   2.327   9.573
 3813TIP3    H235635   1.439   2.382   9.441
 3814TIP3   OH235636   0.302   2.529   9.740
 3814TIP3    H135637   0.375   2.492   9.791
 3814TIP3    H235638   0.303   2.479   9.658
 3815TIP3   OH235639   0.685   2.716   9.690
 3815TIP3    H135640   0.775   2.688   9.711
 3815TIP3    H235641   0.647   2.642   9.642
 3816TIP3   OH235642   1.220   3.133   9.435
 3816TIP3    H135643   1.189   3.120   9.345
 3816TIP3    H235644   1.172   3.209   9.466
 3817TIP3   OH235645   1.379   2.322   9.761
 3817TIP3    H135646   1.310   2.295   9.822
 3817TIP3    H235647   1.452   2.262   9.779
 3818TIP3   OH235648   0.484   2.358   9.864
 3818TIP3    H135649   0.521   2.333   9.949
 3818TIP3    H235650   0.546   2.325   9.799
 3819TIP3   OH235651   0.073   3.190   9.277
 3819TIP3    H135652   0.085   3.223   9.188
 3819TIP3    H235653   0.094   3.264   9.333
 3820TIP3   OH235654   1.604   3.181   0.044
 3820TIP3    H135655   1.525   3.194   0.096
 3820TIP3    H235656   1.667   3.243   0.079
 3821TIP3   OH235657   0.794   1.894   9.824
 3821TIP3    H135658   0.768   1.804   9.841
 3821TIP3    H235659   0.732   1.946   9.875
 3822TIP3   OH235660   1.293   3.509   9.630
 3822TIP3    H135661   1.328   3.420   9.625
 3822TIP3    H235662   1.368   3.566   9.616
 3823TIP3   OH235663   1.412   3.268   9.591
 3823TIP3    H135664   1.364   3.209   9.534
 3823TIP3    H235665   1.456   3.211   9.654
 3824TIP3   OH235666   1.081   2.820   9.327
 3824TIP3    H135667   1.001   2.870   9.310
 3824TIP3    H235668   1.140   2.845   9.255
 3825TIP3   OH235669   1.109   2.736   8.960
 3825TIP3    H135670   1.163   2.758   9.036
 3825TIP3    H235671   1.162   2.673   8.910
 3826TIP3   OH235672   1.473   2.857   9.367
 3826TIP3    H135673   1.406   2.871   9.434
 3826TIP3    H235674   1.535   2.795   9.406
 3827TIP3   OH235675   0.543   2.909   9.534
 3827TIP3    H135676   0.510   2.867   9.455
 3827TIP3    H235677   0.600   2.843   9.575
 3828TIP3   OH235678   0.688   3.254   9.867
 3828TIP3    H135679   0.708   3.265   9.774
 3828TIP3    H235680   0.760   3.203   9.902
 3829TIP3   OH235681   0.541   2.807   9.912
 3829TIP3    H135682   0.604   2.774   9.848
 3829TIP3    H235683   0.592   2.864   9.969
 3830TIP3   OH235684   1.317   2.788   9.146
 3830TIP3    H135685   1.370   2.817   9.220
 3830TIP3    H235686   1.367   2.815   9.068
 3831TIP3   OH235687   1.091   3.366   9.487
 3831TIP3    H135688   1.136   3.440   9.527
 3831TIP3    H235689   1.059   3.399   9.403
 3832TIP3   OH235690   1.685   1.916   9.186
 3832TIP3    H135691   1.602   1.939   9.227
 3832TIP3    H235692   1.713   1.996   9.142
 3833TIP3   OH235693   0.420   2.809   9.303
 3833TIP3    H135694   0.374   2.877   9.252
 3833TIP3    H235695   0.351   2.746   9.326
 3834TIP3   OH235696   1.805   3.383   9.019
 3834TIP3    H135697   1.819   3.477   9.014
 3834TIP3    H235698   1.893   3.347   9.033
 3835TIP3   OH235699   0.167   3.310   9.916
 3835TIP3    H135700   0.247   3.275   9.877
 3835TIP3    H235701   0.165   3.275  10.005
 3836TIP3   OH235702   1.104   3.654   9.369
 3836TIP3    H135703   1.080   3.657   9.276
 3836TIP3    H235704   1.056   3.726   9.409
 3837TIP3   OH235705   0.387   3.545   9.516
 3837TIP3    H135706   0.389   3.507   9.604
 3837TIP3    H235707   0.316   3.499   9.471
 3838TIP3   OH235708   1.355   3.658   9.050
 3838TIP3    H135709   1.401   3.583   9.013
 3838TIP3    H235710   1.370   3.652   9.144
 3839TIP3   OH235711   1.370   3.611   9.322
 3839TIP3    H135712   1.279   3.617   9.352
 3839TIP3    H235713   1.404   3.532   9.363
 3840TIP3   OH235714   0.613   2.025   9.985
 3840TIP3    H135715   0.537   2.021   9.927
 3840TIP3    H235716   0.614   2.116  10.017
 3841TIP3   OH235717   1.466   2.852   8.927
 3841TIP3    H135718   1.434   2.851   8.837
 3841TIP3    H235719   1.559   2.869   8.920
 3842TIP3   OH235720   0.943   2.220   8.977
 3842TIP3    H135721   0.899   2.217   9.062
 3842TIP3    H235722   0.914   2.141   8.932
 3843TIP3   OH235723   0.583   2.513   9.537
 3843TIP3    H135724   0.491   2.488   9.530
 3843TIP3    H235725   0.617   2.508   9.448
 3844TIP3   OH235726   1.117   2.555   9.387
 3844TIP3    H135727   1.097   2.646   9.366
 3844TIP3    H235728   1.183   2.529   9.323
 3845TIP3   OH235729   1.164   2.503   9.653
 3845TIP3    H135730   1.153   2.526   9.561
 3845TIP3    H235731   1.224   2.428   9.652
 3846TIP3   OH235732   0.618   2.202   8.957
 3846TIP3    H135733   0.606   2.226   9.049
 3846TIP3    H235734   0.596   2.281   8.908
 3847TIP3   OH235735   0.043   2.328   9.659
 3847TIP3    H135736   0.107   2.294   9.722
 3847TIP3    H235737   0.077   2.302   9.573
 3848TIP3   OH235738   0.216   2.430   9.254
 3848TIP3    H135739   0.217   2.444   9.159
 3848TIP3    H235740   0.208   2.518   9.291
 3849TIP3   OH235741   0.925   2.210   9.630
 3849TIP3    H135742   0.834   2.225   9.657
 3849TIP3    H235743   0.965   2.165   9.705
 3850TIP3   OH235744   0.338   2.393   9.505
 3850TIP3    H135745   0.296   2.400   9.419
 3850TIP3    H235746   0.370   2.303   9.508
 3851TIP3   OH235747   0.674   2.464   9.286
 3851TIP3    H135748   0.765   2.442   9.306
 3851TIP3    H235749   0.677   2.496   9.196
 3852TIP3   OH235750   1.186   2.235   9.944
 3852TIP3    H135751   1.189   2.218  10.038
 3852TIP3    H235752   1.133   2.163   9.908
 3853TIP3   OH235753   0.668   2.536   9.021
 3853TIP3    H135754   0.614   2.505   8.949
 3853TIP3    H235755   0.730   2.596   8.980
 3854TIP3   OH235756   0.935   2.621   9.767
 3854TIP3    H135757   1.002   2.596   9.704
 3854TIP3    H235758   0.954   2.567   9.844
 3855TIP3   OH235759   0.466   2.151   9.493
 3855TIP3    H135760   0.419   2.068   9.507
 3855TIP3    H235761   0.496   2.146   9.402
 3856TIP3   OH235762   0.854   2.976   9.259
 3856TIP3    H135763   0.789   2.940   9.199
 3856TIP3    H235764   0.803   3.028   9.321
 3857TIP3   OH235765   1.195   2.261   9.100
 3857TIP3    H135766   1.110   2.268   9.056
 3857TIP3    H235767   1.222   2.351   9.115
 3858TIP3   OH235768   1.310   2.508   9.190
 3858TIP3    H135769   1.397   2.483   9.221
 3858TIP3    H235770   1.319   2.599   9.163
 3859TIP3   OH235771   0.371   2.937   9.750
 3859TIP3    H135772   0.422   2.942   9.669
 3859TIP3    H235773   0.425   2.885   9.810
 3860TIP3   OH235774   1.078   3.120   9.192
 3860TIP3    H135775   1.055   3.213   9.196
 3860TIP3    H235776   0.996   3.074   9.210
 3861TIP3   OH235777   1.735   2.548   9.098
 3861TIP3    H135778   1.670   2.548   9.028
 3861TIP3    H235779   1.777   2.634   9.091
 3862TIP3   OH235780   1.665   3.371   9.265
 3862TIP3    H135781   1.634   3.282   9.281
 3862TIP3    H235782   1.702   3.368   9.176
 3863TIP3   OH235783   1.404   2.830   9.772
 3863TIP3    H135784   1.346   2.851   9.700
 3863TIP3    H235785   1.437   2.742   9.752
 3864TIP3   OH235786   0.662   3.336   9.599
 3864TIP3    H135787   0.696   3.412   9.551
 3864TIP3    H235788   0.578   3.366   9.634
 3865TIP3   OH235789   0.173   2.810   8.970
 3865TIP3    H135790   0.192   2.861   9.049
 3865TIP3    H235791   0.090   2.845   8.938
 3866TIP3   OH235792   0.682   3.125   9.419
 3866TIP3    H135793   0.685   3.194   9.485
 3866TIP3    H235794   0.630   3.056   9.459
 3867TIP3   OH235795   0.656   3.584   9.471
 3867TIP3    H135796   0.560   3.580   9.477
 3867TIP3    H235797   0.678   3.674   9.494
 3868TIP3   OH235798   1.486   3.195   9.035
 3868TIP3    H135799   1.516   3.152   9.115
 3868TIP3    H235800   1.400   3.156   9.017
 3869TIP3   OH235801   1.830   3.659   9.020
 3869TIP3    H135802   1.842   3.724   8.950
 3869TIP3    H235803   1.761   3.695   9.075
 3870TIP3   OH235804   1.606   3.080   9.257
 3870TIP3    H135805   1.551   3.014   9.299
 3870TIP3    H235806   1.695   3.044   9.262
 3871TIP3   OH235807   0.766   3.297   8.920
 3871TIP3    H135808   0.782   3.216   8.873
 3871TIP3    H235809   0.733   3.269   9.005
 3872TIP3   OH235810   0.661   3.269   9.178
 3872TIP3    H135811   0.672   3.220   9.260
 3872TIP3    H235812   0.695   3.357   9.198
 3873TIP3   OH235813   0.251   2.994   9.168
 3873TIP3    H135814   0.187   3.040   9.222
 3873TIP3    H235815   0.311   3.063   9.138
 3874TIP3   OH235816   1.233   2.142   9.343
 3874TIP3    H135817   1.219   2.179   9.256
 3874TIP3    H235818   1.270   2.214   9.394
 3875TIP3   OH235819   1.010   3.387   9.211
 3875TIP3    H135820   0.921   3.424   9.218
 3875TIP3    H235821   1.059   3.452   9.160
 3876TIP3   OH235822   0.916   2.368   9.399
 3876TIP3    H135823   0.986   2.433   9.397
 3876TIP3    H235824   0.924   2.326   9.485
 3877TIP3   OH235825   0.999   2.031   9.434
 3877TIP3    H135826   0.977   2.095   9.502
 3877TIP3    H235827   1.084   2.060   9.401
 3878TIP3   OH235828   0.770   3.520   9.233
 3878TIP3    H135829   0.782   3.606   9.192
 3878TIP3    H235830   0.732   3.540   9.318
 3879TIP3   OH235831   0.564   2.216   9.235
 3879TIP3    H135832   0.575   2.308   9.259
 3879TIP3    H235833   0.653   2.180   9.235
 3880TIP3   OH235834   1.506   2.572   9.725
 3880TIP3    H135835   1.448   2.496   9.735
 3880TIP3    H235836   1.571   2.562   9.795
 3881TIP3   OH235837   0.414   3.196   9.073
 3881TIP3    H135838   0.487   3.237   9.120
 3881TIP3    H235839   0.456   3.150   9.000
 3882TIP3   OH235840   0.207   2.528   8.993
 3882TIP3    H135841   0.188   2.622   9.003
 3882TIP3    H235842   0.233   2.518   8.901
 3883TIP3   OH235843   1.620   3.585   9.960
 3883TIP3    H135844   1.605   3.665   9.909
 3883TIP3    H235845   1.673   3.613  10.034
 3884TIP3   OH235846   0.396   2.001   9.807
 3884TIP3    H135847   0.384   1.985   9.713
 3884TIP3    H235848   0.367   1.920   9.849
 3885TIP3   OH235849   0.153   3.462   9.378
 3885TIP3    H135850   0.109   3.527   9.433
 3885TIP3    H235851   0.158   3.502   9.292
 3886TIP3   OH235852   0.962   3.491   8.898
 3886TIP3    H135853   0.893   3.426   8.907
 3886TIP3    H235854   1.043   3.440   8.891
 3887TIP3   OH235855   1.476   3.448   8.931
 3887TIP3    H135856   1.492   3.364   8.973
 3887TIP3    H235857   1.542   3.453   8.862
 3888TIP3   OH235858   0.561   3.036   8.903
 3888TIP3    H135859   0.582   2.978   8.976
 3888TIP3    H235860   0.642   3.041   8.852
 3889TIP3   OH235861   1.235   3.112   8.965
 3889TIP3    H135862   1.174   3.101   9.038
 3889TIP3    H235863   1.202   3.053   8.897
 3890TIP3   OH235864   0.655   2.861   9.098
 3890TIP3    H135865   0.598   2.802   9.148
 3890TIP3    H235866   0.707   2.803   9.043
 3891TIP3   OH235867   0.831   2.732   8.918
 3891TIP3    H135868   0.829   2.760   8.827
 3891TIP3    H235869   0.924   2.733   8.941
 3892TIP3   OH235870   1.731   2.930   8.841
 3892TIP3    H135871   1.715   2.909   8.749
 3892TIP3    H235872   1.710   3.023   8.849
 3893TIP3   OH235873   0.849   3.781   9.148
 3893TIP3    H135874   0.934   3.741   9.129
 3893TIP3    H235875   0.825   3.827   9.067
 3894TIP3   OH235876   0.146   3.270   9.021
 3894TIP3    H135877   0.237   3.285   9.046
 3894TIP3    H235878   0.151   3.212   8.945
 3895TIP3   OH235879   0.059   3.664   9.557
 3895TIP3    H135880  -0.029   3.700   9.561
 3895TIP3    H235881   0.074   3.624   9.643
 3896TIP3   OH235882   0.098   3.555   9.810
 3896TIP3    H135883   0.119   3.465   9.837
 3896TIP3    H235884   0.164   3.609   9.853
 3897TIP3   OH235885   1.858   2.954   9.279
 3897TIP3    H135886   1.927   3.020   9.292
 3897TIP3    H235887   1.873   2.891   9.349
 3898TIP3   OH235888   1.886   2.761   9.485
 3898TIP3    H135889   1.796   2.728   9.488
 3898TIP3    H235890   1.899   2.804   9.570
 3899TIP3   OH235891   1.933   3.184   9.971
 3899TIP3    H135892   1.909   3.107   9.921
 3899TIP3    H235893   1.897   3.258   9.922
 3900TIP3   OH235894   1.853   2.796   9.052
 3900TIP3    H135895   1.806   2.841   8.981
 3900TIP3    H235896   1.846   2.856   9.126
 3901TIP3   OH235897   1.555   2.540   8.885
 3901TIP3    H135898   1.587   2.551   8.795
 3901TIP3    H235899   1.553   2.445   8.897
 3902TIP3   OH235900   1.627   2.657   9.490
 3902TIP3    H135901   1.612   2.583   9.431
 3902TIP3    H235902   1.586   2.631   9.572
 3903TIP3   OH235903   0.160   2.944   9.946
 3903TIP3    H135904   0.230   2.933   9.882
 3903TIP3    H235905   0.175   2.875  10.010
 3904TIP3   OH235906   1.561   2.273   8.916
 3904TIP3    H135907   1.622   2.214   8.960
 3904TIP3    H235908   1.483   2.220   8.900
 3905TIP3   OH235909   1.578   2.444   9.310
 3905TIP3    H135910   1.608   2.354   9.323
 3905TIP3    H235911   1.633   2.478   9.239
 3906TIP3   OH235912   1.683   2.513   9.925
 3906TIP3    H135913   1.775   2.540   9.918
 3906TIP3    H235914   1.686   2.425   9.960
 3907TIP3   OH235915   1.652   2.184   9.375
 3907TIP3    H135916   1.680   2.168   9.465
 3907TIP3    H235917   1.586   2.116   9.358
 3908TIP3   OH235918   0.238   2.229   9.824
 3908TIP3    H135919   0.278   2.142   9.822
 3908TIP3    H235920   0.310   2.288   9.847
 3909TIP3   OH235921   0.121   2.520   9.950
 3909TIP3    H135922   0.180   2.519   9.874
 3909TIP3    H235923   0.034   2.511   9.912
 3910TIP3   OH235924   1.772   2.128   9.030
 3910TIP3    H135925   1.814   2.075   8.962
 3910TIP3    H235926   1.832   2.201   9.045
 3911TIP3   OH235927   0.089   2.229   9.392
 3911TIP3    H135928  -0.001   2.220   9.361
 3911TIP3    H235929   0.127   2.297   9.337
 3912TIP3   OH235930   1.510   3.673   9.594
 3912TIP3    H135931   1.574   3.653   9.525
 3912TIP3    H235932   1.563   3.704   9.667
 3913TIP3   OH235933   0.324   3.647   9.934
 3913TIP3    H135934   0.357   3.647  10.024
 3913TIP3    H235935   0.374   3.578   9.890
 3914TIP3   OH235936   0.457   3.457   9.771
 3914TIP3    H135937   0.439   3.369   9.805
 3914TIP3    H235938   0.537   3.484   9.815
 3915TIP3   OH235939   0.677   3.530   9.920
 3915TIP3    H135940   0.701   3.437   9.926
 3915TIP3    H235941   0.699   3.565  10.007
 3916TIP3   OH235942   1.037   2.030   9.819
 3916TIP3    H135943   0.954   1.983   9.830
 3916TIP3    H235944   1.101   1.960   9.806
 3917TIP3   OH235945   1.576   2.136   9.813
 3917TIP3    H135946   1.645   2.131   9.747
 3917TIP3    H235947   1.538   2.049   9.814
 3918TIP3   OH235948   1.775   2.139   9.618
 3918TIP3    H135949   1.823   2.060   9.596
 3918TIP3    H235950   1.841   2.209   9.618
 3919TIP3   OH235951   0.324   1.919   9.547
 3919TIP3    H135952   0.231   1.905   9.533
 3919TIP3    H235953   0.364   1.833   9.534
 3920TIP3   OH235954   0.147   2.004   9.215
 3920TIP3    H135955   0.216   2.046   9.163
 3920TIP3    H235956   0.135   2.063   9.290
 3921TIP3   OH235957   0.764   1.916   9.547
 3921TIP3    H135958   0.845   1.949   9.507
 3921TIP3    H235959   0.782   1.918   9.641
 3922TIP3   OH235960   1.463   1.885   9.797
 3922TIP3    H135961   1.492   1.839   9.718
 3922TIP3    H235962   1.370   1.867   9.803
 3923TIP3   OH235963   1.460   1.985   9.328
 3923TIP3    H135964   1.380   2.037   9.335
 3923TIP3    H235965   1.430   1.894   9.334
 3924TIP3   OH235966   0.144   3.610   9.140
 3924TIP3    H135967   0.054   3.611   9.108
 3924TIP3    H235968   0.160   3.700   9.169
 3925TIP3   OH235969   0.360   2.112   9.074
 3925TIP3    H135970   0.423   2.057   9.028
 3925TIP3    H235971   0.413   2.159   9.139
 3926TIP3   OH235972   0.834   2.170   9.227
 3926TIP3    H135973   0.866   2.085   9.257
 3926TIP3    H235974   0.870   2.233   9.290
 3927TIP3   OH235975   1.081   3.645   9.090
 3927TIP3    H135976   1.173   3.656   9.065
 3927TIP3    H235977   1.041   3.603   9.014
 3928TIP3   OH235978   1.697   3.618   9.389
 3928TIP3    H135979   1.688   3.528   9.358
 3928TIP3    H235980   1.683   3.672   9.312
 3929TIP3   OH235981   0.342   3.656   8.934
 3929TIP3    H135982   0.292   3.626   9.009
 3929TIP3    H235983   0.410   3.589   8.922
 3930TIP3   OH235984   3.099   2.894   9.537
 3930TIP3    H135985   3.085   2.985   9.513
 3930TIP3    H235986   3.033   2.845   9.487
 3931TIP3   OH235987   2.853   2.801   9.923
 3931TIP3    H135988   2.898   2.764   9.999
 3931TIP3    H235989   2.850   2.730   9.859
 3932TIP3   OH235990   3.408   3.101   9.701
 3932TIP3    H135991   3.359   3.023   9.727
 3932TIP3    H235992   3.430   3.144   9.783
 3933TIP3   OH235993   2.382   3.216   9.905
 3933TIP3    H135994   2.363   3.133   9.862
 3933TIP3    H235995   2.477   3.224   9.902
 3934TIP3   OH235996   2.080   2.562   9.454
 3934TIP3    H135997   2.012   2.629   9.454
 3934TIP3    H235998   2.035   2.481   9.477
 3935TIP3   OH235999   2.120   2.868   9.746
 3935TIP3    H136000   2.144   2.776   9.735
 3935TIP3    H236001   2.204   2.913   9.758
 3936TIP3   OH236002   3.080   3.576   9.798
 3936TIP3    H136003   3.113   3.503   9.745
 3936TIP3    H236004   3.039   3.534   9.874
 3937TIP3   OH236005   2.789   3.060   9.967
 3937TIP3    H136006   2.819   2.974   9.939
 3937TIP3    H236007   2.853   3.088  10.031
 3938TIP3   OH236008   3.056   2.457   9.956
 3938TIP3    H136009   3.069   2.365   9.980
 3938TIP3    H236010   3.089   2.464   9.867
 3939TIP3   OH236011   2.534   2.250   9.715
 3939TIP3    H136012   2.540   2.322   9.652
 3939TIP3    H236013   2.481   2.184   9.671
 3940TIP3   OH236014   3.274   2.298   9.549
 3940TIP3    H136015   3.299   2.272   9.637
 3940TIP3    H236016   3.357   2.322   9.506
 3941TIP3   OH236017   2.156   2.596   9.723
 3941TIP3    H136018   2.222   2.535   9.755
 3941TIP3    H236019   2.144   2.572   9.631
 3942TIP3   OH236020   2.609   2.651   9.689
 3942TIP3    H136021   2.697   2.626   9.717
 3942TIP3    H236022   2.582   2.579   9.632
 3943TIP3   OH236023   3.035   3.126   9.407
 3943TIP3    H136024   3.018   3.115   9.313
 3943TIP3    H236025   3.017   3.218   9.425
 3944TIP3   OH236026   3.303   2.266   9.819
 3944TIP3    H136027   3.231   2.235   9.874
 3944TIP3    H236028   3.381   2.259   9.874
 3945TIP3   OH236029   2.351   2.429   9.830
 3945TIP3    H136030   2.394   2.503   9.874
 3945TIP3    H236031   2.423   2.368   9.812
 3946TIP3   OH236032   2.065   3.144   9.285
 3946TIP3    H136033   2.047   3.182   9.198
 3946TIP3    H236034   2.074   3.220   9.342
 3947TIP3   OH236035   3.457   3.223   9.947
 3947TIP3    H136036   3.406   3.217  10.028
 3947TIP3    H236037   3.468   3.317   9.933
 3948TIP3   OH236038   2.612   1.894   9.789
 3948TIP3    H136039   2.604   1.802   9.815
 3948TIP3    H236040   2.576   1.943   9.863
 3949TIP3   OH236041   3.221   3.425   9.595
 3949TIP3    H136042   3.273   3.354   9.558
 3949TIP3    H236043   3.284   3.497   9.605
 3950TIP3   OH236044   3.400   3.248   9.471
 3950TIP3    H136045   3.384   3.187   9.399
 3950TIP3    H236046   3.408   3.193   9.549
 3951TIP3   OH236047   2.942   2.792   9.321
 3951TIP3    H136048   2.865   2.842   9.295
 3951TIP3    H236049   3.004   2.805   9.249
 3952TIP3   OH236050   2.978   2.738   8.931
 3952TIP3    H136051   3.028   2.757   9.011
 3952TIP3    H236052   3.033   2.677   8.882
 3953TIP3   OH236053   3.310   2.832   9.368
 3953TIP3    H136054   3.246   2.854   9.435
 3953TIP3    H236055   3.379   2.786   9.416
 3954TIP3   OH236056   2.496   2.866   9.557
 3954TIP3    H136057   2.445   2.814   9.495
 3954TIP3    H236058   2.549   2.802   9.603
 3955TIP3   OH236059   2.648   3.263   9.850
 3955TIP3    H136060   2.670   3.259   9.757
 3955TIP3    H236061   2.704   3.197   9.890
 3956TIP3   OH236062   2.477   2.658   9.930
 3956TIP3    H136063   2.524   2.657   9.847
 3956TIP3    H236064   2.495   2.745   9.967
 3957TIP3   OH236065   3.167   2.774   9.139
 3957TIP3    H136066   3.219   2.801   9.214
 3957TIP3    H236067   3.223   2.790   9.063
 3958TIP3   OH236068   2.992   3.403   9.444
 3958TIP3    H136069   3.068   3.403   9.502
 3958TIP3    H236070   2.969   3.496   9.435
 3959TIP3   OH236071   3.560   1.952   9.150
 3959TIP3    H136072   3.481   1.979   9.198
 3959TIP3    H236073   3.586   2.031   9.102
 3960TIP3   OH236074   2.286   2.678   9.303
 3960TIP3    H136075   2.260   2.766   9.277
 3960TIP3    H236076   2.215   2.647   9.359
 3961TIP3   OH236077   3.744   3.401   8.906
 3961TIP3    H136078   3.726   3.489   8.939
 3961TIP3    H236079   3.814   3.368   8.962
 3962TIP3   OH236080   1.857   3.443   9.888
 3962TIP3    H136081   1.909   3.488   9.955
 3962TIP3    H236082   1.768   3.475   9.901
 3963TIP3   OH236083   2.960   3.671   9.386
 3963TIP3    H136084   2.943   3.670   9.291
 3963TIP3    H236085   2.924   3.755   9.415
 3964TIP3   OH236086   2.280   3.565   9.530
 3964TIP3    H136087   2.304   3.523   9.613
 3964TIP3    H236088   2.223   3.502   9.487
 3965TIP3   OH236089   3.221   3.659   9.082
 3965TIP3    H136090   3.265   3.582   9.047
 3965TIP3    H236091   3.242   3.660   9.175
 3966TIP3   OH236092   3.237   3.663   9.357
 3966TIP3    H136093   3.145   3.652   9.379
 3966TIP3    H236094   3.284   3.630   9.434
 3967TIP3   OH236095   2.476   2.016  10.009
 3967TIP3    H136096   2.405   2.016   9.944
 3967TIP3    H236097   2.492   2.108  10.027
 3968TIP3   OH236098   3.321   2.809   8.914
 3968TIP3    H136099   3.295   2.823   8.823
 3968TIP3    H236100   3.405   2.853   8.923
 3969TIP3   OH236101   2.883   2.224   9.034
 3969TIP3    H136102   2.835   2.204   9.115
 3969TIP3    H236103   2.849   2.161   8.970
 3970TIP3   OH236104   2.540   2.446   9.522
 3970TIP3    H136105   2.472   2.423   9.459
 3970TIP3    H236106   2.622   2.424   9.479
 3971TIP3   OH236107   3.009   2.545   9.419
 3971TIP3    H136108   2.979   2.631   9.389
 3971TIP3    H236109   3.080   2.522   9.359
 3972TIP3   OH236110   3.099   2.478   9.670
 3972TIP3    H136111   3.071   2.516   9.587
 3972TIP3    H236112   3.151   2.401   9.645
 3973TIP3   OH236113   2.572   2.284   8.948
 3973TIP3    H136114   2.544   2.217   9.010
 3973TIP3    H236115   2.492   2.315   8.907
 3974TIP3   OH236116   1.994   2.316   9.540
 3974TIP3    H136117   2.054   2.280   9.605
 3974TIP3    H236118   1.991   2.251   9.470
 3975TIP3   OH236119   1.934   2.351   9.093
 3975TIP3    H136120   2.017   2.395   9.075
 3975TIP3    H236121   1.869   2.421   9.093
 3976TIP3   OH236122   2.814   2.200   9.666
 3976TIP3    H136123   2.728   2.205   9.709
 3976TIP3    H236124   2.869   2.151   9.727
 3977TIP3   OH236125   2.322   2.367   9.363
 3977TIP3    H136126   2.237   2.389   9.402
 3977TIP3    H236127   2.341   2.279   9.395
 3978TIP3   OH236128   2.603   2.434   9.202
 3978TIP3    H136129   2.682   2.435   9.256
 3978TIP3    H236130   2.632   2.394   9.120
 3979TIP3   OH236131   3.099   2.185   9.988
 3979TIP3    H136132   3.112   2.137  10.070
 3979TIP3    H236133   3.051   2.123   9.932
 3980TIP3   OH236134   2.467   2.598   8.983
 3980TIP3    H136135   2.437   2.551   8.905
 3980TIP3    H236136   2.552   2.635   8.957
 3981TIP3   OH236137   2.852   2.559   9.782
 3981TIP3    H136138   2.929   2.541   9.727
 3981TIP3    H236139   2.870   2.513   9.864
 3982TIP3   OH236140   2.390   2.129   9.489
 3982TIP3    H136141   2.316   2.071   9.504
 3982TIP3    H236142   2.465   2.071   9.484
 3983TIP3   OH236143   2.717   2.945   9.235
 3983TIP3    H136144   2.645   2.925   9.175
 3983TIP3    H236145   2.677   2.999   9.303
 3984TIP3   OH236146   3.135   2.253   9.138
 3984TIP3    H136147   3.049   2.259   9.095
 3984TIP3    H236148   3.160   2.343   9.156
 3985TIP3   OH236149   3.214   2.501   9.239
 3985TIP3    H136150   3.304   2.487   9.270
 3985TIP3    H236151   3.219   2.582   9.187
 3986TIP3   OH236152   2.376   2.966   9.789
 3986TIP3    H136153   2.424   2.940   9.710
 3986TIP3    H236154   2.434   2.941   9.861
 3987TIP3   OH236155   2.932   3.089   9.139
 3987TIP3    H136156   2.903   3.179   9.153
 3987TIP3    H236157   2.857   3.035   9.166
 3988TIP3   OH236158   3.645   2.573   9.160
 3988TIP3    H136159   3.573   2.556   9.099
 3988TIP3    H236160   3.669   2.664   9.144
 3989TIP3   OH236161   3.614   3.390   9.359
 3989TIP3    H136162   3.540   3.345   9.399
 3989TIP3    H236163   3.680   3.321   9.346
 3990TIP3   OH236164   3.259   2.875   9.770
 3990TIP3    H136165   3.193   2.884   9.700
 3990TIP3    H236166   3.292   2.786   9.760
 3991TIP3   OH236167   2.556   3.324   9.571
 3991TIP3    H136168   2.578   3.405   9.526
 3991TIP3    H236169   2.490   3.350   9.636
 3992TIP3   OH236170   2.122   2.752   9.004
 3992TIP3    H136171   2.158   2.816   9.065
 3992TIP3    H236172   2.027   2.761   9.013
 3993TIP3   OH236173   2.564   3.098   9.409
 3993TIP3    H136174   2.567   3.175   9.466
 3993TIP3    H236175   2.539   3.026   9.467
 3994TIP3   OH236176   2.548   3.582   9.462
 3994TIP3    H136177   2.453   3.591   9.477
 3994TIP3    H236178   2.585   3.663   9.497
 3995TIP3   OH236179   3.357   3.181   9.012
 3995TIP3    H136180   3.372   3.145   9.100
 3995TIP3    H236181   3.272   3.146   8.986
 3996TIP3   OH236182   3.703   3.649   9.010
 3996TIP3    H136183   3.725   3.720   8.949
 3996TIP3    H236184   3.638   3.688   9.069
 3997TIP3   OH236185   3.409   3.064   9.258
 3997TIP3    H136186   3.368   2.984   9.291
 3997TIP3    H236187   3.503   3.050   9.269
 3998TIP3   OH236188   2.691   3.289   8.919
 3998TIP3    H136189   2.709   3.212   8.864
 3998TIP3    H236190   2.651   3.252   8.998
 3999TIP3   OH236191   2.539   3.235   9.162
 3999TIP3    H136192   2.549   3.185   9.243
 3999TIP3    H236193   2.571   3.323   9.185
 4000TIP3   OH236194   2.228   2.930   9.199
 4000TIP3    H136195   2.170   2.997   9.237
 4000TIP3    H236196   2.309   2.976   9.180
 4001TIP3   OH236197   3.116   2.141   9.387
 4001TIP3    H136198   3.123   2.180   9.300
 4001TIP3    H236199   3.164   2.201   9.444
 4002TIP3   OH236200   2.850   3.335   9.214
 4002TIP3    H136201   2.777   3.397   9.209
 4002TIP3    H236202   2.899   3.362   9.291
 4003TIP3   OH236203   2.794   2.375   9.447
 4003TIP3    H136204   2.870   2.434   9.439
 4003TIP3    H236205   2.811   2.324   9.526
 4004TIP3   OH236206   2.883   2.023   9.464
 4004TIP3    H136207   2.864   2.075   9.542
 4004TIP3    H236208   2.970   2.052   9.436
 4005TIP3   OH236209   2.620   3.493   9.214
 4005TIP3    H136210   2.632   3.574   9.164
 4005TIP3    H236211   2.595   3.523   9.302
 4006TIP3   OH236212   2.525   2.089   9.139
 4006TIP3    H136213   2.587   2.129   9.200
 4006TIP3    H236214   2.558   2.001   9.125
 4007TIP3   OH236215   3.342   2.611   9.741
 4007TIP3    H136216   3.263   2.558   9.730
 4007TIP3    H236217   3.394   2.564   9.806
 4008TIP3   OH236218   2.311   3.308   9.025
 4008TIP3    H136219   2.310   3.398   9.057
 4008TIP3    H236220   2.386   3.268   9.070
 4009TIP3   OH236221   2.193   2.487   9.037
 4009TIP3    H136222   2.164   2.577   9.022
 4009TIP3    H236223   2.225   2.458   8.951
 4010TIP3   OH236224   3.478   3.509   9.954
 4010TIP3    H136225   3.483   3.593   9.909
 4010TIP3    H236226   3.561   3.502  10.001
 4011TIP3   OH236227   2.273   1.995   9.815
 4011TIP3    H136228   2.259   1.982   9.721
 4011TIP3    H236229   2.235   1.918   9.856
 4012TIP3   OH236230   2.078   3.405   9.408
 4012TIP3    H136231   2.029   3.432   9.486
 4012TIP3    H236232   2.053   3.469   9.341
 4013TIP3   OH236233   2.883   3.484   8.902
 4013TIP3    H136234   2.819   3.415   8.922
 4013TIP3    H236235   2.961   3.437   8.875
 4014TIP3   OH236236   3.331   3.448   8.951
 4014TIP3    H136237   3.356   3.360   8.980
 4014TIP3    H236238   3.382   3.462   8.871
 4015TIP3   OH236239   2.470   3.096   8.865
 4015TIP3    H136240   2.469   3.031   8.935
 4015TIP3    H236241   2.549   3.077   8.815
 4016TIP3   OH236242   3.106   3.107   8.927
 4016TIP3    H136243   3.046   3.092   9.000
 4016TIP3    H236244   3.076   3.047   8.859
 4017TIP3   OH236245   2.511   2.884   9.047
 4017TIP3    H136246   2.442   2.817   9.042
 4017TIP3    H236247   2.584   2.845   8.999
 4018TIP3   OH236248   2.698   2.739   8.907
 4018TIP3    H136249   2.699   2.764   8.815
 4018TIP3    H236250   2.790   2.733   8.931
 4019TIP3   OH236251   3.569   2.925   8.883
 4019TIP3    H136252   3.574   2.888   8.795
 4019TIP3    H236253   3.582   3.019   8.871
 4020TIP3   OH236254   2.687   3.732   9.097
 4020TIP3    H136255   2.779   3.710   9.109
 4020TIP3    H236256   2.688   3.802   9.032
 4021TIP3   OH236257   2.042   3.238   9.027
 4021TIP3    H136258   2.135   3.261   9.017
 4021TIP3    H236259   2.022   3.187   8.948
 4022TIP3   OH236260   1.903   3.740   9.530
 4022TIP3    H136261   1.836   3.707   9.471
 4022TIP3    H236262   1.934   3.663   9.578
 4023TIP3   OH236263   1.992   3.514   9.656
 4023TIP3    H136264   1.932   3.472   9.718
 4023TIP3    H236265   2.059   3.554   9.712
 4024TIP3   OH236266   3.674   3.010   9.304
 4024TIP3    H136267   3.737   3.081   9.312
 4024TIP3    H236268   3.698   2.948   9.372
 4025TIP3   OH236269   3.735   2.806   9.478
 4025TIP3    H136270   3.652   2.768   9.506
 4025TIP3    H236271   3.790   2.805   9.556
 4026TIP3   OH236272   3.810   3.137   9.998
 4026TIP3    H136273   3.827   3.054   9.954
 4026TIP3    H236274   3.819   3.204   9.929
 4027TIP3   OH236275   3.706   2.831   9.099
 4027TIP3    H136276   3.654   2.862   9.025
 4027TIP3    H236277   3.691   2.895   9.168
 4028TIP3   OH236278   3.443   2.538   8.985
 4028TIP3    H136279   3.405   2.605   8.927
 4028TIP3    H236280   3.442   2.458   8.932
 4029TIP3   OH236281   3.489   2.679   9.517
 4029TIP3    H136282   3.485   2.596   9.468
 4029TIP3    H236283   3.445   2.659   9.600
 4030TIP3   OH236284   1.930   2.885   9.936
 4030TIP3    H136285   1.995   2.893   9.866
 4030TIP3    H236286   1.982   2.873  10.016
 4031TIP3   OH236287   3.446   2.296   8.848
 4031TIP3    H136288   3.513   2.243   8.892
 4031TIP3    H236289   3.367   2.242   8.851
 4032TIP3   OH236290   3.477   2.454   9.351
 4032TIP3    H136291   3.507   2.364   9.363
 4032TIP3    H236292   3.539   2.492   9.289
 4033TIP3   OH236293   3.512   2.479   9.918
 4033TIP3    H136294   3.593   2.528   9.907
 4033TIP3    H236295   3.539   2.387   9.917
 4034TIP3   OH236296   3.541   2.191   9.411
 4034TIP3    H136297   3.569   2.158   9.496
 4034TIP3    H236298   3.482   2.124   9.377
 4035TIP3   OH236299   2.168   2.242   9.735
 4035TIP3    H136300   2.196   2.159   9.773
 4035TIP3    H236301   2.223   2.308   9.778
 4036TIP3   OH236302   1.944   2.603   9.902
 4036TIP3    H136303   2.010   2.595   9.834
 4036TIP3    H236304   1.926   2.697   9.909
 4037TIP3   OH236305   3.652   2.159   8.984
 4037TIP3    H136306   3.703   2.098   8.930
 4037TIP3    H236307   3.715   2.226   9.011
 4038TIP3   OH236308   1.933   2.179   9.307
 4038TIP3    H136309   1.839   2.165   9.321
 4038TIP3    H236310   1.937   2.240   9.234
 4039TIP3   OH236311   3.399   3.635   9.581
 4039TIP3    H136312   3.476   3.643   9.525
 4039TIP3    H236313   3.428   3.668   9.666
 4040TIP3   OH236314   2.168   3.613   9.847
 4040TIP3    H136315   2.133   3.587   9.932
 4040TIP3    H236316   2.242   3.554   9.833
 4041TIP3   OH236317   2.380   3.453   9.768
 4041TIP3    H136318   2.367   3.372   9.817
 4041TIP3    H236319   2.457   3.493   9.808
 4042TIP3   OH236320   2.607   3.533   9.905
 4042TIP3    H136321   2.640   3.443   9.901
 4042TIP3    H236322   2.614   3.556   9.998
 4043TIP3   OH236323   2.992   2.020   9.791
 4043TIP3    H136324   2.960   1.930   9.801
 4043TIP3    H236325   3.081   2.009   9.756
 4044TIP3   OH236326   3.469   1.969   9.860
 4044TIP3    H136327   3.520   2.001   9.786
 4044TIP3    H236328   3.382   1.953   9.824
 4045TIP3   OH236329   3.625   2.084   9.656
 4045TIP3    H136330   3.690   2.026   9.617
 4045TIP3    H236331   3.676   2.152   9.700
 4046TIP3   OH236332   2.193   1.945   9.553
 4046TIP3    H136333   2.100   1.951   9.532
 4046TIP3    H236334   2.214   1.852   9.545
 4047TIP3   OH236335   2.092   1.973   9.204
 4047TIP3    H136336   2.149   2.022   9.144
 4047TIP3    H236337   2.040   2.041   9.248
 4048TIP3   OH236338   2.608   1.961   9.526
 4048TIP3    H136339   2.700   1.968   9.499
 4048TIP3    H236340   2.612   1.941   9.619
 4049TIP3   OH236341   3.236   1.892   9.728
 4049TIP3    H136342   3.301   1.849   9.673
 4049TIP3    H236343   3.170   1.825   9.746
 4050TIP3   OH236344   3.353   2.004   9.325
 4050TIP3    H136345   3.271   2.048   9.346
 4050TIP3    H236346   3.331   1.910   9.330
 4051TIP3   OH236347   2.025   3.601   9.214
 4051TIP3    H136348   1.945   3.613   9.163
 4051TIP3    H236349   2.056   3.690   9.231
 4052TIP3   OH236350   2.278   2.081   9.019
 4052TIP3    H136351   2.305   2.017   8.954
 4052TIP3    H236352   2.352   2.089   9.079
 4053TIP3   OH236353   2.751   2.171   9.271
 4053TIP3    H136354   2.790   2.097   9.317
 4053TIP3    H236355   2.763   2.245   9.331
 4054TIP3   OH236356   2.948   3.653   9.110
 4054TIP3    H136357   3.042   3.666   9.098
 4054TIP3    H236358   2.923   3.592   9.040
 4055TIP3   OH236359   3.607   3.659   9.398
 4055TIP3    H136360   3.615   3.566   9.378
 4055TIP3    H236361   3.591   3.700   9.313
 4056TIP3   OH236362   2.165   3.595   8.973
 4056TIP3    H136363   2.121   3.591   9.058
 4056TIP3    H236364   2.227   3.668   8.982
 4057TIP3   OH236365   4.976   2.913   9.541
 4057TIP3    H136366   4.935   2.996   9.516
 4057TIP3    H236367   4.911   2.868   9.595
 4058TIP3   OH236368   4.948   2.859   9.927
 4058TIP3    H136369   4.914   2.806  10.000
 4058TIP3    H236370   4.891   2.838   9.853
 4059TIP3   OH236371   5.336   3.124   9.744
 4059TIP3    H136372   5.287   3.047   9.773
 4059TIP3    H236373   5.334   3.183   9.819
 4060TIP3   OH236374   4.241   3.240   9.911
 4060TIP3    H136375   4.209   3.155   9.880
 4060TIP3    H236376   4.336   3.237   9.893
 4061TIP3   OH236377   3.887   2.630   9.326
 4061TIP3    H136378   3.832   2.693   9.373
 4061TIP3    H236379   3.831   2.598   9.256
 4062TIP3   OH236380   3.930   2.770   9.678
 4062TIP3    H136381   3.937   2.675   9.679
 4062TIP3    H236382   4.018   2.801   9.657
 4063TIP3   OH236383   4.879   3.590   9.780
 4063TIP3    H136384   4.836   3.524   9.725
 4063TIP3    H236385   4.859   3.563   9.869
 4064TIP3   OH236386   4.632   3.010   9.886
 4064TIP3    H136387   4.650   2.944   9.819
 4064TIP3    H236388   4.716   3.025   9.929
 4065TIP3   OH236389   4.944   2.488   9.930
 4065TIP3    H136390   4.976   2.399   9.942
 4065TIP3    H236391   4.958   2.506   9.837
 4066TIP3   OH236392   4.266   2.326   9.675
 4066TIP3    H136393   4.308   2.397   9.627
 4066TIP3    H236394   4.228   2.270   9.608
 4067TIP3   OH236395   5.132   2.338   9.479
 4067TIP3    H136396   5.139   2.330   9.574
 4067TIP3    H236397   5.207   2.391   9.454
 4068TIP3   OH236398   3.949   2.495   9.722
 4068TIP3    H136399   4.021   2.473   9.781
 4068TIP3    H236400   3.985   2.481   9.634
 4069TIP3   OH236401   4.437   2.674   9.703
 4069TIP3    H136402   4.526   2.707   9.693
 4069TIP3    H236403   4.423   2.620   9.625
 4070TIP3   OH236404   4.838   3.133   9.439
 4070TIP3    H136405   4.843   3.133   9.343
 4070TIP3    H236406   4.835   3.226   9.462
 4071TIP3   OH236407   5.169   2.315   9.751
 4071TIP3    H136408   5.127   2.268   9.822
 4071TIP3    H236409   5.244   2.358   9.791
 4072TIP3   OH236410   4.156   2.435   9.899
 4072TIP3    H136411   4.215   2.507   9.917
 4072TIP3    H236412   4.198   2.386   9.828
 4073TIP3   OH236413   3.854   3.217   9.299
 4073TIP3    H136414   3.870   3.239   9.207
 4073TIP3    H236415   3.899   3.285   9.348
 4074TIP3   OH236416   5.351   3.286   9.978
 4074TIP3    H136417   5.289   3.276  10.050
 4074TIP3    H236418   5.366   3.380   9.971
 4075TIP3   OH236419   4.589   1.923   9.853
 4075TIP3    H136420   4.561   1.832   9.862
 4075TIP3    H236421   4.520   1.974   9.896
 4076TIP3   OH236422   5.128   3.435   9.513
 4076TIP3    H136423   5.189   3.361   9.508
 4076TIP3    H236424   5.178   3.504   9.556
 4077TIP3   OH236425   5.321   3.239   9.490
 4077TIP3    H136426   5.306   3.169   9.426
 4077TIP3    H236427   5.329   3.193   9.574
 4078TIP3   OH236428   4.778   2.728   9.228
 4078TIP3    H136429   4.743   2.792   9.290
 4078TIP3    H236430   4.854   2.772   9.189
 4079TIP3   OH236431   4.963   2.685   8.860
 4079TIP3    H136432   4.976   2.715   8.950
 4079TIP3    H236433   5.018   2.607   8.853
 4080TIP3   OH236434   5.172   2.851   9.360
 4080TIP3    H136435   5.104   2.872   9.424
 4080TIP3    H236436   5.236   2.799   9.409
 4081TIP3   OH236437   4.199   2.810   9.636
 4081TIP3    H136438   4.188   2.804   9.541
 4081TIP3    H236439   4.283   2.768   9.653
 4082TIP3   OH236440   4.510   3.261   9.849
 4082TIP3    H136441   4.540   3.293   9.764
 4082TIP3    H236442   4.554   3.176   9.860
 4083TIP3   OH236443   4.340   2.636   9.954
 4083TIP3    H136444   4.378   2.632   9.867
 4083TIP3    H236445   4.350   2.728   9.980
 4084TIP3   OH236446   5.066   2.764   9.120
 4084TIP3    H136447   5.093   2.802   9.203
 4084TIP3    H236448   5.135   2.789   9.058
 4085TIP3   OH236449   4.851   3.420   9.506
 4085TIP3    H136450   4.946   3.416   9.517
 4085TIP3    H236451   4.836   3.496   9.450
 4086TIP3   OH236452   5.484   1.925   9.205
 4086TIP3    H136453   5.400   1.955   9.240
 4086TIP3    H236454   5.521   2.002   9.162
 4087TIP3   OH236455   4.119   2.785   9.373
 4087TIP3    H136456   4.105   2.861   9.318
 4087TIP3    H236457   4.049   2.724   9.350
 4088TIP3   OH236458   5.650   3.345   9.094
 4088TIP3    H136459   5.641   3.440   9.091
 4088TIP3    H236460   5.720   3.326   9.032
 4089TIP3   OH236461   3.853   3.389   9.887
 4089TIP3    H136462   3.937   3.414   9.927
 4089TIP3    H236463   3.787   3.413   9.952
 4090TIP3   OH236464   4.843   3.658   9.352
 4090TIP3    H136465   4.820   3.656   9.259
 4090TIP3    H236466   4.804   3.739   9.385
 4091TIP3   OH236467   4.177   3.582   9.538
 4091TIP3    H136468   4.197   3.544   9.624
 4091TIP3    H236469   4.118   3.518   9.497
 4092TIP3   OH236470   5.119   3.645   9.032
 4092TIP3    H136471   5.160   3.565   8.998
 4092TIP3    H236472   5.129   3.639   9.127
 4093TIP3   OH236473   5.111   3.620   9.306
 4093TIP3    H136474   5.019   3.639   9.324
 4093TIP3    H236475   5.132   3.547   9.365
 4094TIP3   OH236476   4.382   2.065   9.988
 4094TIP3    H136477   4.310   2.060   9.925
 4094TIP3    H236478   4.414   2.155   9.981
 4095TIP3   OH236479   5.270   2.823   8.949
 4095TIP3    H136480   5.241   2.822   8.858
 4095TIP3    H236481   5.362   2.848   8.944
 4096TIP3   OH236482   4.725   2.244   8.997
 4096TIP3    H136483   4.656   2.263   9.060
 4096TIP3    H236484   4.701   2.160   8.959
 4097TIP3   OH236485   4.337   2.526   9.498
 4097TIP3    H136486   4.244   2.531   9.476
 4097TIP3    H236487   4.380   2.510   9.414
 4098TIP3   OH236488   4.879   2.517   9.384
 4098TIP3    H136489   4.838   2.590   9.338
 4098TIP3    H236490   4.957   2.497   9.333
 4099TIP3   OH236491   4.958   2.561   9.659
 4099TIP3    H136492   4.891   2.628   9.670
 4099TIP3    H236493   4.944   2.525   9.572
 4100TIP3   OH236494   4.426   2.245   8.931
 4100TIP3    H136495   4.386   2.257   9.017
 4100TIP3    H236496   4.378   2.305   8.874
 4101TIP3   OH236497   3.775   2.275   9.782
 4101TIP3    H136498   3.841   2.243   9.844
 4101TIP3    H236499   3.814   2.355   9.745
 4102TIP3   OH236500   3.814   2.371   9.078
 4102TIP3    H136501   3.893   2.417   9.051
 4102TIP3    H236502   3.752   2.440   9.099
 4103TIP3   OH236503   4.704   2.209   9.655
 4103TIP3    H136504   4.617   2.227   9.690
 4103TIP3    H236505   4.756   2.183   9.731
 4104TIP3   OH236506   4.060   2.472   9.475
 4104TIP3    H136507   4.004   2.509   9.407
 4104TIP3    H236508   4.078   2.382   9.445
 4105TIP3   OH236509   4.470   2.458   9.267
 4105TIP3    H136510   4.546   2.414   9.304
 4105TIP3    H236511   4.507   2.515   9.199
 4106TIP3   OH236512   5.028   2.226  -0.010
 4106TIP3    H136513   5.006   2.228   0.083
 4106TIP3    H236514   4.960   2.169  -0.049
 4107TIP3   OH236515   4.291   2.584   8.997
 4107TIP3    H136516   4.288   2.533   8.915
 4107TIP3    H236517   4.383   2.587   9.020
 4108TIP3   OH236518   4.666   2.531   9.910
 4108TIP3    H136519   4.667   2.602   9.846
 4108TIP3    H236520   4.758   2.509   9.922
 4109TIP3   OH236521   4.157   2.215   9.437
 4109TIP3    H136522   4.121   2.130   9.465
 4109TIP3    H236523   4.193   2.198   9.350
 4110TIP3   OH236524   4.529   3.025   9.216
 4110TIP3    H136525   4.466   2.968   9.171
 4110TIP3    H236526   4.556   2.974   9.293
 4111TIP3   OH236527   4.986   2.267   9.081
 4111TIP3    H136528   4.895   2.276   9.054
 4111TIP3    H236529   5.011   2.355   9.109
 4112TIP3   OH236530   5.089   2.497   9.202
 4112TIP3    H136531   5.179   2.490   9.234
 4112TIP3    H236532   5.085   2.584   9.163
 4113TIP3   OH236533   4.175   2.978   9.855
 4113TIP3    H136534   4.181   2.927   9.775
 4113TIP3    H236535   4.247   2.946   9.909
 4114TIP3   OH236536   4.795   3.079   9.157
 4114TIP3    H136537   4.789   3.175   9.155
 4114TIP3    H236538   4.704   3.050   9.165
 4115TIP3   OH236539   5.557   2.548   9.160
 4115TIP3    H136540   5.524   2.521   9.074
 4115TIP3    H236541   5.579   2.641   9.149
 4116TIP3   OH236542   5.479   3.406   9.335
 4116TIP3    H136543   5.424   3.349   9.389
 4116TIP3    H236544   5.500   3.352   9.258
 4117TIP3   OH236545   5.216   2.892   9.850
 4117TIP3    H136546   5.124   2.895   9.878
 4117TIP3    H236547   5.220   2.815   9.793
 4118TIP3   OH236548   4.600   3.372   9.616
 4118TIP3    H136549   4.543   3.430   9.566
 4118TIP3    H236550   4.686   3.380   9.575
 4119TIP3   OH236551   3.959   2.861   8.996
 4119TIP3    H136552   4.004   2.904   9.069
 4119TIP3    H236553   3.873   2.840   9.031
 4120TIP3   OH236554   4.676   2.903   9.422
 4120TIP3    H136555   4.723   2.985   9.438
 4120TIP3    H236556   4.679   2.857   9.506
 4121TIP3   OH236557   4.448   3.561   9.475
 4121TIP3    H136558   4.354   3.569   9.485
 4121TIP3    H236559   4.484   3.643   9.509
 4122TIP3   OH236560   5.229   3.166   9.023
 4122TIP3    H136561   5.245   3.132   9.111
 4122TIP3    H236562   5.149   3.123   8.995
 4123TIP3   OH236563   5.651   3.622   9.069
 4123TIP3    H136564   5.667   3.650   8.980
 4123TIP3    H236565   5.581   3.679   9.101
 4124TIP3   OH236566   5.318   3.065   9.269
 4124TIP3    H136567   5.265   2.989   9.293
 4124TIP3    H236568   5.408   3.033   9.273
 4125TIP3   OH236569   4.513   3.358   8.897
 4125TIP3    H136570   4.528   3.274   8.853
 4125TIP3    H236571   4.489   3.333   8.987
 4126TIP3   OH236572   4.451   3.288   9.157
 4126TIP3    H136573   4.489   3.207   9.191
 4126TIP3    H236574   4.502   3.357   9.198
 4127TIP3   OH236575   4.045   3.008   9.219
 4127TIP3    H136576   3.980   3.061   9.266
 4127TIP3    H236577   4.111   3.072   9.191
 4128TIP3   OH236578   5.006   2.151   9.330
 4128TIP3    H136579   4.994   2.187   9.242
 4128TIP3    H236580   5.041   2.224   9.381
 4129TIP3   OH236581   4.781   3.347   9.171
 4129TIP3    H136582   4.722   3.419   9.193
 4129TIP3    H236583   4.839   3.383   9.104
 4130TIP3   OH236584   4.685   2.323   9.400
 4130TIP3    H136585   4.755   2.388   9.394
 4130TIP3    H236586   4.690   2.290   9.489
 4131TIP3   OH236587   4.838   2.019   9.499
 4131TIP3    H136588   4.795   2.091   9.545
 4131TIP3    H236589   4.894   2.062   9.435
 4132TIP3   OH236590   4.578   3.525   9.236
 4132TIP3    H136591   4.572   3.612   9.195
 4132TIP3    H236592   4.535   3.535   9.321
 4133TIP3   OH236593   4.305   2.248   9.185
 4133TIP3    H136594   4.329   2.336   9.213
 4133TIP3    H236595   4.382   2.195   9.203
 4134TIP3   OH236596   5.218   2.646   9.716
 4134TIP3    H136597   5.130   2.612   9.700
 4134TIP3    H236598   5.260   2.580   9.770
 4135TIP3   OH236599   4.187   3.224   9.109
 4135TIP3    H136600   4.262   3.265   9.151
 4135TIP3    H236601   4.223   3.181   9.032
 4136TIP3   OH236602   4.010   2.569   9.024
 4136TIP3    H136603   4.105   2.562   9.026
 4136TIP3    H236604   3.993   2.661   9.004
 4137TIP3   OH236605   5.385   3.570   9.979
 4137TIP3    H136606   5.369   3.643   9.920
 4137TIP3    H236607   5.453   3.602  10.039
 4138TIP3   OH236608   4.149   2.022   9.825
 4138TIP3    H136609   4.138   2.033   9.730
 4138TIP3    H236610   4.112   1.936   9.843
 4139TIP3   OH236611   3.959   3.445   9.414
 4139TIP3    H136612   3.915   3.490   9.486
 4139TIP3    H236613   3.945   3.502   9.339
 4140TIP3   OH236614   4.740   3.510   8.862
 4140TIP3    H136615   4.659   3.461   8.876
 4140TIP3    H236616   4.809   3.445   8.878
 4141TIP3   OH236617   5.225   3.420   8.922
 4141TIP3    H136618   5.236   3.331   8.955
 4141TIP3    H236619   5.295   3.429   8.856
 4142TIP3   OH236620   4.299   3.088   8.906
 4142TIP3    H136621   4.312   3.010   8.960
 4142TIP3    H236622   4.382   3.101   8.861
 4143TIP3   OH236623   4.971   3.077   8.943
 4143TIP3    H136624   4.914   3.062   9.019
 4143TIP3    H236625   4.931   3.027   8.873
 4144TIP3   OH236626   4.358   2.865   9.058
 4144TIP3    H136627   4.315   2.782   9.077
 4144TIP3    H236628   4.420   2.844   8.988
 4145TIP3   OH236629   4.569   2.623   9.065
 4145TIP3    H136630   4.574   2.667   8.980
 4145TIP3    H236631   4.644   2.658   9.114
 4146TIP3   OH236632   5.537   2.916   8.878
 4146TIP3    H136633   5.521   2.902   8.785
 4146TIP3    H236634   5.515   3.008   8.893
 4147TIP3   OH236635   4.608   3.780   9.123
 4147TIP3    H136636   4.696   3.746   9.105
 4147TIP3    H236637   4.586   3.832   9.047
 4148TIP3   OH236638   3.927   3.245   9.032
 4148TIP3    H136639   4.020   3.250   9.057
 4148TIP3    H236640   3.924   3.180   8.963
 4149TIP3   OH236641   3.800   3.782   9.551
 4149TIP3    H136642   3.738   3.751   9.485
 4149TIP3    H236643   3.827   3.702   9.597
 4150TIP3   OH236644   3.888   3.555   9.669
 4150TIP3    H136645   3.856   3.480   9.719
 4150TIP3    H236646   3.946   3.600   9.730
 4151TIP3   OH236647   5.585   2.991   9.304
 4151TIP3    H136648   5.648   3.062   9.314
 4151TIP3    H236649   5.602   2.934   9.380
 4152TIP3   OH236650   5.616   2.795   9.501
 4152TIP3    H136651   5.526   2.765   9.495
 4152TIP3    H236652   5.633   2.801   9.595
 4153TIP3   OH236653   5.585   3.132   9.997
 4153TIP3    H136654   5.623   3.149   9.911
 4153TIP3    H236655   5.511   3.191  10.003
 4154TIP3   OH236656   5.636   2.805   9.107
 4154TIP3    H136657   5.599   2.838   9.024
 4154TIP3    H236658   5.615   2.873   9.171
 4155TIP3   OH236659   5.477   2.474   8.913
 4155TIP3    H136660   5.442   2.524   8.838
 4155TIP3    H236661   5.447   2.384   8.897
 4156TIP3   OH236662   5.362   2.693   9.490
 4156TIP3    H136663   5.357   2.610   9.443
 4156TIP3    H236664   5.313   2.679   9.570
 4157TIP3   OH236665   3.830   2.873   9.912
 4157TIP3    H136666   3.876   2.857   9.830
 4157TIP3    H236667   3.894   2.850   9.980
 4158TIP3   OH236668   5.377   2.221   8.867
 4158TIP3    H136669   5.412   2.179   8.946
 4158TIP3    H236670   5.284   2.200   8.869
 4159TIP3   OH236671   5.361   2.457   9.341
 4159TIP3    H136672   5.391   2.369   9.363
 4159TIP3    H236673   5.426   2.489   9.278
 4160TIP3   OH236674   5.374   2.469   9.866
 4160TIP3    H136675   5.468   2.486   9.861
 4160TIP3    H236676   5.364   2.409   9.940
 4161TIP3   OH236677   5.438   2.199   9.417
 4161TIP3    H136678   5.442   2.168   9.507
 4161TIP3    H236679   5.374   2.141   9.375
 4162TIP3   OH236680   3.982   2.204   9.952
 4162TIP3    H136681   4.036   2.135   9.913
 4162TIP3    H236682   4.041   2.280   9.958
 4163TIP3   OH236683   3.750   2.602   9.887
 4163TIP3    H136684   3.817   2.569   9.826
 4163TIP3    H236685   3.766   2.696   9.892
 4164TIP3   OH236686   5.577   2.130   9.048
 4164TIP3    H136687   5.619   2.096   8.970
 4164TIP3    H236688   5.636   2.198   9.080
 4165TIP3   OH236689   3.808   2.187   9.287
 4165TIP3    H136690   3.719   2.192   9.324
 4165TIP3    H236691   3.809   2.255   9.219
 4166TIP3   OH236692   5.283   3.648   9.590
 4166TIP3    H136693   5.356   3.659   9.528
 4166TIP3    H236694   5.316   3.684   9.672
 4167TIP3   OH236695   4.049   3.650   9.877
 4167TIP3    H136696   4.032   3.626   9.968
 4167TIP3    H236697   4.124   3.596   9.852
 4168TIP3   OH236698   4.250   3.490   9.791
 4168TIP3    H136699   4.241   3.402   9.827
 4168TIP3    H236700   4.339   3.516   9.816
 4169TIP3   OH236701   4.500   3.542   9.907
 4169TIP3    H136702   4.521   3.449   9.903
 4169TIP3    H236703   4.503   3.564  10.001
 4170TIP3   OH236704   4.836   2.071   9.858
 4170TIP3    H136705   4.765   2.008   9.870
 4170TIP3    H236706   4.906   2.021   9.815
 4171TIP3   OH236707   5.314   1.904   9.758
 4171TIP3    H136708   5.367   1.980   9.735
 4171TIP3    H236709   5.223   1.933   9.748
 4172TIP3   OH236710   5.505   2.091   9.665
 4172TIP3    H136711   5.565   2.024   9.632
 4172TIP3    H236712   5.562   2.163   9.692
 4173TIP3   OH236713   4.064   1.982   9.556
 4173TIP3    H136714   3.971   1.970   9.537
 4173TIP3    H236715   4.102   1.895   9.543
 4174TIP3   OH236716   3.996   2.008   9.197
 4174TIP3    H136717   4.030   2.057   9.122
 4174TIP3    H236718   3.932   2.067   9.237
 4175TIP3   OH236719   4.588   1.907   9.574
 4175TIP3    H136720   4.673   1.936   9.541
 4175TIP3    H236721   4.594   1.918   9.669
 4176TIP3   OH236722   5.037   1.950   9.704
 4176TIP3    H136723   4.988   1.963   9.622
 4176TIP3    H236724   5.011   1.863   9.733
 4177TIP3   OH236725   5.249   2.022   9.313
 4177TIP3    H136726   5.169   2.073   9.318
 4177TIP3    H236727   5.220   1.931   9.316
 4178TIP3   OH236728   3.922   3.591   9.177
 4178TIP3    H136729   3.840   3.594   9.126
 4178TIP3    H236730   3.949   3.682   9.183
 4179TIP3   OH236731   4.123   2.155   8.989
 4179TIP3    H136732   4.181   2.100   8.936
 4179TIP3    H236733   4.180   2.192   9.056
 4180TIP3   OH236734   4.555   2.150   9.224
 4180TIP3    H136735   4.587   2.060   9.220
 4180TIP3    H236736   4.609   2.191   9.291
 4181TIP3   OH236737   4.845   3.659   9.068
 4181TIP3    H136738   4.939   3.660   9.052
 4181TIP3    H236739   4.807   3.616   8.992
 4182TIP3   OH236740   5.501   3.664   9.410
 4182TIP3    H136741   5.495   3.572   9.385
 4182TIP3    H236742   5.491   3.712   9.328
 4183TIP3   OH236743   4.050   3.531   8.908
 4183TIP3    H136744   4.037   3.536   9.003
 4183TIP3    H236745   4.145   3.523   8.898
 4184TIP3   OH236746   6.900   2.893   9.506
 4184TIP3    H136747   6.868   2.981   9.483
 4184TIP3    H236748   6.846   2.834   9.452
 4185TIP3   OH236749   6.626   2.862   9.969
 4185TIP3    H136750   6.650   2.804  10.041
 4185TIP3    H236751   6.593   2.804   9.900
 4186TIP3   OH236752   7.047   3.148   9.717
 4186TIP3    H136753   6.994   3.221   9.685
 4186TIP3    H236754   7.089   3.181   9.796
 4187TIP3   OH236755   6.204   3.275   9.902
 4187TIP3    H136756   6.120   3.253   9.942
 4187TIP3    H236757   6.268   3.226   9.952
 4188TIP3   OH236758   5.799   2.631   9.371
 4188TIP3    H136759   5.733   2.686   9.414
 4188TIP3    H236760   5.757   2.603   9.289
 4189TIP3   OH236761   5.825   2.697   9.715
 4189TIP3    H136762   5.885   2.629   9.746
 4189TIP3    H236763   5.864   2.728   9.633
 4190TIP3   OH236764   6.802   3.560   9.778
 4190TIP3    H136765   6.829   3.481   9.731
 4190TIP3    H236766   6.762   3.528   9.858
 4191TIP3   OH236767   6.616   3.131   9.904
 4191TIP3    H136768   6.604   3.038   9.921
 4191TIP3    H236769   6.660   3.165   9.982
 4192TIP3   OH236770   6.801   2.517   9.904
 4192TIP3    H136771   6.833   2.432   9.934
 4192TIP3    H236772   6.835   2.525   9.815
 4193TIP3   OH236773   6.302   2.283   9.642
 4193TIP3    H136774   6.293   2.371   9.606
 4193TIP3    H236775   6.240   2.230   9.593
 4194TIP3   OH236776   7.052   2.311   9.563
 4194TIP3    H136777   7.095   2.297   9.648
 4194TIP3    H236778   7.121   2.344   9.506
 4195TIP3   OH236779   5.970   2.468   9.776
 4195TIP3    H136780   5.938   2.386   9.814
 4195TIP3    H236781   5.967   2.453   9.681
 4196TIP3   OH236782   6.318   2.723   9.725
 4196TIP3    H136783   6.407   2.698   9.750
 4196TIP3    H236784   6.289   2.653   9.666
 4197TIP3   OH236785   6.786   3.119   9.425
 4197TIP3    H136786   6.782   3.138   9.331
 4197TIP3    H236787   6.725   3.181   9.464
 4198TIP3   OH236788   7.147   2.307   9.828
 4198TIP3    H136789   7.066   2.294   9.877
 4198TIP3    H236790   7.214   2.264   9.881
 4199TIP3   OH236791   6.212   2.400   9.879
 4199TIP3    H136792   6.132   2.433   9.839
 4199TIP3    H236793   6.258   2.354   9.808
 4200TIP3   OH236794   5.776   3.198   9.297
 4200TIP3    H136795   5.728   3.249   9.231
 4200TIP3    H236796   5.825   3.263   9.347
 4201TIP3   OH236797   7.144   3.256   9.946
 4201TIP3    H136798   7.105   3.247  10.032
 4201TIP3    H236799   7.178   3.345   9.943
 4202TIP3   OH236800   6.537   1.881   9.845
 4202TIP3    H136801   6.537   1.788   9.867
 4202TIP3    H236802   6.457   1.915   9.885
 4203TIP3   OH236803   6.919   3.375   9.589
 4203TIP3    H136804   6.949   3.317   9.519
 4203TIP3    H236805   6.984   3.445   9.592
 4204TIP3   OH236806   7.094   3.227   9.436
 4204TIP3    H136807   7.147   3.192   9.364
 4204TIP3    H236808   7.139   3.196   9.515
 4205TIP3   OH236809   6.741   2.802   9.293
 4205TIP3    H136810   6.668   2.862   9.276
 4205TIP3    H236811   6.799   2.814   9.218
 4206TIP3   OH236812   6.807   2.739   8.918
 4206TIP3    H136813   6.866   2.755   8.993
 4206TIP3    H236814   6.851   2.672   8.867
 4207TIP3   OH236815   7.129   2.858   9.352
 4207TIP3    H136816   7.055   2.872   9.410
 4207TIP3    H236817   7.180   2.789   9.394
 4208TIP3   OH236818   6.214   2.940   9.578
 4208TIP3    H136819   6.139   2.900   9.534
 4208TIP3    H236820   6.253   2.868   9.628
 4209TIP3   OH236821   6.449   3.196   9.695
 4209TIP3    H136822   6.506   3.243   9.634
 4209TIP3    H236823   6.505   3.176   9.770
 4210TIP3   OH236824   6.174   2.795   9.953
 4210TIP3    H136825   6.226   2.761   9.880
 4210TIP3    H236826   6.157   2.719  10.009
 4211TIP3   OH236827   6.993   2.768   9.127
 4211TIP3    H136828   7.046   2.805   9.198
 4211TIP3    H236829   7.041   2.790   9.047
 4212TIP3   OH236830   6.640   3.329   9.530
 4212TIP3    H136831   6.724   3.362   9.561
 4212TIP3    H236832   6.631   3.366   9.442
 4213TIP3   OH236833   7.346   1.890   9.158
 4213TIP3    H136834   7.255   1.909   9.180
 4213TIP3    H236835   7.382   1.974   9.130
 4214TIP3   OH236836   5.999   2.822   9.436
 4214TIP3    H136837   5.988   2.885   9.364
 4214TIP3    H236838   5.947   2.746   9.410
 4215TIP3   OH236839   7.561   3.360   9.036
 4215TIP3    H136840   7.562   3.455   9.035
 4215TIP3    H236841   7.652   3.334   9.027
 4216TIP3   OH236842   5.709   3.394   9.906
 4216TIP3    H136843   5.766   3.387   9.982
 4216TIP3    H236844   5.622   3.411   9.944
 4217TIP3   OH236845   6.751   3.702   9.372
 4217TIP3    H136846   6.723   3.682   9.282
 4217TIP3    H236847   6.694   3.774   9.399
 4218TIP3   OH236848   6.062   3.657   9.616
 4218TIP3    H136849   6.118   3.631   9.689
 4218TIP3    H236850   5.980   3.610   9.631
 4219TIP3   OH236851   7.007   3.624   9.044
 4219TIP3    H136852   7.058   3.552   9.006
 4219TIP3    H236853   7.023   3.618   9.138
 4220TIP3   OH236854   7.005   3.615   9.320
 4220TIP3    H136855   6.915   3.633   9.347
 4220TIP3    H236856   7.045   3.575   9.397
 4221TIP3   OH236857   6.309   1.986   9.960
 4221TIP3    H136858   6.235   1.993   9.900
 4221TIP3    H236859   6.322   2.075   9.994
 4222TIP3   OH236860   7.105   2.834   8.888
 4222TIP3    H136861   7.072   2.854   8.801
 4222TIP3    H236862   7.198   2.857   8.885
 4223TIP3   OH236863   6.657   2.179   9.037
 4223TIP3    H136864   6.593   2.185   9.108
 4223TIP3    H236865   6.620   2.116   8.976
 4224TIP3   OH236866   6.234   2.533   9.545
 4224TIP3    H136867   6.139   2.520   9.536
 4224TIP3    H236868   6.268   2.517   9.457
 4225TIP3   OH236869   6.769   2.549   9.393
 4225TIP3    H136870   6.742   2.635   9.360
 4225TIP3    H236871   6.837   2.521   9.332
 4226TIP3   OH236872   6.883   2.516   9.640
 4226TIP3    H136873   6.836   2.533   9.558
 4226TIP3    H236874   6.934   2.437   9.622
 4227TIP3   OH236875   6.336   2.248   8.937
 4227TIP3    H136876   6.299   2.241   9.025
 4227TIP3    H236877   6.287   2.318   8.895
 4228TIP3   OH236878   5.719   2.273   9.686
 4228TIP3    H136879   5.790   2.235   9.737
 4228TIP3    H236880   5.741   2.253   9.595
 4229TIP3   OH236881   5.735   2.336   9.156
 4229TIP3    H136882   5.811   2.375   9.114
 4229TIP3    H236883   5.669   2.405   9.156
 4230TIP3   OH236884   6.576   2.213   9.638
 4230TIP3    H136885   6.483   2.226   9.658
 4230TIP3    H236886   6.615   2.188   9.721
 4231TIP3   OH236887   5.972   2.453   9.506
 4231TIP3    H136888   5.909   2.494   9.446
 4231TIP3    H236889   5.989   2.367   9.466
 4232TIP3   OH236890   6.333   2.449   9.305
 4232TIP3    H136891   6.421   2.418   9.328
 4232TIP3    H236892   6.344   2.491   9.220
 4233TIP3   OH236893   6.902   2.267   9.966
 4233TIP3    H136894   6.890   2.265  10.061
 4233TIP3    H236895   6.840   2.203   9.932
 4234TIP3   OH236896   6.359   2.552   9.056
 4234TIP3    H136897   6.305   2.522   8.983
 4234TIP3    H236898   6.432   2.598   9.015
 4235TIP3   OH236899   6.584   2.652   9.783
 4235TIP3    H136900   6.623   2.644   9.696
 4235TIP3    H236901   6.639   2.597   9.839
 4236TIP3   OH236902   6.094   2.197   9.460
 4236TIP3    H136903   6.046   2.120   9.488
 4236TIP3    H236904   6.121   2.177   9.370
 4237TIP3   OH236905   6.522   2.976   9.238
 4237TIP3    H136906   6.456   2.934   9.183
 4237TIP3    H236907   6.471   3.025   9.303
 4238TIP3   OH236908   6.892   2.236   9.165
 4238TIP3    H136909   6.808   2.230   9.119
 4238TIP3    H236910   6.912   2.330   9.167
 4239TIP3   OH236911   6.976   2.499   9.220
 4239TIP3    H136912   7.061   2.476   9.255
 4239TIP3    H236913   6.990   2.583   9.176
 4240TIP3   OH236914   6.074   3.024   9.844
 4240TIP3    H136915   5.981   3.005   9.851
 4240TIP3    H236916   6.117   2.949   9.884
 4241TIP3   OH236917   6.718   3.149   9.151
 4241TIP3    H136918   6.685   3.235   9.174
 4241TIP3    H236919   6.646   3.089   9.171
 4242TIP3   OH236920   7.365   2.559   9.159
 4242TIP3    H136921   7.342   2.528   9.072
 4242TIP3    H236922   7.371   2.654   9.150
 4243TIP3   OH236923   7.382   3.355   9.253
 4243TIP3    H136924   7.339   3.269   9.252
 4243TIP3    H236925   7.447   3.350   9.183
 4244TIP3   OH236926   6.896   2.928   9.918
 4244TIP3    H136927   6.807   2.925   9.953
 4244TIP3    H236928   6.951   2.941   9.995
 4245TIP3   OH236929   6.178   3.306   9.533
 4245TIP3    H136930   6.228   3.388   9.528
 4245TIP3    H236931   6.093   3.327   9.494
 4246TIP3   OH236932   5.903   2.772   9.043
 4246TIP3    H136933   5.937   2.842   9.099
 4246TIP3    H236934   5.808   2.775   9.055
 4247TIP3   OH236935   6.333   3.113   9.394
 4247TIP3    H136936   6.294   3.189   9.437
 4247TIP3    H236937   6.300   3.038   9.444
 4248TIP3   OH236938   6.284   3.571   9.483
 4248TIP3    H136939   6.198   3.602   9.511
 4248TIP3    H236940   6.344   3.640   9.510
 4249TIP3   OH236941   7.156   3.176   9.015
 4249TIP3    H136942   7.178   3.141   9.101
 4249TIP3    H236943   7.070   3.138   8.994
 4250TIP3   OH236944   7.556   3.638   9.052
 4250TIP3    H136945   7.554   3.697   8.977
 4250TIP3    H236946   7.489   3.671   9.112
 4251TIP3   OH236947   7.258   3.086   9.258
 4251TIP3    H136948   7.215   3.004   9.283
 4251TIP3    H236949   7.351   3.065   9.258
 4252TIP3   OH236950   6.471   3.260   8.918
 4252TIP3    H136951   6.462   3.182   8.863
 4252TIP3    H236952   6.424   3.238   8.999
 4253TIP3   OH236953   6.326   3.244   9.150
 4253TIP3    H136954   6.331   3.193   9.231
 4253TIP3    H236955   6.338   3.335   9.177
 4254TIP3   OH236956   5.949   2.993   9.220
 4254TIP3    H136957   5.880   3.052   9.251
 4254TIP3    H236958   6.003   3.047   9.163
 4255TIP3   OH236959   6.924   2.114   9.406
 4255TIP3    H136960   6.914   2.161   9.323
 4255TIP3    H236961   6.962   2.178   9.466
 4256TIP3   OH236962   6.635   3.393   9.255
 4256TIP3    H136963   6.544   3.422   9.248
 4256TIP3    H236964   6.686   3.463   9.213
 4257TIP3   OH236965   6.576   2.353   9.401
 4257TIP3    H136966   6.644   2.419   9.399
 4257TIP3    H236967   6.582   2.314   9.489
 4258TIP3   OH236968   6.669   2.021   9.459
 4258TIP3    H136969   6.637   2.088   9.520
 4258TIP3    H236970   6.759   2.046   9.441
 4259TIP3   OH236971   6.382   3.498   9.239
 4259TIP3    H136972   6.402   3.581   9.196
 4259TIP3    H236973   6.342   3.522   9.322
 4260TIP3   OH236974   6.223   2.217   9.196
 4260TIP3    H136975   6.233   2.304   9.234
 4260TIP3    H236976   6.306   2.173   9.215
 4261TIP3   OH236977   7.064   2.710   9.722
 4261TIP3    H136978   6.999   2.645   9.694
 4261TIP3    H236979   7.143   2.659   9.739
 4262TIP3   OH236980   6.082   3.161   9.047
 4262TIP3    H136981   6.159   3.207   9.080
 4262TIP3    H236982   6.117   3.102   8.980
 4263TIP3   OH236983   5.926   2.493   9.041
 4263TIP3    H136984   5.927   2.588   9.055
 4263TIP3    H236985   5.953   2.481   8.950
 4264TIP3   OH236986   7.202   3.531   9.951
 4264TIP3    H136987   7.192   3.600   9.885
 4264TIP3    H236988   7.280   3.556  10.000
 4265TIP3   OH236989   6.078   2.000   9.807
 4265TIP3    H136990   6.048   1.991   9.716
 4265TIP3    H236991   6.044   1.923   9.851
 4266TIP3   OH236992   5.923   3.415   9.425
 4266TIP3    H136993   5.870   3.450   9.496
 4266TIP3    H236994   5.918   3.482   9.356
 4267TIP3   OH236995   6.666   3.450   8.893
 4267TIP3    H136996   6.599   3.381   8.902
 4267TIP3    H236997   6.742   3.404   8.857
 4268TIP3   OH236998   7.137   3.426   8.909
 4268TIP3    H136999   7.152   3.343   8.954
 4268TIP3    H237000   7.204   3.429   8.840
 4269TIP3   OH237001   6.204   2.982   8.881
 4269TIP3    H137002   6.238   2.929   8.953
 4269TIP3    H237003   6.282   3.008   8.831
 4270TIP3   OH237004   6.893   3.106   8.941
 4270TIP3    H137005   6.833   3.116   9.015
 4270TIP3    H237006   6.847   3.050   8.880
 4271TIP3   OH237007   6.335   2.841   9.082
 4271TIP3    H137008   6.290   2.764   9.115
 4271TIP3    H237009   6.408   2.807   9.030
 4272TIP3   OH237010   6.535   2.727   8.936
 4272TIP3    H137011   6.514   2.749   8.845
 4272TIP3    H237012   6.630   2.728   8.940
 4273TIP3   OH237013   7.370   2.920   8.852
 4273TIP3    H137014   7.354   2.904   8.759
 4273TIP3    H237015   7.381   3.015   8.859
 4274TIP3   OH237016   6.490   3.731   9.136
 4274TIP3    H137017   6.577   3.696   9.116
 4274TIP3    H237018   6.473   3.794   9.066
 4275TIP3   OH237019   5.859   3.270   8.930
 4275TIP3    H137020   5.937   3.239   8.977
 4275TIP3    H237021   5.828   3.194   8.881
 4276TIP3   OH237022   5.702   3.755   9.569
 4276TIP3    H137023   5.634   3.723   9.509
 4276TIP3    H237024   5.730   3.677   9.617
 4277TIP3   OH237025   5.823   3.542   9.703
 4277TIP3    H137026   5.769   3.474   9.743
 4277TIP3    H237027   5.863   3.588   9.777
 4278TIP3   OH237028   7.524   3.021   9.268
 4278TIP3    H137029   7.601   3.077   9.277
 4278TIP3    H237030   7.527   2.963   9.344
 4279TIP3   OH237031   7.478   2.826   9.462
 4279TIP3    H137032   7.398   2.775   9.466
 4279TIP3    H237033   7.520   2.813   9.547
 4280TIP3   OH237034   7.576   2.993   9.877
 4280TIP3    H137035   7.668   2.983   9.905
 4280TIP3    H237036   7.562   3.088   9.876
 4281TIP3   OH237037   7.397   2.825   9.113
 4281TIP3    H137038   7.389   2.856   9.023
 4281TIP3    H237039   7.448   2.893   9.157
 4282TIP3   OH237040   7.281   2.476   8.912
 4282TIP3    H137041   7.251   2.512   8.828
 4282TIP3    H237042   7.260   2.383   8.907
 4283TIP3   OH237043   7.263   2.652   9.482
 4283TIP3    H137044   7.251   2.574   9.427
 4283TIP3    H237045   7.268   2.618   9.571
 4284TIP3   OH237046   5.828   2.913   9.892
 4284TIP3    H137047   5.817   2.840   9.831
 4284TIP3    H237048   5.816   2.875   9.979
 4285TIP3   OH237049   7.227   2.208   8.900
 4285TIP3    H137050   7.258   2.158   8.976
 4285TIP3    H237051   7.134   2.186   8.894
 4286TIP3   OH237052   7.220   2.413   9.341
 4286TIP3    H137053   7.240   2.320   9.342
 4286TIP3    H237054   7.280   2.450   9.277
 4287TIP3   OH237055   7.278   2.533   9.733
 4287TIP3    H137056   7.371   2.520   9.751
 4287TIP3    H237057   7.235   2.455   9.768
 4288TIP3   OH237058   7.252   2.135   9.384
 4288TIP3    H137059   7.262   2.105   9.475
 4288TIP3    H237060   7.196   2.070   9.343
 4289TIP3   OH237061   5.921   2.214   9.878
 4289TIP3    H137062   5.980   2.146   9.848
 4289TIP3    H237063   5.916   2.202   9.973
 4290TIP3   OH237064   5.654   2.500   9.836
 4290TIP3    H137065   5.670   2.422   9.782
 4290TIP3    H237066   5.692   2.572   9.785
 4291TIP3   OH237067   7.467   2.115   9.042
 4291TIP3    H137068   7.497   2.057   8.972
 4291TIP3    H237069   7.495   2.202   9.015
 4292TIP3   OH237070   5.722   2.215   9.401
 4292TIP3    H137071   5.628   2.199   9.407
 4292TIP3    H237072   5.733   2.263   9.320
 4293TIP3   OH237073   7.124   3.558   9.565
 4293TIP3    H137074   7.207   3.556   9.517
 4293TIP3    H237075   7.141   3.617   9.639
 4294TIP3   OH237076   5.971   3.647   9.911
 4294TIP3    H137077   5.940   3.612   9.994
 4294TIP3    H237078   6.058   3.608   9.900
 4295TIP3   OH237079   6.212   3.540   9.825
 4295TIP3    H137080   6.208   3.446   9.842
 4295TIP3    H237081   6.300   3.566   9.852
 4296TIP3   OH237082   6.458   3.586   9.944
 4296TIP3    H137083   6.540   3.540   9.961
 4296TIP3    H237084   6.426   3.610  10.031
 4297TIP3   OH237085   6.725   2.084   9.844
 4297TIP3    H137086   6.661   2.013   9.850
 4297TIP3    H237087   6.797   2.047   9.794
 4298TIP3   OH237088   7.165   1.970   9.874
 4298TIP3    H137089   7.228   1.989   9.805
 4298TIP3    H237090   7.079   1.991   9.836
 4299TIP3   OH237091   7.322   2.021   9.646
 4299TIP3    H137092   7.388   1.953   9.635
 4299TIP3    H237093   7.371   2.103   9.645
 4300TIP3   OH237094   5.961   1.974   9.554
 4300TIP3    H137095   5.866   1.973   9.545
 4300TIP3    H237096   5.988   1.884   9.535
 4301TIP3   OH237097   5.859   2.010   9.232
 4301TIP3    H137098   5.900   2.065   9.166
 4301TIP3    H237099   5.818   2.073   9.292
 4302TIP3   OH237100   6.454   1.882   9.577
 4302TIP3    H137101   6.525   1.921   9.526
 4302TIP3    H237102   6.487   1.881   9.667
 4303TIP3   OH237103   6.932   1.953   9.719
 4303TIP3    H137104   6.969   1.932   9.633
 4303TIP3    H237105   6.928   1.869   9.764
 4304TIP3   OH237106   7.095   1.936   9.272
 4304TIP3    H137107   7.022   1.984   9.313
 4304TIP3    H237108   7.074   1.844   9.285
 4305TIP3   OH237109   5.880   3.620   9.228
 4305TIP3    H137110   5.798   3.607   9.180
 4305TIP3    H237111   5.892   3.715   9.230
 4306TIP3   OH237112   6.020   2.124   9.028
 4306TIP3    H137113   6.067   2.063   8.971
 4306TIP3    H237114   6.088   2.159   9.085
 4307TIP3   OH237115   6.480   2.143   9.250
 4307TIP3    H137116   6.512   2.058   9.280
 4307TIP3    H237117   6.519   2.206   9.311
 4308TIP3   OH237118   6.736   3.609   9.101
 4308TIP3    H137119   6.828   3.627   9.082
 4308TIP3    H237120   6.705   3.559   9.025
 4309TIP3   OH237121   7.350   3.584   9.403
 4309TIP3    H137122   7.363   3.499   9.360
 4309TIP3    H237123   7.358   3.648   9.333
 4310TIP3   OH237124   6.013   3.576   8.957
 4310TIP3    H137125   5.993   3.563   9.050
 4310TIP3    H237126   6.083   3.514   8.939
 4311TIP3   OH237127   7.607   2.638   9.302
 4311TIP3    H137128   7.558   2.708   9.346
 4311TIP3    H237129   7.542   2.594   9.247
 4312TIP3   OH237130   7.571   3.272   9.912
 4312TIP3    H137131   7.665   3.287   9.906
 4312TIP3    H237132   7.548   3.298  10.001
 4313TIP3   OH237133   7.472   2.239   9.589
 4313TIP3    H137134   7.553   2.268   9.631
 4313TIP3    H237135   7.494   2.236   9.495
 4314TIP3   OH237136   7.465   3.723   9.613
 4314TIP3    H137137   7.427   3.673   9.541
 4314TIP3    H237138   7.467   3.662   9.687
 4315TIP3   OH237139   7.505   3.543   9.817
 4315TIP3    H137140   7.490   3.450   9.835
 4315TIP3    H237141   7.600   3.552   9.818
 4316TIP3   OH237142   7.597   2.774   9.706
 4316TIP3    H137143   7.690   2.773   9.684
 4316TIP3    H237144   7.587   2.851   9.763
 4317TIP3   OH237145   7.556   2.512   9.787
 4317TIP3    H137146   7.611   2.454   9.733
 4317TIP3    H237147   7.573   2.599   9.752
 4318TIP3   OH237148   7.509   2.189   9.311
 4318TIP3    H137149   7.419   2.167   9.334
 4318TIP3    H237150   7.519   2.154   9.222
 4319TIP3   OH237151   1.247   4.791   9.551
 4319TIP3    H137152   1.225   4.880   9.524
 4319TIP3    H237153   1.187   4.735   9.500
 4320TIP3   OH237154   1.052   4.797   9.868
 4320TIP3    H137155   1.076   4.729   9.931
 4320TIP3    H237156   1.116   4.788   9.798
 4321TIP3   OH237157   1.577   4.975   9.777
 4321TIP3    H137158   1.519   4.899   9.777
 4321TIP3    H237159   1.566   5.013   9.865
 4322TIP3   OH237160   0.440   5.081   9.835
 4322TIP3    H137161   0.427   4.995   9.793
 4322TIP3    H237162   0.530   5.078   9.867
 4323TIP3   OH237163   0.217   4.517   9.418
 4323TIP3    H137164   0.229   4.492   9.510
 4323TIP3    H237165   0.126   4.544   9.412
 4324TIP3   OH237166   0.203   4.675   9.768
 4324TIP3    H137167   0.230   4.589   9.737
 4324TIP3    H237168   0.272   4.735   9.740
 4325TIP3   OH237169   1.133   5.440   9.786
 4325TIP3    H137170   1.185   5.370   9.746
 4325TIP3    H237171   1.111   5.406   9.872
 4326TIP3   OH237172   0.901   4.972   0.012
 4326TIP3    H137173   0.946   4.912  -0.048
 4326TIP3    H237174   0.968   4.997   0.075
 4327TIP3   OH237175   1.185   4.377   9.913
 4327TIP3    H137176   1.194   4.286   9.941
 4327TIP3    H237177   1.224   4.379   9.826
 4328TIP3   OH237178   0.635   4.150   9.705
 4328TIP3    H137179   0.645   4.227   9.650
 4328TIP3    H237180   0.586   4.087   9.651
 4329TIP3   OH237181   1.402   4.149   9.564
 4329TIP3    H137182   1.420   4.124   9.654
 4329TIP3    H237183   1.485   4.137   9.518
 4330TIP3   OH237184   0.249   4.417   9.680
 4330TIP3    H137185   0.323   4.381   9.728
 4330TIP3    H237186   0.196   4.341   9.657
 4331TIP3   OH237187   0.738   4.576   9.692
 4331TIP3    H137188   0.817   4.538   9.730
 4331TIP3    H237189   0.695   4.502   9.649
 4332TIP3   OH237190   1.157   5.013   9.421
 4332TIP3    H137191   1.128   5.003   9.330
 4332TIP3    H237192   1.136   5.104   9.443
 4333TIP3   OH237193   1.441   4.118   9.835
 4333TIP3    H137194   1.352   4.112   9.868
 4333TIP3    H237195   1.496   4.107   9.912
 4334TIP3   OH237196   0.442   4.298   9.838
 4334TIP3    H137197   0.478   4.344   9.914
 4334TIP3    H237198   0.516   4.246   9.805
 4335TIP3   OH237199   0.056   5.076   9.284
 4335TIP3    H137200   0.055   5.105   9.193
 4335TIP3    H237201   0.080   5.154   9.334
 4336TIP3   OH237202   1.595   5.060   0.045
 4336TIP3    H137203   1.509   5.057   0.087
 4336TIP3    H237204   1.639   5.134   0.086
 4337TIP3   OH237205   0.787   3.765   9.800
 4337TIP3    H137206   0.762   3.676   9.823
 4337TIP3    H237207   0.745   3.820   9.867
 4338TIP3   OH237208   1.309   5.301   9.616
 4338TIP3    H137209   1.362   5.225   9.595
 4338TIP3    H237210   1.371   5.375   9.614
 4339TIP3   OH237211   1.489   5.108   9.550
 4339TIP3    H137212   1.535   5.074   9.472
 4339TIP3    H237213   1.532   5.064   9.623
 4340TIP3   OH237214   1.092   4.678   9.348
 4340TIP3    H137215   1.011   4.726   9.331
 4340TIP3    H237216   1.147   4.695   9.272
 4341TIP3   OH237217   1.100   4.649   8.966
 4341TIP3    H137218   1.156   4.670   9.040
 4341TIP3    H237219   1.146   4.579   8.920
 4342TIP3   OH237220   1.463   4.756   9.375
 4342TIP3    H137221   1.398   4.770   9.444
 4342TIP3    H237222   1.527   4.697   9.415
 4343TIP3   OH237223   0.608   4.747   9.512
 4343TIP3    H137224   0.571   4.681   9.453
 4343TIP3    H237225   0.663   4.696   9.573
 4344TIP3   OH237226   0.721   5.128   9.870
 4344TIP3    H137227   0.757   5.117   9.782
 4344TIP3    H237228   0.780   5.079   9.926
 4345TIP3   OH237229   0.569   4.666   9.895
 4345TIP3    H137230   0.642   4.640   9.837
 4345TIP3    H237231   0.608   4.728   9.956
 4346TIP3   OH237232   1.308   4.684   9.155
 4346TIP3    H137233   1.363   4.716   9.227
 4346TIP3    H237234   1.357   4.705   9.076
 4347TIP3   OH237235   1.083   5.280   9.458
 4347TIP3    H137236   1.154   5.287   9.522
 4347TIP3    H237237   1.068   5.371   9.430
 4348TIP3   OH237238   1.659   3.799   9.181
 4348TIP3    H137239   1.578   3.825   9.226
 4348TIP3    H237240   1.692   3.879   9.141
 4349TIP3   OH237241   0.489   4.568   9.334
 4349TIP3    H137242   0.398   4.545   9.354
 4349TIP3    H237243   0.533   4.484   9.322
 4350TIP3   OH237244   1.830   5.259   9.028
 4350TIP3    H137245   1.839   5.354   9.030
 4350TIP3    H237246   1.920   5.226   9.032
 4351TIP3   OH237247   0.187   5.186   9.904
 4351TIP3    H137248   0.268   5.150   9.867
 4351TIP3    H237249   0.185   5.153   9.993
 4352TIP3   OH237250   1.059   5.532   9.349
 4352TIP3    H137251   1.041   5.535   9.255
 4352TIP3    H237252   1.024   5.614   9.383
 4353TIP3   OH237253   0.395   5.425   9.484
 4353TIP3    H137254   0.404   5.390   9.573
 4353TIP3    H237255   0.317   5.381   9.450
 4354TIP3   OH237256   1.326   5.526   9.053
 4354TIP3    H137257   1.382   5.455   9.023
 4354TIP3    H237258   1.339   5.529   9.148
 4355TIP3   OH237259   1.334   5.521   9.331
 4355TIP3    H137260   1.240   5.516   9.347
 4355TIP3    H237261   1.374   5.493   9.413
 4356TIP3   OH237262   0.638   3.899   9.994
 4356TIP3    H137263   0.562   3.898   9.936
 4356TIP3    H237264   0.646   3.990  10.022
 4357TIP3   OH237265   1.448   4.737   8.927
 4357TIP3    H137266   1.418   4.739   8.836
 4357TIP3    H237267   1.542   4.757   8.921
 4358TIP3   OH237268   0.995   4.102   9.009
 4358TIP3    H137269   0.942   4.103   9.088
 4358TIP3    H237270   0.957   4.032   8.955
 4359TIP3   OH237271   0.631   4.372   9.545
 4359TIP3    H137272   0.549   4.337   9.509
 4359TIP3    H237273   0.687   4.383   9.468
 4360TIP3   OH237274   1.131   4.417   9.423
 4360TIP3    H137275   1.103   4.507   9.406
 4360TIP3    H237276   1.196   4.399   9.354
 4361TIP3   OH237277   1.274   4.372   9.655
 4361TIP3    H137278   1.214   4.398   9.585
 4361TIP3    H237279   1.315   4.291   9.623
 4362TIP3   OH237280   0.660   4.142   8.900
 4362TIP3    H137281   0.640   4.158   8.992
 4362TIP3    H237282   0.574   4.142   8.857
 4363TIP3   OH237283   0.106   4.186   9.628
 4363TIP3    H137284   0.151   4.139   9.699
 4363TIP3    H237285   0.121   4.132   9.551
 4364TIP3   OH237286   0.213   4.292   9.258
 4364TIP3    H137287   0.196   4.318   9.167
 4364TIP3    H237288   0.210   4.374   9.307
 4365TIP3   OH237289   0.911   4.155   9.705
 4365TIP3    H137290   0.820   4.133   9.721
 4365TIP3    H237291   0.960   4.076   9.726
 4366TIP3   OH237292   0.447   4.239   9.395
 4366TIP3    H137293   0.363   4.241   9.349
 4366TIP3    H237294   0.452   4.150   9.431
 4367TIP3   OH237295   0.720   4.389   9.288
 4367TIP3    H137296   0.797   4.332   9.294
 4367TIP3    H237297   0.702   4.395   9.194
 4368TIP3   OH237298   1.204   4.109  -0.018
 4368TIP3    H137299   1.197   4.114   0.078
 4368TIP3    H237300   1.149   4.035  -0.042
 4369TIP3   OH237301   0.646   4.437   9.027
 4369TIP3    H137302   0.589   4.423   8.952
 4369TIP3    H237303   0.710   4.502   8.997
 4370TIP3   OH237304   0.927   4.410   9.811
 4370TIP3    H137305   0.917   4.324   9.771
 4370TIP3    H237306   1.016   4.409   9.848
 4371TIP3   OH237307   0.503   3.995   9.511
 4371TIP3    H137308   0.430   3.933   9.522
 4371TIP3    H237309   0.581   3.940   9.508
 4372TIP3   OH237310   0.855   4.823   9.311
 4372TIP3    H137311   0.779   4.796   9.259
 4372TIP3    H237312   0.820   4.840   9.398
 4373TIP3   OH237313   1.229   4.151   9.150
 4373TIP3    H137314   1.149   4.153   9.098
 4373TIP3    H237315   1.254   4.243   9.159
 4374TIP3   OH237316   1.323   4.405   9.225
 4374TIP3    H137317   1.411   4.389   9.260
 4374TIP3    H237318   1.327   4.494   9.191
 4375TIP3   OH237319   0.433   4.825   9.719
 4375TIP3    H137320   0.486   4.812   9.641
 4375TIP3    H237321   0.472   4.769   9.785
 4376TIP3   OH237322   1.027   4.989   9.173
 4376TIP3    H137323   0.984   5.073   9.186
 4376TIP3    H237324   0.967   4.925   9.211
 4377TIP3   OH237325   1.704   4.438   9.092
 4377TIP3    H137326   1.642   4.438   9.020
 4377TIP3    H237327   1.745   4.524   9.091
 4378TIP3   OH237328   1.687   5.257   9.268
 4378TIP3    H137329   1.649   5.171   9.285
 4378TIP3    H237330   1.731   5.248   9.183
 4379TIP3   OH237331   1.405   4.757   9.771
 4379TIP3    H137332   1.347   4.774   9.697
 4379TIP3    H237333   1.443   4.671   9.754
 4380TIP3   OH237334   0.608   5.181   9.517
 4380TIP3    H137335   0.642   5.252   9.463
 4380TIP3    H237336   0.562   5.225   9.589
 4381TIP3   OH237337   0.154   4.684   9.030
 4381TIP3    H137338   0.195   4.747   9.089
 4381TIP3    H237339   0.060   4.693   9.048
 4382TIP3   OH237340   0.524   4.966   9.364
 4382TIP3    H137341   0.547   5.044   9.415
 4382TIP3    H237342   0.553   4.893   9.417
 4383TIP3   OH237343   0.650   5.422   9.381
 4383TIP3    H137344   0.559   5.436   9.409
 4383TIP3    H237345   0.700   5.490   9.426
 4384TIP3   OH237346   1.483   5.071   9.056
 4384TIP3    H137347   1.504   5.042   9.144
 4384TIP3    H237348   1.396   5.035   9.039
 4385TIP3   OH237349   1.854   5.527   9.069
 4385TIP3    H137350   1.918   5.598   9.081
 4385TIP3    H237351   1.771   5.564   9.099
 4386TIP3   OH237352   1.596   4.987   9.303
 4386TIP3    H137353   1.541   4.912   9.326
 4386TIP3    H237354   1.685   4.950   9.298
 4387TIP3   OH237355   0.820   5.106   8.886
 4387TIP3    H137356   0.786   5.034   8.833
 4387TIP3    H237357   0.771   5.100   8.968
 4388TIP3   OH237358   0.671   5.110   9.123
 4388TIP3    H137359   0.741   5.111   9.188
 4388TIP3    H237360   0.650   5.202   9.109
 4389TIP3   OH237361   0.268   4.884   9.201
 4389TIP3    H137362   0.285   4.857   9.291
 4389TIP3    H237363   0.202   4.953   9.208
 4390TIP3   OH237364   1.223   4.023   9.392
 4390TIP3    H137365   1.224   4.072   9.309
 4390TIP3    H237366   1.272   4.078   9.453
 4391TIP3   OH237367   0.891   5.211   9.267
 4391TIP3    H137368   0.853   5.297   9.249
 4391TIP3    H237369   0.950   5.226   9.341
 4392TIP3   OH237370   0.926   4.235   9.437
 4392TIP3    H137371   0.998   4.297   9.434
 4392TIP3    H237372   0.921   4.208   9.529
 4393TIP3   OH237373   0.996   3.895   9.475
 4393TIP3    H137374   1.011   3.903   9.569
 4393TIP3    H237375   1.070   3.940   9.435
 4394TIP3   OH237376   0.665   5.387   9.110
 4394TIP3    H137377   0.707   5.468   9.081
 4394TIP3    H237378   0.648   5.402   9.203
 4395TIP3   OH237379   0.590   4.131   9.170
 4395TIP3    H137380   0.560   4.188   9.241
 4395TIP3    H237381   0.677   4.103   9.197
 4396TIP3   OH237382   1.505   4.505   9.727
 4396TIP3    H137383   1.426   4.454   9.710
 4396TIP3    H237384   1.550   4.457   9.797
 4397TIP3   OH237385   0.371   5.098   8.991
 4397TIP3    H137386   0.413   5.179   8.962
 4397TIP3    H237387   0.364   5.045   8.912
 4398TIP3   OH237388   0.146   4.407   9.017
 4398TIP3    H137389   0.153   4.502   9.025
 4398TIP3    H237390   0.063   4.393   8.971
 4399TIP3   OH237391   1.585   5.469   9.937
 4399TIP3    H137392   1.571   5.541   9.876
 4399TIP3    H237393   1.647   5.503  10.001
 4400TIP3   OH237394   0.418   3.874   9.819
 4400TIP3    H137395   0.394   3.860   9.727
 4400TIP3    H237396   0.380   3.800   9.865
 4401TIP3   OH237397   0.147   5.345   9.362
 4401TIP3    H137398   0.110   5.412   9.420
 4401TIP3    H237399   0.144   5.385   9.275
 4402TIP3   OH237400   0.981   5.330   8.883
 4402TIP3    H137401   0.924   5.253   8.886
 4402TIP3    H237402   1.067   5.294   8.863
 4403TIP3   OH237403   1.473   5.324   8.946
 4403TIP3    H137404   1.491   5.243   8.994
 4403TIP3    H237405   1.545   5.332   8.884
 4404TIP3   OH237406   0.525   4.855   8.912
 4404TIP3    H137407   0.479   4.777   8.879
 4404TIP3    H237408   0.596   4.869   8.849
 4405TIP3   OH237409   1.224   4.998   8.980
 4405TIP3    H137410   1.156   4.991   9.047
 4405TIP3    H237411   1.194   4.941   8.909
 4406TIP3   OH237412   0.631   4.745   9.168
 4406TIP3    H137413   0.586   4.673   9.212
 4406TIP3    H237414   0.681   4.703   9.098
 4407TIP3   OH237415   0.814   4.648   8.968
 4407TIP3    H137416   0.806   4.653   8.872
 4407TIP3    H237417   0.909   4.650   8.984
 4408TIP3   OH237418   1.717   4.809   8.867
 4408TIP3    H137419   1.706   4.784   8.775
 4408TIP3    H237420   1.712   4.904   8.867
 4409TIP3   OH237421   0.795   5.617   9.046
 4409TIP3    H137422   0.887   5.595   9.060
 4409TIP3    H237423   0.797   5.691   8.985
 4410TIP3   OH237424   0.089   5.120   9.016
 4410TIP3    H137425   0.185   5.125   9.012
 4410TIP3    H237426   0.065   5.064   8.942
 4411TIP3   OH237427   0.074   5.549   9.542
 4411TIP3    H137428  -0.013   5.590   9.549
 4411TIP3    H237429   0.087   5.506   9.626
 4412TIP3   OH237430   0.113   5.426   9.788
 4412TIP3    H137431   0.134   5.338   9.820
 4412TIP3    H237432   0.180   5.482   9.828
 4413TIP3   OH237433   1.845   4.863   9.296
 4413TIP3    H137434   1.912   4.930   9.303
 4413TIP3    H237435   1.869   4.798   9.362
 4414TIP3   OH237436   1.905   4.662   9.479
 4414TIP3    H137437   1.816   4.634   9.500
 4414TIP3    H237438   1.947   4.678   9.564
 4415TIP3   OH237439   1.864   5.061   9.960
 4415TIP3    H137440   1.901   4.978   9.932
 4415TIP3    H237441   1.769   5.046   9.962
 4416TIP3   OH237442   1.827   4.686   9.084
 4416TIP3    H137443   1.784   4.730   9.011
 4416TIP3    H237444   1.824   4.749   9.156
 4417TIP3   OH237445   1.533   4.405   8.873
 4417TIP3    H137446   1.570   4.419   8.785
 4417TIP3    H237447   1.539   4.311   8.886
 4418TIP3   OH237448   1.636   4.570   9.495
 4418TIP3    H137449   1.621   4.493   9.441
 4418TIP3    H237450   1.597   4.549   9.579
 4419TIP3   OH237451   0.127   4.806  10.001
 4419TIP3    H137452   0.162   4.758   9.925
 4419TIP3    H237453   0.126   4.741  10.071
 4420TIP3   OH237454   1.575   4.135   8.876
 4420TIP3    H137455   1.623   4.090   8.946
 4420TIP3    H237456   1.487   4.097   8.879
 4421TIP3   OH237457   1.583   4.350   9.327
 4421TIP3    H137458   1.606   4.260   9.350
 4421TIP3    H237459   1.632   4.368   9.248
 4422TIP3   OH237460   1.662   4.366   9.911
 4422TIP3    H137461   1.749   4.405   9.911
 4422TIP3    H237462   1.675   4.278   9.875
 4423TIP3   OH237463   1.632   4.077   9.418
 4423TIP3    H137464   1.676   4.038   9.493
 4423TIP3    H237465   1.579   4.007   9.381
 4424TIP3   OH237466   0.256   4.097   9.834
 4424TIP3    H137467   0.306   4.016   9.845
 4424TIP3    H237468   0.319   4.167   9.852
 4425TIP3   OH237469   0.096   4.412   9.968
 4425TIP3    H137470   0.129   4.362   9.892
 4425TIP3    H237471   0.033   4.473   9.931
 4426TIP3   OH237472   1.756   4.015   9.046
 4426TIP3    H137473   1.803   3.973   8.974
 4426TIP3    H237474   1.813   4.087   9.073
 4427TIP3   OH237475   0.100   4.074   9.375
 4427TIP3    H137476   0.008   4.074   9.348
 4427TIP3    H237477   0.139   4.149   9.330
 4428TIP3   OH237478   1.477   5.520   9.574
 4428TIP3    H137479   1.554   5.505   9.519
 4428TIP3    H237480   1.508   5.576   9.645
 4429TIP3   OH237481   0.341   5.532   9.899
 4429TIP3    H137482   0.367   5.541   9.991
 4429TIP3    H237483   0.398   5.464   9.864
 4430TIP3   OH237484   0.483   5.331   9.733
 4430TIP3    H137485   0.461   5.248   9.773
 4430TIP3    H237486   0.560   5.362   9.781
 4431TIP3   OH237487   0.687   5.406   9.905
 4431TIP3    H137488   0.713   5.314   9.913
 4431TIP3    H237489   0.698   5.442   9.993
 4432TIP3   OH237490   1.047   3.917   9.749
 4432TIP3    H137491   1.006   3.837   9.781
 4432TIP3    H237492   1.141   3.896   9.745
 4433TIP3   OH237493   1.593   3.825   9.816
 4433TIP3    H137494   1.649   3.883   9.764
 4433TIP3    H237495   1.506   3.864   9.809
 4434TIP3   OH237496   1.762   3.958   9.631
 4434TIP3    H137497   1.816   3.884   9.600
 4434TIP3    H237498   1.826   4.024   9.658
 4435TIP3   OH237499   0.313   3.804   9.566
 4435TIP3    H137500   0.219   3.795   9.553
 4435TIP3    H237501   0.349   3.718   9.542
 4436TIP3   OH237502   0.183   3.869   9.206
 4436TIP3    H137503   0.245   3.920   9.153
 4436TIP3    H237504   0.157   3.929   9.276
 4437TIP3   OH237505   0.731   3.841   9.541
 4437TIP3    H137506   0.816   3.860   9.502
 4437TIP3    H237507   0.751   3.819   9.632
 4438TIP3   OH237508   1.313   3.827   9.736
 4438TIP3    H137509   1.363   3.784   9.666
 4438TIP3    H237510   1.264   3.756   9.777
 4439TIP3   OH237511   1.452   3.875   9.343
 4439TIP3    H137512   1.368   3.920   9.357
 4439TIP3    H237513   1.431   3.782   9.352
 4440TIP3   OH237514   0.118   5.483   9.118
 4440TIP3    H137515   0.026   5.489   9.090
 4440TIP3    H237516   0.139   5.571   9.150
 4441TIP3   OH237517   0.386   3.986   9.057
 4441TIP3    H137518   0.426   3.901   9.039
 4441TIP3    H237519   0.455   4.035   9.103
 4442TIP3   OH237520   0.845   4.062   9.239
 4442TIP3    H137521   0.859   3.968   9.255
 4442TIP3    H237522   0.880   4.104   9.318
 4443TIP3   OH237523   1.049   5.520   9.072
 4443TIP3    H137524   1.144   5.529   9.059
 4443TIP3    H237525   1.023   5.452   9.010
 4444TIP3   OH237526   1.692   5.499   9.396
 4444TIP3    H137527   1.691   5.410   9.361
 4444TIP3    H237528   1.679   5.555   9.320
 4445TIP3   OH237529   0.283   5.494   8.888
 4445TIP3    H137530   0.237   5.484   8.972
 4445TIP3    H237531   0.350   5.426   8.889
 4446TIP3   OH237532   3.126   4.818   9.544
 4446TIP3    H137533   3.099   4.908   9.522
 4446TIP3    H237534   3.065   4.763   9.496
 4447TIP3   OH237535   2.837   4.695   9.936
 4447TIP3    H137536   2.881   4.655  10.011
 4447TIP3    H237537   2.829   4.623   9.872
 4448TIP3   OH237538   3.435   5.029   9.740
 4448TIP3    H137539   3.385   4.951   9.762
 4448TIP3    H237540   3.476   5.056   9.822
 4449TIP3   OH237541   2.331   5.070   9.872
 4449TIP3    H137542   2.318   4.987   9.826
 4449TIP3    H237543   2.425   5.082   9.874
 4450TIP3   OH237544   2.031   4.446   9.348
 4450TIP3    H137545   1.993   4.525   9.387
 4450TIP3    H237546   1.981   4.431   9.269
 4451TIP3   OH237547   2.085   4.691   9.723
 4451TIP3    H137548   2.115   4.600   9.726
 4451TIP3    H237549   2.165   4.743   9.723
 4452TIP3   OH237550   3.015   5.481   9.813
 4452TIP3    H137551   3.062   5.438   9.742
 4452TIP3    H237552   3.021   5.420   9.887
 4453TIP3   OH237553   2.739   4.949   9.931
 4453TIP3    H137554   2.784   4.865   9.924
 4453TIP3    H237555   2.792   4.998   9.994
 4454TIP3   OH237556   3.061   4.371   9.957
 4454TIP3    H137557   3.089   4.282   9.979
 4454TIP3    H237558   3.086   4.383   9.865
 4455TIP3   OH237559   2.521   4.116   9.692
 4455TIP3    H137560   2.493   4.183   9.629
 4455TIP3    H237561   2.493   4.033   9.653
 4456TIP3   OH237562   3.267   4.227   9.521
 4456TIP3    H137563   3.296   4.200   9.608
 4456TIP3    H237564   3.345   4.267   9.482
 4457TIP3   OH237565   2.142   4.421   9.753
 4457TIP3    H137566   2.211   4.377   9.803
 4457TIP3    H237567   2.139   4.373   9.670
 4458TIP3   OH237568   2.589   4.522   9.663
 4458TIP3    H137569   2.676   4.494   9.690
 4458TIP3    H237570   2.552   4.446   9.619
 4459TIP3   OH237571   3.022   5.040   9.424
 4459TIP3    H137572   3.018   5.037   9.329
 4459TIP3    H237573   2.988   5.127   9.447
 4460TIP3   OH237574   3.278   4.182   9.789
 4460TIP3    H137575   3.212   4.128   9.833
 4460TIP3    H237576   3.347   4.194   9.855
 4461TIP3   OH237577   2.358   4.271   9.866
 4461TIP3    H137578   2.401   4.355   9.878
 4461TIP3    H237579   2.419   4.220   9.812
 4462TIP3   OH237580   2.047   5.051   9.302
 4462TIP3    H137581   2.051   5.098   9.219
 4462TIP3    H237582   2.061   5.118   9.369
 4463TIP3   OH237583   3.541   5.091  -0.004
 4463TIP3    H137584   3.468   5.092   0.057
 4463TIP3    H237585   3.605   5.151   0.034
 4464TIP3   OH237586   2.706   3.790   9.843
 4464TIP3    H137587   2.693   3.696   9.851
 4464TIP3    H237588   2.636   3.829   9.897
 4465TIP3   OH237589   3.176   5.371   9.612
 4465TIP3    H137590   3.223   5.291   9.590
 4465TIP3    H237591   3.242   5.440   9.606
 4466TIP3   OH237592   3.343   5.172   9.523
 4466TIP3    H137593   3.381   5.127   9.447
 4466TIP3    H237594   3.379   5.126   9.598
 4467TIP3   OH237595   2.976   4.699   9.331
 4467TIP3    H137596   2.902   4.751   9.300
 4467TIP3    H237597   3.042   4.708   9.262
 4468TIP3   OH237598   3.016   4.628   8.942
 4468TIP3    H137599   3.069   4.648   9.020
 4468TIP3    H237600   3.070   4.567   8.891
 4469TIP3   OH237601   3.344   4.770   9.380
 4469TIP3    H137602   3.278   4.788   9.446
 4469TIP3    H237603   3.409   4.716   9.426
 4470TIP3   OH237604   2.485   4.744   9.530
 4470TIP3    H137605   2.453   4.708   9.447
 4470TIP3    H237606   2.530   4.671   9.572
 4471TIP3   OH237607   2.594   5.160   9.836
 4471TIP3    H137608   2.592   5.154   9.741
 4471TIP3    H237609   2.652   5.088   9.863
 4472TIP3   OH237610   2.461   4.524   9.907
 4472TIP3    H137611   2.504   4.526   9.822
 4472TIP3    H237612   2.474   4.612   9.943
 4473TIP3   OH237613   3.205   4.676   9.158
 4473TIP3    H137614   3.254   4.716   9.230
 4473TIP3    H237615   3.258   4.692   9.081
 4474TIP3   OH237616   2.943   5.301   9.480
 4474TIP3    H137617   3.018   5.323   9.535
 4474TIP3    H237618   2.925   5.381   9.431
 4475TIP3   OH237619   3.541   3.806   9.170
 4475TIP3    H137620   3.470   3.842   9.222
 4475TIP3    H237621   3.576   3.880   9.121
 4476TIP3   OH237622   2.383   4.656   9.282
 4476TIP3    H137623   2.314   4.717   9.256
 4476TIP3    H237624   2.346   4.569   9.267
 4477TIP3   OH237625   3.718   5.262   9.014
 4477TIP3    H137626   3.718   5.357   9.008
 4477TIP3    H237627   3.811   5.238   9.011
 4478TIP3   OH237628   1.804   5.312   9.841
 4478TIP3    H137629   1.816   5.227   9.882
 4478TIP3    H237630   1.718   5.341   9.871
 4479TIP3   OH237631   2.940   5.545   9.343
 4479TIP3    H137632   2.923   5.550   9.249
 4479TIP3    H237633   2.898   5.624   9.379
 4480TIP3   OH237634   2.280   5.450   9.564
 4480TIP3    H137635   2.290   5.417   9.653
 4480TIP3    H237636   2.218   5.389   9.523
 4481TIP3   OH237637   3.215   5.527   9.033
 4481TIP3    H137638   3.270   5.456   9.001
 4481TIP3    H237639   3.228   5.527   9.127
 4482TIP3   OH237640   3.213   5.499   9.310
 4482TIP3    H137641   3.121   5.506   9.336
 4482TIP3    H237642   3.250   5.436   9.371
 4483TIP3   OH237643   2.484   3.875  10.001
 4483TIP3    H137644   2.416   3.872   9.933
 4483TIP3    H237645   2.495   3.968  10.021
 4484TIP3   OH237646   3.352   4.716   8.935
 4484TIP3    H137647   3.320   4.729   8.846
 4484TIP3    H237648   3.446   4.735   8.930
 4485TIP3   OH237649   2.881   4.104   9.042
 4485TIP3    H137650   2.824   4.097   9.118
 4485TIP3    H237651   2.852   4.035   8.983
 4486TIP3   OH237652   2.430   4.327   9.543
 4486TIP3    H137653   2.335   4.315   9.539
 4486TIP3    H237654   2.457   4.329   9.451
 4487TIP3   OH237655   2.998   4.444   9.426
 4487TIP3    H137656   2.978   4.534   9.400
 4487TIP3    H237657   3.068   4.417   9.366
 4488TIP3   OH237658   3.096   4.395   9.679
 4488TIP3    H137659   3.064   4.423   9.593
 4488TIP3    H237660   3.147   4.316   9.661
 4489TIP3   OH237661   2.572   4.137   8.920
 4489TIP3    H137662   2.542   4.130   9.011
 4489TIP3    H237663   2.512   4.199   8.880
 4490TIP3   OH237664   1.954   4.142   9.692
 4490TIP3    H137665   2.010   4.128   9.769
 4490TIP3    H237666   2.011   4.183   9.628
 4491TIP3   OH237667   1.898   4.245   9.113
 4491TIP3    H137668   1.972   4.280   9.064
 4491TIP3    H237669   1.828   4.309   9.101
 4492TIP3   OH237670   2.800   4.113   9.659
 4492TIP3    H137671   2.709   4.114   9.688
 4492TIP3    H237672   2.849   4.077   9.733
 4493TIP3   OH237673   2.149   4.271   9.524
 4493TIP3    H137674   2.109   4.322   9.453
 4493TIP3    H237675   2.184   4.193   9.480
 4494TIP3   OH237676   2.528   4.335   9.289
 4494TIP3    H137677   2.619   4.336   9.320
 4494TIP3    H237678   2.532   4.378   9.203
 4495TIP3   OH237679   3.118   4.102   0.016
 4495TIP3    H137680   3.090   4.113   0.107
 4495TIP3    H237681   3.052   4.045  -0.023
 4496TIP3   OH237682   2.528   4.432   9.033
 4496TIP3    H137683   2.478   4.406   8.955
 4496TIP3    H237684   2.605   4.477   8.998
 4497TIP3   OH237685   2.834   4.452   9.782
 4497TIP3    H137686   2.915   4.445   9.732
 4497TIP3    H237687   2.851   4.402   9.862
 4498TIP3   OH237688   2.290   4.055   9.428
 4498TIP3    H137689   2.251   3.974   9.462
 4498TIP3    H237690   2.333   4.029   9.346
 4499TIP3   OH237691   2.761   4.849   9.227
 4499TIP3    H137692   2.693   4.825   9.164
 4499TIP3    H237693   2.714   4.892   9.298
 4500TIP3   OH237694   3.132   4.164   9.133
 4500TIP3    H137695   3.042   4.162   9.099
 4500TIP3    H237696   3.146   4.255   9.157
 4501TIP3   OH237697   3.207   4.408   9.246
 4501TIP3    H137698   3.295   4.392   9.281
 4501TIP3    H237699   3.213   4.496   9.208
 4502TIP3   OH237700   2.335   4.816   9.754
 4502TIP3    H137701   2.387   4.798   9.676
 4502TIP3    H237702   2.394   4.796   9.827
 4503TIP3   OH237703   2.969   5.006   9.144
 4503TIP3    H137704   2.936   5.096   9.145
 4503TIP3    H237705   2.894   4.952   9.169
 4504TIP3   OH237706   3.625   4.447   9.156
 4504TIP3    H137707   3.578   4.429   9.075
 4504TIP3    H237708   3.662   4.534   9.143
 4505TIP3   OH237709   3.563   5.268   9.248
 4505TIP3    H137710   3.524   5.182   9.265
 4505TIP3    H237711   3.614   5.257   9.168
 4506TIP3   OH237712   3.277   4.799   9.783
 4506TIP3    H137713   3.215   4.816   9.712
 4506TIP3    H237714   3.307   4.709   9.768
 4507TIP3   OH237715   2.520   5.178   9.570
 4507TIP3    H137716   2.548   5.265   9.541
 4507TIP3    H237717   2.424   5.181   9.564
 4508TIP3   OH237718   2.091   4.657   9.005
 4508TIP3    H137719   2.137   4.719   9.062
 4508TIP3    H237720   2.000   4.661   9.034
 4509TIP3   OH237721   2.591   4.970   9.405
 4509TIP3    H137722   2.583   5.042   9.468
 4509TIP3    H237723   2.555   4.894   9.451
 4510TIP3   OH237724   2.544   5.440   9.494
 4510TIP3    H137725   2.453   5.463   9.509
 4510TIP3    H237726   2.594   5.511   9.535
 4511TIP3   OH237727   3.371   5.073   9.032
 4511TIP3    H137728   3.384   5.046   9.123
 4511TIP3    H237729   3.290   5.029   9.005
 4512TIP3   OH237730   3.717   5.536   9.020
 4512TIP3    H137731   3.736   5.608   8.960
 4512TIP3    H237732   3.648   5.570   9.077
 4513TIP3   OH237733   3.464   5.004   9.291
 4513TIP3    H137734   3.411   4.930   9.322
 4513TIP3    H237735   3.554   4.971   9.292
 4514TIP3   OH237736   2.671   5.179   8.910
 4514TIP3    H137737   2.684   5.097   8.862
 4514TIP3    H237738   2.650   5.150   8.999
 4515TIP3   OH237739   2.572   5.125   9.169
 4515TIP3    H137740   2.584   5.070   9.247
 4515TIP3    H237741   2.594   5.213   9.199
 4516TIP3   OH237742   2.200   4.843   9.185
 4516TIP3    H137743   2.144   4.895   9.243
 4516TIP3    H237744   2.255   4.907   9.140
 4517TIP3   OH237745   3.116   4.049   9.380
 4517TIP3    H137746   3.118   4.084   9.291
 4517TIP3    H237747   3.159   4.116   9.433
 4518TIP3   OH237748   2.880   5.262   9.158
 4518TIP3    H137749   2.800   5.290   9.201
 4518TIP3    H237750   2.924   5.343   9.134
 4519TIP3   OH237751   2.773   4.281   9.433
 4519TIP3    H137752   2.848   4.341   9.429
 4519TIP3    H237753   2.784   4.235   9.517
 4520TIP3   OH237754   2.884   3.933   9.466
 4520TIP3    H137755   2.862   3.996   9.535
 4520TIP3    H237756   2.969   3.963   9.433
 4521TIP3   OH237757   2.646   5.378   9.249
 4521TIP3    H137758   2.649   5.464   9.206
 4521TIP3    H237759   2.615   5.396   9.337
 4522TIP3   OH237760   2.469   4.085   9.180
 4522TIP3    H137761   2.463   4.172   9.219
 4522TIP3    H237762   2.554   4.052   9.209
 4523TIP3   OH237763   3.348   4.534   9.732
 4523TIP3    H137764   3.266   4.484   9.727
 4523TIP3    H237765   3.404   4.482   9.790
 4524TIP3   OH237766   2.334   5.050   9.056
 4524TIP3    H137767   2.410   5.086   9.101
 4524TIP3    H237768   2.369   5.009   8.978
 4525TIP3   OH237769   2.089   4.378   8.974
 4525TIP3    H137770   2.105   4.468   9.001
 4525TIP3    H237771   2.108   4.377   8.880
 4526TIP3   OH237772   3.524   5.455   9.937
 4526TIP3    H137773   3.507   5.528   9.878
 4526TIP3    H237774   3.570   5.494  10.011
 4527TIP3   OH237775   2.272   3.866   9.809
 4527TIP3    H137776   2.255   3.874   9.715
 4527TIP3    H237777   2.234   3.782   9.834
 4528TIP3   OH237778   2.079   5.278   9.471
 4528TIP3    H137779   2.035   5.311   9.550
 4528TIP3    H237780   2.057   5.342   9.403
 4529TIP3   OH237781   2.873   5.363   8.853
 4529TIP3    H137782   2.804   5.301   8.878
 4529TIP3    H237783   2.952   5.309   8.845
 4530TIP3   OH237784   3.355   5.323   8.919
 4530TIP3    H137785   3.375   5.243   8.967
 4530TIP3    H237786   3.427   5.332   8.857
 4531TIP3   OH237787   2.444   4.901   8.854
 4531TIP3    H137788   2.468   4.843   8.926
 4531TIP3    H237789   2.526   4.923   8.811
 4532TIP3   OH237790   3.129   4.982   8.926
 4532TIP3    H137791   3.072   4.979   9.002
 4532TIP3    H237792   3.087   4.924   8.862
 4533TIP3   OH237793   2.544   4.755   9.070
 4533TIP3    H137794   2.497   4.712   9.141
 4533TIP3    H237795   2.603   4.689   9.035
 4534TIP3   OH237796   2.735   4.596   8.948
 4534TIP3    H137797   2.723   4.629   8.858
 4534TIP3    H237798   2.829   4.600   8.962
 4535TIP3   OH237799   3.618   4.792   8.876
 4535TIP3    H137800   3.608   4.766   8.785
 4535TIP3    H237801   3.613   4.888   8.874
 4536TIP3   OH237802   2.692   5.625   9.129
 4536TIP3    H137803   2.779   5.599   9.098
 4536TIP3    H237804   2.649   5.662   9.052
 4537TIP3   OH237805   2.075   5.134   9.031
 4537TIP3    H137806   2.170   5.123   9.042
 4537TIP3    H237807   2.051   5.070   8.964
 4538TIP3   OH237808   1.900   5.621   9.537
 4538TIP3    H137809   1.834   5.578   9.482
 4538TIP3    H237810   1.931   5.552   9.595
 4539TIP3   OH237811   2.001   5.428   9.703
 4539TIP3    H137812   1.928   5.383   9.745
 4539TIP3    H237813   2.051   5.466   9.775
 4540TIP3   OH237814   3.717   4.890   9.297
 4540TIP3    H137815   3.787   4.955   9.293
 4540TIP3    H237816   3.745   4.829   9.366
 4541TIP3   OH237817   3.782   4.692   9.484
 4541TIP3    H137818   3.696   4.668   9.519
 4541TIP3    H237819   3.835   4.709   9.562
 4542TIP3   OH237820   3.847   5.052   9.972
 4542TIP3    H137821   3.828   4.972   9.923
 4542TIP3    H237822   3.816   5.123   9.915
 4543TIP3   OH237823   3.733   4.693   9.103
 4543TIP3    H137824   3.691   4.726   9.024
 4543TIP3    H237825   3.722   4.764   9.167
 4544TIP3   OH237826   3.514   4.387   8.913
 4544TIP3    H137827   3.485   4.432   8.833
 4544TIP3    H237828   3.505   4.294   8.892
 4545TIP3   OH237829   3.512   4.589   9.517
 4545TIP3    H137830   3.508   4.504   9.473
 4545TIP3    H237831   3.461   4.577   9.597
 4546TIP3   OH237832   1.934   4.787   9.932
 4546TIP3    H137833   1.989   4.768   9.856
 4546TIP3    H237834   1.985   4.756  10.007
 4547TIP3   OH237835   3.475   4.125   8.833
 4547TIP3    H137836   3.517   4.077   8.904
 4547TIP3    H237837   3.382   4.106   8.843
 4548TIP3   OH237838   3.481   4.341   9.371
 4548TIP3    H137839   3.520   4.255   9.387
 4548TIP3    H237840   3.531   4.376   9.297
 4549TIP3   OH237841   3.530   4.392   9.885
 4549TIP3    H137842   3.622   4.417   9.872
 4549TIP3    H237843   3.534   4.301   9.913
 4550TIP3   OH237844   3.559   4.076   9.431
 4550TIP3    H137845   3.576   4.040   9.518
 4550TIP3    H237846   3.493   4.018   9.393
 4551TIP3   OH237847   2.138   4.096   9.892
 4551TIP3    H137848   2.182   4.013   9.874
 4551TIP3    H237849   2.209   4.160   9.898
 4552TIP3   OH237850   1.913   4.478   9.897
 4552TIP3    H137851   1.984   4.453   9.838
 4552TIP3    H237852   1.907   4.573   9.887
 4553TIP3   OH237853   3.643   4.004   9.013
 4553TIP3    H137854   3.704   3.955   8.958
 4553TIP3    H237855   3.695   4.076   9.049
 4554TIP3   OH237856   1.946   4.061   9.312
 4554TIP3    H137857   1.862   4.059   9.357
 4554TIP3    H237858   1.938   4.133   9.249
 4555TIP3   OH237859   3.374   5.552   9.573
 4555TIP3    H137860   3.446   5.534   9.512
 4555TIP3    H237861   3.417   5.596   9.647
 4556TIP3   OH237862   2.163   5.521   9.919
 4556TIP3    H137863   2.185   5.524  10.012
 4556TIP3    H237864   2.220   5.453   9.883
 4557TIP3   OH237865   2.332   5.339   9.812
 4557TIP3    H137866   2.317   5.246   9.830
 4557TIP3    H237867   2.420   5.355   9.844
 4558TIP3   OH237868   2.582   5.418   9.928
 4558TIP3    H137869   2.640   5.467   9.870
 4558TIP3    H237870   2.602   5.326   9.910
 4559TIP3   OH237871   2.940   3.957   9.847
 4559TIP3    H137872   2.872   3.890   9.856
 4559TIP3    H237873   3.017   3.909   9.816
 4560TIP3   OH237874   3.462   3.765   9.817
 4560TIP3    H137875   3.517   3.833   9.780
 4560TIP3    H237876   3.377   3.807   9.831
 4561TIP3   OH237877   3.623   3.951   9.678
 4561TIP3    H137878   3.689   3.893   9.640
 4561TIP3    H237879   3.672   4.027   9.708
 4562TIP3   OH237880   2.182   3.826   9.544
 4562TIP3    H137881   2.088   3.816   9.528
 4562TIP3    H237882   2.218   3.739   9.531
 4563TIP3   OH237883   2.104   3.861   9.202
 4563TIP3    H137884   2.158   3.907   9.138
 4563TIP3    H237885   2.054   3.930   9.246
 4564TIP3   OH237886   2.652   3.812   9.572
 4564TIP3    H137887   2.731   3.845   9.530
 4564TIP3    H237888   2.674   3.807   9.665
 4565TIP3   OH237889   3.173   3.828   9.757
 4565TIP3    H137890   3.203   3.821   9.667
 4565TIP3    H237891   3.142   3.740   9.779
 4566TIP3   OH237892   3.353   3.909   9.342
 4566TIP3    H137893   3.274   3.963   9.351
 4566TIP3    H237894   3.321   3.819   9.350
 4567TIP3   OH237895   2.028   5.465   9.281
 4567TIP3    H137896   1.954   5.452   9.222
 4567TIP3    H237897   2.055   5.555   9.266
 4568TIP3   OH237898   2.287   3.959   9.012
 4568TIP3    H137899   2.340   3.897   8.963
 4568TIP3    H237900   2.350   4.004   9.070
 4569TIP3   OH237901   2.729   4.064   9.270
 4569TIP3    H137902   2.771   3.995   9.321
 4569TIP3    H237903   2.741   4.143   9.323
 4570TIP3   OH237904   2.941   5.529   9.059
 4570TIP3    H137905   3.035   5.541   9.047
 4570TIP3    H237906   2.913   5.483   8.980
 4571TIP3   OH237907   3.577   5.507   9.384
 4571TIP3    H137908   3.572   5.418   9.349
 4571TIP3    H237909   3.565   5.563   9.307
 4572TIP3   OH237910   2.218   5.484   8.861
 4572TIP3    H137911   2.181   5.455   8.944
 4572TIP3    H237912   2.295   5.429   8.848
 4573TIP3   OH237913   4.981   4.788   9.488
 4573TIP3    H137914   4.944   4.778   9.576
 4573TIP3    H237915   4.967   4.881   9.467
 4574TIP3   OH237916   4.856   4.753   9.739
 4574TIP3    H137917   4.895   4.759   9.826
 4574TIP3    H237918   4.809   4.670   9.739
 4575TIP3   OH237919   5.320   5.007   9.696
 4575TIP3    H137920   5.274   4.932   9.732
 4575TIP3    H237921   5.346   5.059   9.772
 4576TIP3   OH237922   4.258   5.090   9.888
 4576TIP3    H137923   4.238   5.009   9.842
 4576TIP3    H237924   4.354   5.092   9.892
 4577TIP3   OH237925   3.840   4.444   9.360
 4577TIP3    H137926   3.830   4.532   9.397
 4577TIP3    H237927   3.774   4.439   9.292
 4578TIP3   OH237928   3.987   4.721   9.699
 4578TIP3    H137929   4.014   4.629   9.698
 4578TIP3    H237930   4.068   4.769   9.712
 4579TIP3   OH237931   4.924   5.437   9.790
 4579TIP3    H137932   4.908   5.356   9.742
 4579TIP3    H237933   4.906   5.415   9.881
 4580TIP3   OH237934   4.677   4.902   9.904
 4580TIP3    H137935   4.719   4.869   9.824
 4580TIP3    H237936   4.740   4.884   9.973
 4581TIP3   OH237937   4.959   4.348   9.916
 4581TIP3    H137938   4.987   4.260   9.940
 4581TIP3    H237939   4.970   4.352   9.821
 4582TIP3   OH237940   4.406   4.157   9.645
 4582TIP3    H137941   4.398   4.238   9.595
 4582TIP3    H237942   4.350   4.095   9.598
 4583TIP3   OH237943   5.133   4.211   9.523
 4583TIP3    H137944   5.169   4.180   9.606
 4583TIP3    H237945   5.208   4.252   9.479
 4584TIP3   OH237946   4.026   4.447   9.714
 4584TIP3    H137947   4.095   4.402   9.763
 4584TIP3    H237948   4.033   4.412   9.625
 4585TIP3   OH237949   4.473   4.564   9.673
 4585TIP3    H137950   4.565   4.539   9.688
 4585TIP3    H237951   4.440   4.496   9.614
 4586TIP3   OH237952   4.927   5.036   9.390
 4586TIP3    H137953   4.913   5.044   9.296
 4586TIP3    H237954   4.907   5.123   9.425
 4587TIP3   OH237955   5.223   4.162   9.773
 4587TIP3    H137956   5.170   4.129   9.845
 4587TIP3    H237957   5.280   4.228   9.813
 4588TIP3   OH237958   4.238   4.302   9.819
 4588TIP3    H137959   4.293   4.365   9.866
 4588TIP3    H237960   4.300   4.246   9.773
 4589TIP3   OH237961   3.924   5.070   9.265
 4589TIP3    H137962   3.930   5.109   9.177
 4589TIP3    H237963   3.947   5.142   9.324
 4590TIP3   OH237964   5.373   5.133   9.940
 4590TIP3    H137965   5.319   5.120  10.018
 4590TIP3    H237966   5.374   5.228   9.927
 4591TIP3   OH237967   4.600   3.801   9.844
 4591TIP3    H137968   4.582   3.708   9.854
 4591TIP3    H237969   4.533   3.844   9.897
 4592TIP3   OH237970   5.156   5.333   9.490
 4592TIP3    H137971   5.218   5.261   9.479
 4592TIP3    H237972   5.204   5.399   9.539
 4593TIP3   OH237973   5.349   5.138   9.450
 4593TIP3    H137974   5.343   5.067   9.387
 4593TIP3    H237975   5.346   5.095   9.536
 4594TIP3   OH237976   4.848   4.700   9.258
 4594TIP3    H137977   4.777   4.764   9.248
 4594TIP3    H237978   4.899   4.733   9.332
 4595TIP3   OH237979   4.862   4.682   8.970
 4595TIP3    H137980   4.874   4.687   9.065
 4595TIP3    H237981   4.929   4.622   8.940
 4596TIP3   OH237982   5.216   4.723   9.355
 4596TIP3    H137983   5.138   4.743   9.406
 4596TIP3    H237984   5.274   4.678   9.416
 4597TIP3   OH237985   4.387   4.787   9.534
 4597TIP3    H137986   4.351   4.748   9.454
 4597TIP3    H237987   4.427   4.713   9.580
 4598TIP3   OH237988   4.531   5.135   9.856
 4598TIP3    H137989   4.548   5.151   9.763
 4598TIP3    H237990   4.588   5.062   9.879
 4599TIP3   OH237991   4.369   4.535   9.926
 4599TIP3    H137992   4.403   4.538   9.836
 4599TIP3    H237993   4.376   4.625   9.957
 4600TIP3   OH237994   5.144   4.600   9.114
 4600TIP3    H137995   5.167   4.654   9.190
 4600TIP3    H237996   5.201   4.631   9.044
 4601TIP3   OH237997   4.886   5.309   9.458
 4601TIP3    H137998   4.979   5.313   9.478
 4601TIP3    H237999   4.860   5.400   9.447
 4602TIP3   OH238000   5.472   3.812   9.173
 4602TIP3    H138001   5.386   3.832   9.208
 4602TIP3    H238002   5.503   3.895   9.136
 4603TIP3   OH238003   4.273   4.677   9.302
 4603TIP3    H138004   4.205   4.737   9.272
 4603TIP3    H238005   4.231   4.591   9.303
 4604TIP3   OH238006   5.563   5.253   9.012
 4604TIP3    H138007   5.564   5.349   9.001
 4604TIP3    H238008   5.655   5.229   9.022
 4605TIP3   OH238009   3.772   5.314   9.881
 4605TIP3    H138010   3.822   5.361   9.947
 4605TIP3    H238011   3.682   5.348   9.891
 4606TIP3   OH238012   4.833   5.563   9.356
 4606TIP3    H138013   4.814   5.561   9.262
 4606TIP3    H238014   4.793   5.644   9.387
 4607TIP3   OH238015   4.182   5.454   9.529
 4607TIP3    H138016   4.201   5.411   9.613
 4607TIP3    H238017   4.126   5.392   9.482
 4608TIP3   OH238018   5.116   5.540   9.033
 4608TIP3    H138019   5.168   5.465   9.004
 4608TIP3    H238020   5.128   5.542   9.128
 4609TIP3   OH238021   5.103   5.532   9.308
 4609TIP3    H138022   5.010   5.545   9.329
 4609TIP3    H238023   5.131   5.460   9.363
 4610TIP3   OH238024   4.377   3.900  10.005
 4610TIP3    H138025   4.309   3.899   9.938
 4610TIP3    H238026   4.389   3.993  10.026
 4611TIP3   OH238027   5.289   4.658   8.888
 4611TIP3    H138028   5.256   4.701   8.809
 4611TIP3    H238029   5.380   4.684   8.893
 4612TIP3   OH238030   4.724   4.135   8.998
 4612TIP3    H138031   4.674   4.126   9.079
 4612TIP3    H238032   4.702   4.056   8.948
 4613TIP3   OH238033   4.340   4.387   9.510
 4613TIP3    H138034   4.245   4.375   9.506
 4613TIP3    H238035   4.370   4.373   9.421
 4614TIP3   OH238036   4.874   4.451   9.382
 4614TIP3    H138037   4.856   4.535   9.340
 4614TIP3    H238038   4.948   4.415   9.332
 4615TIP3   OH238039   4.967   4.395   9.640
 4615TIP3    H138040   4.929   4.437   9.563
 4615TIP3    H238041   5.017   4.322   9.605
 4616TIP3   OH238042   4.414   4.125   8.905
 4616TIP3    H138043   4.389   4.120   8.997
 4616TIP3    H238044   4.369   4.203   8.873
 4617TIP3   OH238045   3.780   4.167   9.733
 4617TIP3    H138046   3.859   4.152   9.785
 4617TIP3    H238047   3.807   4.227   9.664
 4618TIP3   OH238048   3.779   4.223   9.102
 4618TIP3    H138049   3.855   4.262   9.058
 4618TIP3    H238050   3.722   4.297   9.121
 4619TIP3   OH238051   4.689   4.108   9.629
 4619TIP3    H138052   4.598   4.114   9.659
 4619TIP3    H238053   4.737   4.074   9.704
 4620TIP3   OH238054   4.071   4.330   9.471
 4620TIP3    H138055   3.994   4.350   9.418
 4620TIP3    H238056   4.091   4.239   9.452
 4621TIP3   OH238057   4.425   4.334   9.259
 4621TIP3    H138058   4.516   4.320   9.284
 4621TIP3    H238059   4.430   4.376   9.173
 4622TIP3   OH238060   5.040   4.086   9.976
 4622TIP3    H138061   5.006   4.082  10.065
 4622TIP3    H238062   4.978   4.035   9.924
 4623TIP3   OH238063   4.418   4.437   9.006
 4623TIP3    H138064   4.359   4.415   8.934
 4623TIP3    H238065   4.485   4.493   8.966
 4624TIP3   OH238066   4.729   4.503   9.758
 4624TIP3    H138067   4.803   4.449   9.729
 4624TIP3    H238068   4.732   4.497   9.854
 4625TIP3   OH238069   4.198   4.075   9.446
 4625TIP3    H138070   4.154   3.998   9.481
 4625TIP3    H238071   4.228   4.048   9.359
 4626TIP3   OH238072   4.652   4.891   9.214
 4626TIP3    H138073   4.576   4.858   9.167
 4626TIP3    H238074   4.616   4.939   9.289
 4627TIP3   OH238075   4.967   4.136   9.132
 4627TIP3    H138076   4.884   4.154   9.088
 4627TIP3    H238077   5.001   4.223   9.156
 4628TIP3   OH238078   5.091   4.363   9.232
 4628TIP3    H138079   5.174   4.348   9.278
 4628TIP3    H238080   5.105   4.444   9.183
 4629TIP3   OH238081   4.237   4.839   9.763
 4629TIP3    H138082   4.288   4.829   9.683
 4629TIP3    H238083   4.298   4.815   9.833
 4630TIP3   OH238084   4.862   5.039   9.104
 4630TIP3    H138085   4.824   5.121   9.134
 4630TIP3    H238086   4.798   4.972   9.127
 4631TIP3   OH238087   5.526   4.407   9.166
 4631TIP3    H138088   5.506   4.357   9.087
 4631TIP3    H238089   5.554   4.493   9.134
 4632TIP3   OH238090   5.491   5.322   9.284
 4632TIP3    H138091   5.448   5.261   9.344
 4632TIP3    H238092   5.488   5.278   9.199
 4633TIP3   OH238093   5.201   4.799   9.854
 4633TIP3    H138094   5.119   4.801   9.903
 4633TIP3    H238095   5.200   4.714   9.809
 4634TIP3   OH238096   4.474   5.231   9.590
 4634TIP3    H138097   4.496   5.311   9.544
 4634TIP3    H238098   4.397   5.254   9.643
 4635TIP3   OH238099   3.998   4.650   9.031
 4635TIP3    H138100   4.042   4.718   9.082
 4635TIP3    H238101   3.905   4.658   9.055
 4636TIP3   OH238102   4.501   5.014   9.417
 4636TIP3    H138103   4.501   5.085   9.481
 4636TIP3    H238104   4.462   4.940   9.462
 4637TIP3   OH238105   4.448   5.488   9.475
 4637TIP3    H138106   4.353   5.486   9.485
 4637TIP3    H238107   4.474   5.573   9.510
 4638TIP3   OH238108   5.221   5.078   9.057
 4638TIP3    H138109   5.266   5.036   9.130
 4638TIP3    H238110   5.129   5.061   9.072
 4639TIP3   OH238111   5.558   5.527   9.000
 4639TIP3    H138112   5.636   5.578   9.022
 4639TIP3    H238113   5.486   5.576   9.040
 4640TIP3   OH238114   5.352   4.939   9.255
 4640TIP3    H138115   5.302   4.864   9.288
 4640TIP3    H238116   5.443   4.909   9.256
 4641TIP3   OH238117   4.551   5.168   8.930
 4641TIP3    H138118   4.568   5.087   8.883
 4641TIP3    H238119   4.522   5.140   9.017
 4642TIP3   OH238120   4.440   5.147   9.182
 4642TIP3    H138121   4.461   5.102   9.263
 4642TIP3    H238122   4.462   5.239   9.199
 4643TIP3   OH238123   4.092   4.856   9.193
 4643TIP3    H138124   4.028   4.911   9.239
 4643TIP3    H238125   4.145   4.918   9.143
 4644TIP3   OH238126   5.018   4.013   9.370
 4644TIP3    H138127   4.999   4.055   9.286
 4644TIP3    H238128   5.049   4.085   9.426
 4645TIP3   OH238129   4.751   5.253   9.222
 4645TIP3    H138130   4.673   5.309   9.217
 4645TIP3    H238131   4.791   5.275   9.306
 4646TIP3   OH238132   4.668   4.268   9.400
 4646TIP3    H138133   4.737   4.334   9.397
 4646TIP3    H238134   4.678   4.225   9.485
 4647TIP3   OH238135   4.769   3.920   9.442
 4647TIP3    H138136   4.745   3.989   9.504
 4647TIP3    H238137   4.860   3.940   9.418
 4648TIP3   OH238138   4.523   5.408   9.225
 4648TIP3    H138139   4.533   5.489   9.175
 4648TIP3    H238140   4.497   5.437   9.313
 4649TIP3   OH238141   4.332   4.087   9.172
 4649TIP3    H138142   4.335   4.176   9.207
 4649TIP3    H238143   4.418   4.050   9.193
 4650TIP3   OH238144   5.210   4.541   9.734
 4650TIP3    H138145   5.125   4.499   9.721
 4650TIP3    H238146   5.256   4.483   9.794
 4651TIP3   OH238147   4.218   5.058   9.052
 4651TIP3    H138148   4.290   5.097   9.102
 4651TIP3    H238149   4.260   5.015   8.978
 4652TIP3   OH238150   3.965   4.375   8.979
 4652TIP3    H138151   3.986   4.457   9.024
 4652TIP3    H238152   3.979   4.395   8.886
 4653TIP3   OH238153   5.362   5.415   9.964
 4653TIP3    H138154   5.365   5.499   9.918
 4653TIP3    H238155   5.445   5.411  10.012
 4654TIP3   OH238156   4.162   3.894   9.820
 4654TIP3    H138157   4.152   3.893   9.724
 4654TIP3    H238158   4.117   3.815   9.849
 4655TIP3   OH238159   3.979   5.309   9.397
 4655TIP3    H138160   3.929   5.343   9.472
 4655TIP3    H238161   3.962   5.372   9.327
 4656TIP3   OH238162   4.772   5.325   8.907
 4656TIP3    H138163   4.690   5.280   8.929
 4656TIP3    H238164   4.834   5.255   8.888
 4657TIP3   OH238165   5.254   5.326   8.931
 4657TIP3    H138166   5.251   5.242   8.979
 4657TIP3    H238167   5.340   5.326   8.889
 4658TIP3   OH238168   4.345   4.903   8.867
 4658TIP3    H138169   4.368   4.849   8.943
 4658TIP3    H238170   4.429   4.919   8.823
 4659TIP3   OH238171   4.930   5.103   8.845
 4659TIP3    H138172   4.912   5.075   8.935
 4659TIP3    H238173   4.938   5.021   8.796
 4660TIP3   OH238174   4.435   4.768   9.090
 4660TIP3    H138175   4.389   4.723   9.161
 4660TIP3    H238176   4.482   4.698   9.044
 4661TIP3   OH238177   4.596   4.624   8.913
 4661TIP3    H138178   4.594   4.652   8.821
 4661TIP3    H238179   4.686   4.641   8.941
 4662TIP3   OH238180   5.545   4.785   8.845
 4662TIP3    H138181   5.532   4.772   8.751
 4662TIP3    H238182   5.511   4.873   8.862
 4663TIP3   OH238183   4.593   5.646   9.103
 4663TIP3    H138184   4.683   5.615   9.088
 4663TIP3    H238185   4.580   5.713   9.036
 4664TIP3   OH238186   3.972   5.155   8.994
 4664TIP3    H138187   4.062   5.138   9.020
 4664TIP3    H238188   3.951   5.085   8.932
 4665TIP3   OH238189   3.799   5.620   9.507
 4665TIP3    H138190   3.726   5.584   9.456
 4665TIP3    H238191   3.829   5.547   9.561
 4666TIP3   OH238192   3.895   5.410   9.651
 4666TIP3    H138193   3.843   5.359   9.713
 4666TIP3    H238194   3.960   5.454   9.705
 4667TIP3   OH238195   5.615   4.845   9.279
 4667TIP3    H138196   5.672   4.921   9.292
 4667TIP3    H238197   5.633   4.789   9.354
 4668TIP3   OH238198   5.659   4.660   9.485
 4668TIP3    H138199   5.571   4.643   9.517
 4668TIP3    H238200   5.707   4.690   9.561
 4669TIP3   OH238201   5.622   5.011   9.997
 4669TIP3    H138202   5.628   4.920   9.965
 4669TIP3    H238203   5.531   5.036   9.981
 4670TIP3   OH238204   5.629   4.656   9.078
 4670TIP3    H138205   5.602   4.697   8.996
 4670TIP3    H238206   5.614   4.724   9.144
 4671TIP3   OH238207   5.474   4.261   8.932
 4671TIP3    H138208   5.466   4.319   8.856
 4671TIP3    H238209   5.415   4.188   8.913
 4672TIP3   OH238210   5.385   4.570   9.521
 4672TIP3    H138211   5.372   4.484   9.481
 4672TIP3    H238212   5.332   4.568   9.600
 4673TIP3   OH238213   3.822   4.761   9.912
 4673TIP3    H138214   3.882   4.760   9.837
 4673TIP3    H238215   3.879   4.743   9.987
 4674TIP3   OH238216   5.333   4.047   8.838
 4674TIP3    H138217   5.338   3.956   8.808
 4674TIP3    H238218   5.240   4.061   8.857
 4675TIP3   OH238219   5.346   4.323   9.368
 4675TIP3    H138220   5.378   4.235   9.388
 4675TIP3    H238221   5.406   4.355   9.300
 4676TIP3   OH238222   5.370   4.372   9.888
 4676TIP3    H138223   5.460   4.404   9.895
 4676TIP3    H238224   5.352   4.333   9.973
 4677TIP3   OH238225   5.404   4.058   9.441
 4677TIP3    H138226   5.427   4.027   9.529
 4677TIP3    H238227   5.347   3.990   9.406
 4678TIP3   OH238228   4.021   4.132   9.857
 4678TIP3    H138229   4.064   4.047   9.854
 4678TIP3    H238230   4.093   4.196   9.856
 4679TIP3   OH238231   3.795   4.480   9.867
 4679TIP3    H138232   3.868   4.463   9.807
 4679TIP3    H238233   3.790   4.575   9.873
 4680TIP3   OH238234   5.605   4.034   9.057
 4680TIP3    H138235   5.616   3.979   8.979
 4680TIP3    H238236   5.576   4.118   9.024
 4681TIP3   OH238237   3.825   4.052   9.311
 4681TIP3    H138238   3.743   4.053   9.360
 4681TIP3    H238239   3.814   4.119   9.244
 4682TIP3   OH238240   5.289   5.553   9.581
 4682TIP3    H138241   5.356   5.574   9.516
 4682TIP3    H238242   5.329   5.575   9.665
 4683TIP3   OH238243   4.071   5.513   9.842
 4683TIP3    H138244   4.033   5.487   9.927
 4683TIP3    H238245   4.143   5.451   9.829
 4684TIP3   OH238246   4.273   5.338   9.770
 4684TIP3    H138247   4.255   5.255   9.814
 4684TIP3    H238248   4.349   5.373   9.816
 4685TIP3   OH238249   4.496   5.414   9.915
 4685TIP3    H138250   4.526   5.324   9.922
 4685TIP3    H238251   4.501   5.448  10.004
 4686TIP3   OH238252   4.848   3.950   9.810
 4686TIP3    H138253   4.777   3.890   9.831
 4686TIP3    H238254   4.917   3.895   9.773
 4687TIP3   OH238255   5.341   3.794   9.818
 4687TIP3    H138256   5.393   3.864   9.777
 4687TIP3    H238257   5.251   3.827   9.815
 4688TIP3   OH238258   5.526   3.948   9.669
 4688TIP3    H138259   5.580   3.876   9.637
 4688TIP3    H238260   5.588   4.015   9.696
 4689TIP3   OH238261   4.083   3.847   9.553
 4689TIP3    H138262   3.989   3.838   9.540
 4689TIP3    H238263   4.118   3.759   9.538
 4690TIP3   OH238264   3.961   3.859   9.163
 4690TIP3    H138265   4.019   3.909   9.106
 4690TIP3    H238266   3.922   3.925   9.221
 4691TIP3   OH238267   4.557   3.790   9.569
 4691TIP3    H138268   4.631   3.831   9.524
 4691TIP3    H238269   4.576   3.801   9.662
 4692TIP3   OH238270   5.061   3.783   9.722
 4692TIP3    H138271   5.115   3.746   9.652
 4692TIP3    H238272   5.000   3.713   9.746
 4693TIP3   OH238273   5.242   3.863   9.321
 4693TIP3    H138274   5.163   3.916   9.336
 4693TIP3    H238275   5.211   3.772   9.323
 4694TIP3   OH238276   3.943   5.482   9.180
 4694TIP3    H138277   3.862   5.487   9.129
 4694TIP3    H238278   3.966   5.573   9.196
 4695TIP3   OH238279   4.152   3.973   8.985
 4695TIP3    H138280   4.205   3.912   8.933
 4695TIP3    H238281   4.212   4.006   9.052
 4696TIP3   OH238282   4.599   4.060   9.233
 4696TIP3    H138283   4.632   3.976   9.265
 4696TIP3    H238284   4.627   4.123   9.300
 4697TIP3   OH238285   4.841   5.537   9.073
 4697TIP3    H138286   4.935   5.548   9.056
 4697TIP3    H238287   4.817   5.458   9.025
 4698TIP3   OH238288   5.483   5.580   9.378
 4698TIP3    H138289   5.481   5.488   9.349
 4698TIP3    H238290   5.466   5.631   9.299
 4699TIP3   OH238291   4.110   5.484   8.939
 4699TIP3    H138292   4.074   5.470   9.027
 4699TIP3    H238293   4.187   5.427   8.935
 4700TIP3   OH238294   6.861   4.740   9.509
 4700TIP3    H138295   6.832   4.827   9.539
 4700TIP3    H238296   6.796   4.715   9.443
 4701TIP3   OH238297   6.736   4.717   9.881
 4701TIP3    H138298   6.741   4.677   9.968
 4701TIP3    H238299   6.690   4.652   9.828
 4702TIP3   OH238300   7.213   4.945   9.719
 4702TIP3    H138301   7.142   4.894   9.757
 4702TIP3    H238302   7.232   5.013   9.784
 4703TIP3   OH238303   6.142   5.076   9.878
 4703TIP3    H138304   6.123   4.994   9.831
 4703TIP3    H238305   6.237   5.079   9.883
 4704TIP3   OH238306   5.730   4.421   9.356
 4704TIP3    H138307   5.714   4.507   9.396
 4704TIP3    H238308   5.657   4.410   9.295
 4705TIP3   OH238309   5.868   4.719   9.694
 4705TIP3    H138310   5.882   4.625   9.710
 4705TIP3    H238311   5.954   4.759   9.709
 4706TIP3   OH238312   6.836   5.502   9.812
 4706TIP3    H138313   6.868   5.425   9.765
 4706TIP3    H238314   6.796   5.467   9.892
 4707TIP3   OH238315   6.573   4.930   9.946
 4707TIP3    H138316   6.633   4.865   9.910
 4707TIP3    H238317   6.616   4.962  10.025
 4708TIP3   OH238318   6.845   4.374   9.929
 4708TIP3    H138319   6.878   4.288   9.955
 4708TIP3    H238320   6.861   4.379   9.835
 4709TIP3   OH238321   6.270   4.253   9.628
 4709TIP3    H138322   6.214   4.305   9.570
 4709TIP3    H238323   6.253   4.162   9.604
 4710TIP3   OH238324   7.034   4.214   9.545
 4710TIP3    H138325   7.073   4.184   9.627
 4710TIP3    H238326   7.108   4.249   9.495
 4711TIP3   OH238327   5.864   4.443   9.741
 4711TIP3    H138328   5.936   4.408   9.794
 4711TIP3    H238329   5.857   4.383   9.667
 4712TIP3   OH238330   6.377   4.517   9.660
 4712TIP3    H138331   6.465   4.512   9.697
 4712TIP3    H238332   6.355   4.426   9.640
 4713TIP3   OH238333   6.814   5.015   9.478
 4713TIP3    H138334   6.819   4.995   9.385
 4713TIP3    H238335   6.902   5.042   9.502
 4714TIP3   OH238336   7.124   4.138   9.792
 4714TIP3    H138337   7.060   4.114   9.859
 4714TIP3    H238338   7.192   4.071   9.800
 4715TIP3   OH238339   6.093   4.317   9.837
 4715TIP3    H138340   6.137   4.394   9.875
 4715TIP3    H238341   6.157   4.281   9.775
 4716TIP3   OH238342   5.794   5.060   9.295
 4716TIP3    H138343   5.787   5.106   9.211
 4716TIP3    H238344   5.817   5.129   9.358
 4717TIP3   OH238345   7.227   5.138   9.914
 4717TIP3    H138346   7.198   5.123  10.004
 4717TIP3    H238347   7.238   5.233   9.908
 4718TIP3   OH238348   6.475   3.837   9.835
 4718TIP3    H138349   6.482   3.746   9.862
 4718TIP3    H238350   6.409   3.874   9.894
 4719TIP3   OH238351   6.947   5.305   9.646
 4719TIP3    H138352   6.979   5.216   9.629
 4719TIP3    H238353   7.020   5.361   9.622
 4720TIP3   OH238354   7.075   5.080   9.524
 4720TIP3    H138355   7.140   5.104   9.457
 4720TIP3    H238356   7.125   5.032   9.590
 4721TIP3   OH238357   6.712   4.681   9.282
 4721TIP3    H138358   6.633   4.731   9.261
 4721TIP3    H238359   6.772   4.700   9.210
 4722TIP3   OH238360   6.783   4.615   8.930
 4722TIP3    H138361   6.840   4.629   9.006
 4722TIP3    H238362   6.829   4.548   8.878
 4723TIP3   OH238363   7.087   4.767   9.354
 4723TIP3    H138364   7.012   4.768   9.413
 4723TIP3    H238365   7.151   4.709   9.396
 4724TIP3   OH238366   6.299   4.754   9.529
 4724TIP3    H138367   6.239   4.723   9.462
 4724TIP3    H238368   6.334   4.674   9.569
 4725TIP3   OH238369   6.412   5.135   9.859
 4725TIP3    H138370   6.433   5.152   9.767
 4725TIP3    H238371   6.475   5.068   9.886
 4726TIP3   OH238372   6.244   4.540   9.904
 4726TIP3    H138373   6.286   4.536   9.818
 4726TIP3    H238374   6.265   4.627   9.938
 4727TIP3   OH238375   6.977   4.659   9.124
 4727TIP3    H138376   7.016   4.702   9.200
 4727TIP3    H238377   7.038   4.676   9.052
 4728TIP3   OH238378   6.699   5.311   9.525
 4728TIP3    H138379   6.777   5.310   9.580
 4728TIP3    H238380   6.697   5.399   9.488
 4729TIP3   OH238381   7.356   3.780   9.201
 4729TIP3    H138382   7.270   3.809   9.231
 4729TIP3    H238383   7.391   3.854   9.153
 4730TIP3   OH238384   6.108   4.663   9.338
 4730TIP3    H138385   6.072   4.749   9.316
 4730TIP3    H238386   6.080   4.607   9.265
 4731TIP3   OH238387   7.516   5.237   9.024
 4731TIP3    H138388   7.524   5.333   9.019
 4731TIP3    H238389   7.607   5.206   9.024
 4732TIP3   OH238390   5.666   5.250   9.860
 4732TIP3    H138391   5.664   5.158   9.883
 4732TIP3    H238392   5.635   5.295   9.939
 4733TIP3   OH238393   6.736   5.554   9.391
 4733TIP3    H138394   6.692   5.565   9.307
 4733TIP3    H238395   6.719   5.636   9.438
 4734TIP3   OH238396   6.067   5.462   9.551
 4734TIP3    H138397   6.088   5.420   9.635
 4734TIP3    H238398   6.010   5.400   9.507
 4735TIP3   OH238399   6.968   5.507   9.066
 4735TIP3    H138400   7.030   5.444   9.028
 4735TIP3    H238401   6.988   5.507   9.159
 4736TIP3   OH238402   7.002   5.514   9.338
 4736TIP3    H138403   6.910   5.519   9.365
 4736TIP3    H238404   7.048   5.482   9.415
 4737TIP3   OH238405   6.271   3.914   0.016
 4737TIP3    H138406   6.193   3.912  -0.039
 4737TIP3    H238407   6.281   4.006   0.040
 4738TIP3   OH238408   7.142   4.708   8.910
 4738TIP3    H138409   7.112   4.723   8.820
 4738TIP3    H238410   7.236   4.727   8.908
 4739TIP3   OH238411   6.661   4.076   9.020
 4739TIP3    H138412   6.600   4.085   9.094
 4739TIP3    H238413   6.623   4.005   8.967
 4740TIP3   OH238414   6.106   4.402   9.461
 4740TIP3    H138415   6.094   4.497   9.454
 4740TIP3    H238416   6.160   4.379   9.386
 4741TIP3   OH238417   6.762   4.433   9.384
 4741TIP3    H138418   6.737   4.520   9.352
 4741TIP3    H238419   6.836   4.408   9.329
 4742TIP3   OH238420   6.848   4.390   9.642
 4742TIP3    H138421   6.812   4.422   9.560
 4742TIP3    H238422   6.905   4.317   9.618
 4743TIP3   OH238423   6.343   4.129   8.909
 4743TIP3    H138424   6.311   4.121   8.999
 4743TIP3    H238425   6.276   4.181   8.864
 4744TIP3   OH238426   5.748   4.102   9.718
 4744TIP3    H138427   5.786   4.123   9.803
 4744TIP3    H238428   5.792   4.160   9.657
 4745TIP3   OH238429   5.910   4.243   9.233
 4745TIP3    H138430   5.952   4.280   9.155
 4745TIP3    H238431   5.849   4.311   9.262
 4746TIP3   OH238432   6.555   4.146   9.635
 4746TIP3    H138433   6.472   4.172   9.675
 4746TIP3    H238434   6.608   4.114   9.707
 4747TIP3   OH238435   5.877   4.259   9.523
 4747TIP3    H138436   5.813   4.309   9.471
 4747TIP3    H238437   5.961   4.302   9.504
 4748TIP3   OH238438   6.288   4.349   9.265
 4748TIP3    H138439   6.374   4.342   9.305
 4748TIP3    H238440   6.304   4.385   9.178
 4749TIP3   OH238441   6.913   4.108   9.971
 4749TIP3    H138442   6.894   4.110  10.065
 4749TIP3    H238443   6.838   4.063   9.933
 4750TIP3   OH238444   6.324   4.436   9.005
 4750TIP3    H138445   6.268   4.395   8.939
 4750TIP3    H238446   6.395   4.476   8.956
 4751TIP3   OH238447   6.621   4.477   9.779
 4751TIP3    H138448   6.693   4.447   9.722
 4751TIP3    H238449   6.642   4.439   9.865
 4752TIP3   OH238450   6.202   3.999   9.555
 4752TIP3    H138451   6.118   3.956   9.539
 4752TIP3    H238452   6.267   3.929   9.551
 4753TIP3   OH238453   6.501   4.845   9.210
 4753TIP3    H138454   6.435   4.812   9.149
 4753TIP3    H238455   6.454   4.908   9.265
 4754TIP3   OH238456   6.897   4.130   9.150
 4754TIP3    H138457   6.815   4.127   9.100
 4754TIP3    H238458   6.918   4.223   9.156
 4755TIP3   OH238459   6.982   4.390   9.219
 4755TIP3    H138460   7.068   4.376   9.259
 4755TIP3    H238461   6.988   4.477   9.179
 4756TIP3   OH238462   6.138   4.821   9.753
 4756TIP3    H138463   6.193   4.809   9.675
 4756TIP3    H238464   6.197   4.805   9.827
 4757TIP3   OH238465   6.728   4.999   9.222
 4757TIP3    H138466   6.767   5.020   9.137
 4757TIP3    H238467   6.651   4.947   9.201
 4758TIP3   OH238468   7.426   4.478   9.190
 4758TIP3    H138469   7.389   4.435   9.112
 4758TIP3    H238470   7.474   4.553   9.155
 4759TIP3   OH238471   7.346   5.242   9.244
 4759TIP3    H138472   7.306   5.156   9.252
 4759TIP3    H238473   7.406   5.235   9.170
 4760TIP3   OH238474   7.002   4.795   9.824
 4760TIP3    H138475   6.907   4.789   9.836
 4760TIP3    H238476   7.025   4.717   9.773
 4761TIP3   OH238477   6.340   5.216   9.588
 4761TIP3    H138478   6.353   5.296   9.537
 4761TIP3    H238479   6.267   5.235   9.646
 4762TIP3   OH238480   5.911   4.654   9.077
 4762TIP3    H138481   5.930   4.734   9.125
 4762TIP3    H238482   5.816   4.644   9.085
 4763TIP3   OH238483   6.439   4.996   9.455
 4763TIP3    H138484   6.388   5.063   9.500
 4763TIP3    H238485   6.399   4.913   9.484
 4764TIP3   OH238486   6.330   5.461   9.461
 4764TIP3    H138487   6.241   5.484   9.485
 4764TIP3    H238488   6.384   5.531   9.497
 4765TIP3   OH238489   7.116   5.076   9.027
 4765TIP3    H138490   7.149   5.043   9.111
 4765TIP3    H238491   7.025   5.044   9.023
 4766TIP3   OH238492   7.533   5.514   9.028
 4766TIP3    H138493   7.532   5.573   8.953
 4766TIP3    H238494   7.469   5.551   9.088
 4767TIP3   OH238495   7.239   4.981   9.258
 4767TIP3    H138496   7.186   4.911   9.295
 4767TIP3    H238497   7.329   4.948   9.261
 4768TIP3   OH238498   6.552   5.078   8.932
 4768TIP3    H138499   6.508   5.027   8.864
 4768TIP3    H238500   6.486   5.085   9.002
 4769TIP3   OH238501   6.356   5.101   9.131
 4769TIP3    H138502   6.266   5.079   9.109
 4769TIP3    H238503   6.353   5.194   9.155
 4770TIP3   OH238504   5.989   4.885   9.209
 4770TIP3    H138505   5.922   4.935   9.254
 4770TIP3    H238506   6.033   4.949   9.153
 4771TIP3   OH238507   6.894   4.023   9.400
 4771TIP3    H138508   6.893   4.062   9.312
 4771TIP3    H238509   6.936   4.089   9.455
 4772TIP3   OH238510   6.598   5.290   9.234
 4772TIP3    H138511   6.507   5.315   9.218
 4772TIP3    H238512   6.650   5.363   9.200
 4773TIP3   OH238513   6.528   4.290   9.397
 4773TIP3    H138514   6.607   4.344   9.391
 4773TIP3    H238515   6.534   4.250   9.484
 4774TIP3   OH238516   6.636   3.946   9.459
 4774TIP3    H138517   6.608   4.015   9.520
 4774TIP3    H238518   6.727   3.967   9.439
 4775TIP3   OH238519   6.340   5.368   9.204
 4775TIP3    H138520   6.295   5.430   9.146
 4775TIP3    H238521   6.329   5.404   9.292
 4776TIP3   OH238522   6.233   4.097   9.160
 4776TIP3    H138523   6.224   4.184   9.201
 4776TIP3    H238524   6.316   4.063   9.195
 4777TIP3   OH238525   7.068   4.553   9.710
 4777TIP3    H138526   6.986   4.509   9.688
 4777TIP3    H238527   7.106   4.500   9.780
 4778TIP3   OH238528   6.095   5.074   9.022
 4778TIP3    H138529   6.128   5.157   8.988
 4778TIP3    H238530   6.121   5.009   8.956
 4779TIP3   OH238531   6.005   4.394   9.029
 4779TIP3    H138532   5.974   4.485   9.032
 4779TIP3    H238533   6.049   4.386   8.945
 4780TIP3   OH238534   7.238   5.417   9.940
 4780TIP3    H138535   7.226   5.486   9.875
 4780TIP3    H238536   7.311   5.448   9.994
 4781TIP3   OH238537   6.037   3.912   9.870
 4781TIP3    H138538   6.011   3.929   9.779
 4781TIP3    H238539   6.003   3.825   9.889
 4782TIP3   OH238540   5.866   5.291   9.446
 4782TIP3    H138541   5.821   5.326   9.523
 4782TIP3    H238542   5.832   5.343   9.373
 4783TIP3   OH238543   6.643   5.346   8.898
 4783TIP3    H138544   6.595   5.264   8.915
 4783TIP3    H238545   6.730   5.317   8.870
 4784TIP3   OH238546   7.130   5.333   8.927
 4784TIP3    H138547   7.144   5.248   8.969
 4784TIP3    H238548   7.197   5.337   8.858
 4785TIP3   OH238549   6.198   4.882   8.851
 4785TIP3    H138550   6.230   4.829   8.924
 4785TIP3    H238551   6.276   4.900   8.798
 4786TIP3   OH238552   6.820   5.026   8.957
 4786TIP3    H138553   6.727   5.049   8.949
 4786TIP3    H238554   6.833   4.957   8.892
 4787TIP3   OH238555   6.322   4.722   9.036
 4787TIP3    H138556   6.282   4.641   9.070
 4787TIP3    H238557   6.392   4.692   8.978
 4788TIP3   OH238558   6.510   4.602   8.878
 4788TIP3    H138559   6.509   4.627   8.786
 4788TIP3    H238560   6.603   4.604   8.903
 4789TIP3   OH238561   7.415   4.796   8.855
 4789TIP3    H138562   7.401   4.782   8.761
 4789TIP3    H238563   7.395   4.889   8.868
 4790TIP3   OH238564   6.470   5.708   9.141
 4790TIP3    H138565   6.539   5.646   9.121
 4790TIP3    H238566   6.391   5.670   9.103
 4791TIP3   OH238567   5.817   5.135   9.022
 4791TIP3    H138568   5.913   5.138   9.028
 4791TIP3    H238569   5.800   5.085   8.943
 4792TIP3   OH238570   5.684   5.650   9.559
 4792TIP3    H138571   5.622   5.631   9.489
 4792TIP3    H238572   5.704   5.565   9.598
 4793TIP3   OH238573   5.772   5.418   9.677
 4793TIP3    H138574   5.723   5.353   9.727
 4793TIP3    H238575   5.831   5.458   9.740
 4794TIP3   OH238576   7.508   4.900   9.278
 4794TIP3    H138577   7.581   4.960   9.290
 4794TIP3    H238578   7.499   4.857   9.363
 4795TIP3   OH238579   7.442   4.767   9.513
 4795TIP3    H138580   7.371   4.703   9.510
 4795TIP3    H238581   7.422   4.822   9.588
 4796TIP3   OH238582   7.555   4.866   9.899
 4796TIP3    H138583   7.643   4.859   9.938
 4796TIP3    H238584   7.542   4.959   9.885
 4797TIP3   OH238585   7.557   4.708   9.079
 4797TIP3    H138586   7.505   4.734   9.002
 4797TIP3    H238587   7.538   4.776   9.144
 4798TIP3   OH238588   7.310   4.363   8.964
 4798TIP3    H138589   7.271   4.405   8.887
 4798TIP3    H238590   7.298   4.269   8.949
 4799TIP3   OH238591   7.236   4.586   9.495
 4799TIP3    H138592   7.238   4.498   9.459
 4799TIP3    H238593   7.183   4.578   9.575
 4800TIP3   OH238594   5.693   4.753   9.904
 4800TIP3    H138595   5.749   4.759   9.827
 4800TIP3    H238596   5.754   4.744   9.978
 4801TIP3   OH238597   7.254   4.103   8.871
 4801TIP3    H138598   7.255   4.103   8.775
 4801TIP3    H238599   7.165   4.076   8.894
 4802TIP3   OH238600   7.234   4.342   9.351
 4802TIP3    H138601   7.261   4.250   9.359
 4802TIP3    H238602   7.304   4.383   9.299
 4803TIP3   OH238603   7.201   4.387   9.882
 4803TIP3    H138604   7.286   4.398   9.838
 4803TIP3    H238605   7.174   4.299   9.859
 4804TIP3   OH238606   7.270   4.067   9.412
 4804TIP3    H138607   7.283   4.037   9.502
 4804TIP3    H238608   7.216   4.000   9.372
 4805TIP3   OH238609   5.897   4.149   9.947
 4805TIP3    H138610   5.947   4.067   9.950
 4805TIP3    H238611   5.963   4.217   9.929
 4806TIP3   OH238612   5.634   4.478   9.900
 4806TIP3    H138613   5.703   4.465   9.834
 4806TIP3    H238614   5.628   4.573   9.909
 4807TIP3   OH238615   7.447   3.986   9.039
 4807TIP3    H138616   7.501   3.940   8.975
 4807TIP3    H238617   7.382   4.032   8.986
 4808TIP3   OH238618   5.653   4.081   9.330
 4808TIP3    H138619   5.569   4.076   9.376
 4808TIP3    H238620   5.629   4.077   9.237
 4809TIP3   OH238621   7.157   5.456   9.558
 4809TIP3    H138622   7.236   5.456   9.505
 4809TIP3    H238623   7.179   5.511   9.634
 4810TIP3   OH238624   5.946   5.495   9.882
 4810TIP3    H138625   5.924   5.475   9.973
 4810TIP3    H238626   6.014   5.432   9.859
 4811TIP3   OH238627   6.152   5.333   9.783
 4811TIP3    H138628   6.133   5.247   9.821
 4811TIP3    H238629   6.226   5.366   9.834
 4812TIP3   OH238630   6.372   5.403   9.937
 4812TIP3    H138631   6.401   5.312   9.936
 4812TIP3    H238632   6.381   5.430  10.028
 4813TIP3   OH238633   6.710   3.988   9.811
 4813TIP3    H138634   6.635   3.931   9.829
 4813TIP3    H238635   6.775   3.931   9.772
 4814TIP3   OH238636   7.158   3.750   9.764
 4814TIP3    H138637   7.213   3.823   9.739
 4814TIP3    H238638   7.068   3.783   9.756
 4815TIP3   OH238639   7.339   3.964   9.669
 4815TIP3    H138640   7.392   3.887   9.651
 4815TIP3    H238641   7.402   4.037   9.667
 4816TIP3   OH238642   5.940   3.884   9.515
 4816TIP3    H138643   5.850   3.859   9.538
 4816TIP3    H238644   5.992   3.806   9.533
 4817TIP3   OH238645   5.858   3.916   9.181
 4817TIP3    H138646   5.919   3.941   9.112
 4817TIP3    H238647   5.771   3.935   9.144
 4818TIP3   OH238648   6.411   3.809   9.566
 4818TIP3    H138649   6.487   3.843   9.519
 4818TIP3    H238650   6.434   3.817   9.658
 4819TIP3   OH238651   6.885   3.804   9.692
 4819TIP3    H138652   6.873   3.797   9.597
 4819TIP3    H238653   6.855   3.720   9.727
 4820TIP3   OH238654   7.110   3.867   9.312
 4820TIP3    H138655   7.032   3.916   9.336
 4820TIP3    H238656   7.082   3.775   9.310
 4821TIP3   OH238657   5.752   5.424   9.236
 4821TIP3    H138658   5.660   5.401   9.248
 4821TIP3    H238659   5.751   5.515   9.206
 4822TIP3   OH238660   6.037   4.002   8.992
 4822TIP3    H138661   6.082   3.933   8.944
 4822TIP3    H238662   6.103   4.037   9.052
 4823TIP3   OH238663   6.495   4.066   9.244
 4823TIP3    H138664   6.532   3.999   9.301
 4823TIP3    H238665   6.504   4.148   9.293
 4824TIP3   OH238666   6.688   5.524   9.104
 4824TIP3    H138667   6.782   5.535   9.088
 4824TIP3    H238668   6.657   5.477   9.026
 4825TIP3   OH238669   7.367   5.479   9.381
 4825TIP3    H138670   7.363   5.393   9.339
 4825TIP3    H238671   7.367   5.541   9.308
 4826TIP3   OH238672   5.924   5.460   8.952
 4826TIP3    H138673   5.880   5.449   9.037
 4826TIP3    H238674   6.010   5.496   8.974
 4827TIP3   OH238675   7.624   4.570   9.404
 4827TIP3    H138676   7.573   4.637   9.450
 4827TIP3    H238677   7.561   4.527   9.346
 4828TIP3   OH238678   7.587   5.146   9.904
 4828TIP3    H138679   7.681   5.161   9.898
 4828TIP3    H238680   7.562   5.182   9.989
 4829TIP3   OH238681   7.515   4.178   9.590
 4829TIP3    H138682   7.607   4.183   9.615
 4829TIP3    H238683   7.517   4.170   9.494
 4830TIP3   OH238684   7.481   5.612   9.594
 4830TIP3    H138685   7.445   5.567   9.518
 4830TIP3    H238686   7.484   5.544   9.662
 4831TIP3   OH238687   7.520   5.403   9.768
 4831TIP3    H138688   7.500   5.315   9.798
 4831TIP3    H238689   7.614   5.413   9.781
 4832TIP3   OH238690   7.623   4.601   9.817
 4832TIP3    H138691   7.709   4.626   9.783
 4832TIP3    H238692   7.580   4.685   9.838
 4833TIP3   OH238693   7.431   4.407   9.743
 4833TIP3    H138694   7.467   4.337   9.688
 4833TIP3    H238695   7.505   4.468   9.756
 4834TIP3   OH238696   7.517   4.091   9.296
 4834TIP3    H138697   7.430   4.077   9.332
 4834TIP3    H238698   7.511   4.065   9.205
 4835TIP3   OH238699   1.259   6.652   9.540
 4835TIP3    H138700   1.260   6.732   9.593
 4835TIP3    H238701   1.176   6.657   9.492
 4836TIP3   OH238702   1.093   6.607   9.859
 4836TIP3    H138703   1.099   6.570   9.947
 4836TIP3    H238704   1.028   6.551   9.814
 4837TIP3   OH238705   1.395   6.857   9.698
 4837TIP3    H138706   1.399   6.775   9.746
 4837TIP3    H238707   1.429   6.922   9.760
 4838TIP3   OH238708   0.362   6.944   9.840
 4838TIP3    H138709   0.330   6.870   9.788
 4838TIP3    H238710   0.429   6.906   9.898
 4839TIP3   OH238711   0.099   6.392   9.428
 4839TIP3    H138712   0.099   6.446   9.507
 4839TIP3    H238713   0.012   6.350   9.428
 4840TIP3   OH238714   0.085   6.521   9.691
 4840TIP3    H138715   0.145   6.449   9.711
 4840TIP3    H238716   0.141   6.599   9.688
 4841TIP3   OH238717   1.093   7.343   9.745
 4841TIP3    H138718   1.170   7.313   9.698
 4841TIP3    H238719   1.110   7.320   9.837
 4842TIP3   OH238720   1.011   6.867   9.930
 4842TIP3    H138721   1.046   6.786   9.895
 4842TIP3    H238722   1.066   6.886  10.006
 4843TIP3   OH238723   1.129   6.255   9.908
 4843TIP3    H138724   1.143   6.165   9.935
 4843TIP3    H238725   1.176   6.263   9.825
 4844TIP3   OH238726   0.653   6.032   9.669
 4844TIP3    H138727   0.625   6.122   9.654
 4844TIP3    H238728   0.590   5.979   9.620
 4845TIP3   OH238729   1.366   6.042   9.559
 4845TIP3    H138730   1.378   5.996   9.642
 4845TIP3    H238731   1.452   6.035   9.516
 4846TIP3   OH238732   0.274   6.321   9.725
 4846TIP3    H138733   0.352   6.297   9.775
 4846TIP3    H238734   0.277   6.264   9.648
 4847TIP3   OH238735   0.635   6.495   9.733
 4847TIP3    H138736   0.725   6.477   9.763
 4847TIP3    H238737   0.611   6.417   9.683
 4848TIP3   OH238738   1.111   7.045   9.421
 4848TIP3    H138739   1.096   6.993   9.341
 4848TIP3    H238740   1.203   7.030   9.442
 4849TIP3   OH238741   1.419   5.938   9.810
 4849TIP3    H138742   1.339   5.953   9.861
 4849TIP3    H238743   1.490   5.959   9.870
 4850TIP3   OH238744   0.474   6.200   9.884
 4850TIP3    H138745   0.453   6.252   9.961
 4850TIP3    H238746   0.545   6.142   9.911
 4851TIP3   OH238747   0.049   6.919   9.257
 4851TIP3    H138748   0.012   6.964   9.181
 4851TIP3    H238749   0.082   6.990   9.312
 4852TIP3   OH238750   1.494   7.025   9.887
 4852TIP3    H138751   1.477   7.006   9.979
 4852TIP3    H238752   1.546   7.106   9.888
 4853TIP3   OH238753   0.812   5.641   9.796
 4853TIP3    H138754   0.787   5.552   9.820
 4853TIP3    H238755   0.753   5.697   9.847
 4854TIP3   OH238756   1.294   7.262   9.565
 4854TIP3    H138757   1.319   7.172   9.545
 4854TIP3    H238758   1.377   7.309   9.572
 4855TIP3   OH238759   1.378   7.006   9.471
 4855TIP3    H138760   1.451   6.980   9.415
 4855TIP3    H238761   1.389   6.954   9.551
 4856TIP3   OH238762   1.073   6.614   9.331
 4856TIP3    H138763   0.993   6.660   9.306
 4856TIP3    H238764   1.130   6.622   9.255
 4857TIP3   OH238765   1.118   6.489   8.962
 4857TIP3    H138766   1.176   6.514   9.034
 4857TIP3    H238767   1.168   6.426   8.911
 4858TIP3   OH238768   1.463   6.621   9.366
 4858TIP3    H138769   1.395   6.628   9.433
 4858TIP3    H238770   1.532   6.569   9.408
 4859TIP3   OH238771   0.523   6.671   9.534
 4859TIP3    H138772   0.501   6.618   9.457
 4859TIP3    H238773   0.567   6.611   9.594
 4860TIP3   OH238774   0.772   6.992   9.882
 4860TIP3    H138775   0.774   7.006   9.787
 4860TIP3    H238776   0.858   6.954   9.902
 4861TIP3   OH238777   0.445   6.620   9.895
 4861TIP3    H138778   0.508   6.565   9.849
 4861TIP3    H238779   0.498   6.687   9.938
 4862TIP3   OH238780   1.314   6.563   9.142
 4862TIP3    H138781   1.368   6.590   9.217
 4862TIP3    H238782   1.366   6.586   9.065
 4863TIP3   OH238783   0.948   7.244   9.520
 4863TIP3    H138784   1.004   7.171   9.491
 4863TIP3    H238785   0.991   7.278   9.597
 4864TIP3   OH238786   1.650   5.674   9.183
 4864TIP3    H138787   1.571   5.706   9.227
 4864TIP3    H238788   1.682   5.750   9.134
 4865TIP3   OH238789   0.430   6.546   9.300
 4865TIP3    H138790   0.363   6.606   9.268
 4865TIP3    H238791   0.384   6.462   9.308
 4866TIP3   OH238792   1.829   7.090   8.962
 4866TIP3    H138793   1.822   7.185   8.969
 4866TIP3    H238794   1.922   7.075   8.942
 4867TIP3   OH238795   0.173   7.144   9.885
 4867TIP3    H138796   0.229   7.067   9.880
 4867TIP3    H238797   0.224   7.209   9.934
 4868TIP3   OH238798   0.965   7.534   9.325
 4868TIP3    H138799   0.982   7.549   9.232
 4868TIP3    H238800   0.960   7.621   9.363
 4869TIP3   OH238801   0.385   7.249   9.468
 4869TIP3    H138802   0.406   7.203   9.549
 4869TIP3    H238803   0.309   7.202   9.433
 4870TIP3   OH238804   1.291   7.416   9.058
 4870TIP3    H138805   1.353   7.351   9.026
 4870TIP3    H238806   1.278   7.393   9.151
 4871TIP3   OH238807   1.194   7.367   9.327
 4871TIP3    H138808   1.122   7.425   9.350
 4871TIP3    H238809   1.218   7.323   9.408
 4872TIP3   OH238810   0.638   5.785   9.956
 4872TIP3    H138811   0.563   5.784   9.897
 4872TIP3    H238812   0.650   5.878   9.977
 4873TIP3   OH238813   1.454   6.612   8.911
 4873TIP3    H138814   1.421   6.619   8.822
 4873TIP3    H238815   1.549   6.619   8.901
 4874TIP3   OH238816   0.963   6.005   8.982
 4874TIP3    H138817   0.920   5.996   9.067
 4874TIP3    H238818   0.929   5.932   8.931
 4875TIP3   OH238819   0.581   6.287   9.566
 4875TIP3    H138820   0.491   6.255   9.559
 4875TIP3    H238821   0.617   6.277   9.478
 4876TIP3   OH238822   1.118   6.354   9.425
 4876TIP3    H138823   1.098   6.445   9.407
 4876TIP3    H238824   1.181   6.329   9.358
 4877TIP3   OH238825   1.245   6.266   9.658
 4877TIP3    H138826   1.199   6.307   9.585
 4877TIP3    H238827   1.280   6.185   9.622
 4878TIP3   OH238828   0.628   6.000   8.952
 4878TIP3    H138829   0.612   6.008   9.046
 4878TIP3    H238830   0.593   6.082   8.915
 4879TIP3   OH238831   0.065   6.010   9.640
 4879TIP3    H138832   0.141   6.010   9.699
 4879TIP3    H238833   0.098   5.976   9.557
 4880TIP3   OH238834   0.207   6.188   9.280
 4880TIP3    H138835   0.199   6.203   9.186
 4880TIP3    H238836   0.166   6.265   9.321
 4881TIP3   OH238837   0.918   5.993   9.618
 4881TIP3    H138838   0.827   6.001   9.646
 4881TIP3    H238839   0.961   5.947   9.690
 4882TIP3   OH238840   0.347   6.161   9.514
 4882TIP3    H138841   0.298   6.167   9.432
 4882TIP3    H238842   0.377   6.070   9.517
 4883TIP3   OH238843   0.664   6.234   9.311
 4883TIP3    H138844   0.758   6.222   9.326
 4883TIP3    H238845   0.658   6.267   9.221
 4884TIP3   OH238846   1.186   5.986   9.958
 4884TIP3    H138847   1.174   5.967  10.051
 4884TIP3    H238848   1.127   5.926   9.914
 4885TIP3   OH238849   0.640   6.308   9.047
 4885TIP3    H138850   0.584   6.290   8.972
 4885TIP3    H238851   0.716   6.353   9.010
 4886TIP3   OH238852   0.906   6.390   9.805
 4886TIP3    H138853   0.895   6.344   9.722
 4886TIP3    H238854   0.974   6.340   9.851
 4887TIP3   OH238855   0.471   5.917   9.487
 4887TIP3    H138856   0.418   5.838   9.497
 4887TIP3    H238857   0.503   5.914   9.397
 4888TIP3   OH238858   0.842   6.755   9.254
 4888TIP3    H138859   0.779   6.707   9.200
 4888TIP3    H238860   0.789   6.797   9.321
 4889TIP3   OH238861   1.209   6.053   9.114
 4889TIP3    H138862   1.125   6.059   9.068
 4889TIP3    H238863   1.230   6.144   9.137
 4890TIP3   OH238864   1.303   6.295   9.228
 4890TIP3    H138865   1.388   6.274   9.267
 4890TIP3    H238866   1.315   6.382   9.191
 4891TIP3   OH238867   0.292   6.713   9.692
 4891TIP3    H138868   0.355   6.713   9.619
 4891TIP3    H238869   0.338   6.667   9.763
 4892TIP3   OH238870   1.029   6.937   9.173
 4892TIP3    H138871   0.986   7.022   9.177
 4892TIP3    H238872   0.961   6.874   9.196
 4893TIP3   OH238873   1.696   6.320   9.104
 4893TIP3    H138874   1.639   6.317   9.027
 4893TIP3    H238875   1.736   6.407   9.100
 4894TIP3   OH238876   1.693   7.107   9.212
 4894TIP3    H138877   1.645   7.028   9.234
 4894TIP3    H238878   1.736   7.088   9.128
 4895TIP3   OH238879   1.372   6.617   9.833
 4895TIP3    H138880   1.277   6.610   9.823
 4895TIP3    H238881   1.407   6.545   9.782
 4896TIP3   OH238882   0.739   7.069   9.615
 4896TIP3    H138883   0.798   7.139   9.585
 4896TIP3    H238884   0.657   7.114   9.634
 4897TIP3   OH238885   0.137   6.538   9.016
 4897TIP3    H138886   0.174   6.591   9.086
 4897TIP3    H238887   0.043   6.540   9.031
 4898TIP3   OH238888   0.668   6.883   9.425
 4898TIP3    H138889   0.698   6.939   9.497
 4898TIP3    H238890   0.612   6.818   9.466
 4899TIP3   OH238891   0.644   7.331   9.468
 4899TIP3    H138892   0.553   7.304   9.455
 4899TIP3    H238893   0.642   7.382   9.549
 4900TIP3   OH238894   1.468   6.957   9.038
 4900TIP3    H138895   1.490   6.920   9.124
 4900TIP3    H238896   1.380   6.924   9.021
 4901TIP3   OH238897   1.808   7.356   9.015
 4901TIP3    H138898   1.849   7.421   8.957
 4901TIP3    H238899   1.732   7.401   9.052
 4902TIP3   OH238900   1.566   6.861   9.282
 4902TIP3    H138901   1.517   6.784   9.312
 4902TIP3    H238902   1.658   6.833   9.283
 4903TIP3   OH238903   0.798   7.046   8.965
 4903TIP3    H138904   0.808   6.964   8.917
 4903TIP3    H238905   0.745   7.022   9.041
 4904TIP3   OH238906   0.631   7.033   9.194
 4904TIP3    H138907   0.642   6.977   9.271
 4904TIP3    H238908   0.614   7.120   9.229
 4905TIP3   OH238909   0.245   6.729   9.189
 4905TIP3    H138910   0.173   6.780   9.227
 4905TIP3    H238911   0.302   6.794   9.149
 4906TIP3   OH238912   1.212   5.923   9.359
 4906TIP3    H138913   1.213   5.975   9.279
 4906TIP3    H238914   1.251   5.979   9.425
 4907TIP3   OH238915   0.981   7.220   9.206
 4907TIP3    H138916   0.985   7.240   9.113
 4907TIP3    H238917   1.068   7.240   9.239
 4908TIP3   OH238918   0.919   6.165   9.401
 4908TIP3    H138919   0.988   6.231   9.412
 4908TIP3    H238920   0.924   6.112   9.481
 4909TIP3   OH238921   0.981   5.796   9.430
 4909TIP3    H138922   0.956   5.856   9.500
 4909TIP3    H238923   1.069   5.822   9.406
 4910TIP3   OH238924   0.707   7.374   9.142
 4910TIP3    H138925   0.719   7.465   9.115
 4910TIP3    H238926   0.669   7.331   9.065
 4911TIP3   OH238927   0.583   5.981   9.230
 4911TIP3    H138928   0.585   6.069   9.267
 4911TIP3    H238929   0.674   5.952   9.232
 4912TIP3   OH238930   1.486   6.388   9.724
 4912TIP3    H138931   1.406   6.339   9.707
 4912TIP3    H238932   1.533   6.335   9.789
 4913TIP3   OH238933   0.397   6.931   9.072
 4913TIP3    H138934   0.465   6.978   9.120
 4913TIP3    H238935   0.445   6.883   9.004
 4914TIP3   OH238936   0.173   6.260   9.018
 4914TIP3    H138937   0.156   6.354   9.023
 4914TIP3    H238938   0.173   6.240   8.925
 4915TIP3   OH238939   1.610   7.284   9.911
 4915TIP3    H138940   1.596   7.366   9.864
 4915TIP3    H238941   1.686   7.300   9.966
 4916TIP3   OH238942   0.420   5.766   9.784
 4916TIP3    H138943   0.401   5.751   9.691
 4916TIP3    H238944   0.382   5.690   9.829
 4917TIP3   OH238945   0.129   7.154   9.387
 4917TIP3    H138946   0.100   7.175   9.475
 4917TIP3    H238947   0.100   7.228   9.334
 4918TIP3   OH238948   0.985   7.247   8.930
 4918TIP3    H138949   0.918   7.178   8.935
 4918TIP3    H238950   1.063   7.202   8.897
 4919TIP3   OH238951   1.445   7.218   8.947
 4919TIP3    H138952   1.475   7.138   8.990
 4919TIP3    H238953   1.508   7.232   8.877
 4920TIP3   OH238954   0.569   6.784   8.916
 4920TIP3    H138955   0.586   6.724   8.988
 4920TIP3    H238956   0.653   6.795   8.873
 4921TIP3   OH238957   1.211   6.887   8.971
 4921TIP3    H138958   1.144   6.891   9.040
 4921TIP3    H238959   1.179   6.819   8.912
 4922TIP3   OH238960   0.642   6.616   9.123
 4922TIP3    H138961   0.577   6.577   9.181
 4922TIP3    H238962   0.689   6.542   9.085
 4923TIP3   OH238963   0.839   6.474   8.966
 4923TIP3    H138964   0.831   6.510   8.878
 4923TIP3    H238965   0.934   6.473   8.982
 4924TIP3   OH238966   1.725   6.665   8.826
 4924TIP3    H138967   1.714   6.640   8.734
 4924TIP3    H238968   1.700   6.758   8.829
 4925TIP3   OH238969   0.782   7.623   9.054
 4925TIP3    H138970   0.874   7.597   9.041
 4925TIP3    H238971   0.772   7.704   9.005
 4926TIP3   OH238972   0.149   7.006   8.957
 4926TIP3    H138973   0.231   7.007   9.007
 4926TIP3    H238974   0.149   6.921   8.913
 4927TIP3   OH238975   0.084   7.569   9.453
 4927TIP3    H138976  -0.004   7.581   9.487
 4927TIP3    H238977   0.072   7.517   9.374
 4928TIP3   OH238978   0.089   7.244   9.645
 4928TIP3    H138979   0.115   7.199   9.725
 4928TIP3    H238980   0.143   7.323   9.642
 4929TIP3   OH238981   1.822   6.757   9.280
 4929TIP3    H138982   1.885   6.829   9.287
 4929TIP3    H238983   1.852   6.693   9.344
 4930TIP3   OH238984   1.897   6.553   9.458
 4930TIP3    H138985   1.811   6.522   9.487
 4930TIP3    H238986   1.944   6.569   9.540
 4931TIP3   OH238987   1.843   6.905   9.935
 4931TIP3    H138988   1.867   6.823   9.891
 4931TIP3    H238989   1.920   6.961   9.923
 4932TIP3   OH238990   1.808   6.571   9.076
 4932TIP3    H138991   1.781   6.607   8.991
 4932TIP3    H238992   1.797   6.644   9.137
 4933TIP3   OH238993   1.550   6.287   8.870
 4933TIP3    H138994   1.586   6.312   8.786
 4933TIP3    H238995   1.556   6.191   8.872
 4934TIP3   OH238996   1.638   6.449   9.501
 4934TIP3    H138997   1.613   6.373   9.448
 4934TIP3    H238998   1.593   6.437   9.584
 4935TIP3   OH238999   0.198   6.662   0.030
 4935TIP3    H139000   0.277   6.637  -0.019
 4935TIP3    H239001   0.201   6.607   0.108
 4936TIP3   OH239002   1.571   6.014   8.863
 4936TIP3    H139003   1.614   5.966   8.933
 4936TIP3    H239004   1.482   5.981   8.862
 4937TIP3   OH239005   1.559   6.239   9.332
 4937TIP3    H139006   1.581   6.150   9.357
 4937TIP3    H239007   1.612   6.256   9.254
 4938TIP3   OH239008   1.634   6.241   9.909
 4938TIP3    H139009   1.727   6.261   9.902
 4938TIP3    H239010   1.631   6.147   9.927
 4939TIP3   OH239011   1.602   5.976   9.423
 4939TIP3    H139012   1.654   5.936   9.492
 4939TIP3    H239013   1.558   5.903   9.381
 4940TIP3   OH239014   0.290   6.008   9.797
 4940TIP3    H139015   0.336   5.924   9.801
 4940TIP3    H239016   0.355   6.072   9.825
 4941TIP3   OH239017   0.150   6.256   9.970
 4941TIP3    H139018   0.178   6.249   9.879
 4941TIP3    H239019   0.064   6.298   9.965
 4942TIP3   OH239020   1.741   5.885   9.035
 4942TIP3    H139021   1.798   5.837   8.975
 4942TIP3    H239022   1.796   5.954   9.071
 4943TIP3   OH239023   0.117   5.944   9.373
 4943TIP3    H139024   0.023   5.948   9.354
 4943TIP3    H239025   0.152   6.025   9.336
 4944TIP3   OH239026   1.538   7.385   9.546
 4944TIP3    H139027   1.617   7.368   9.495
 4944TIP3    H239028   1.570   7.432   9.624
 4945TIP3   OH239029   0.369   7.312  -0.006
 4945TIP3    H139030   0.382   7.363   0.073
 4945TIP3    H239031   0.455   7.274  -0.025
 4946TIP3   OH239032   0.488   7.154   9.708
 4946TIP3    H139033   0.440   7.083   9.749
 4946TIP3    H239034   0.526   7.203   9.781
 4947TIP3   OH239035   0.627   7.222   9.947
 4947TIP3    H139036   0.681   7.144   9.938
 4947TIP3    H239037   0.678   7.280  10.004
 4948TIP3   OH239038   1.035   5.815   9.795
 4948TIP3    H139039   0.967   5.748   9.804
 4948TIP3    H239040   1.106   5.771   9.748
 4949TIP3   OH239041   1.565   5.701   9.760
 4949TIP3    H139042   1.638   5.748   9.719
 4949TIP3    H239043   1.502   5.769   9.781
 4950TIP3   OH239044   1.761   5.847   9.607
 4950TIP3    H139045   1.813   5.770   9.584
 4950TIP3    H239046   1.825   5.911   9.639
 4951TIP3   OH239047   0.326   5.688   9.531
 4951TIP3    H139048   0.232   5.675   9.526
 4951TIP3    H239049   0.364   5.603   9.506
 4952TIP3   OH239050   0.172   5.736   9.197
 4952TIP3    H139051   0.242   5.782   9.149
 4952TIP3    H239052   0.151   5.794   9.270
 4953TIP3   OH239053   0.782   5.617   9.519
 4953TIP3    H139054   0.847   5.678   9.484
 4953TIP3    H239055   0.792   5.624   9.614
 4954TIP3   OH239056   1.221   5.663   9.658
 4954TIP3    H139057   1.305   5.634   9.624
 4954TIP3    H239058   1.184   5.586   9.702
 4955TIP3   OH239059   1.438   5.773   9.326
 4955TIP3    H139060   1.359   5.825   9.334
 4955TIP3    H239061   1.408   5.682   9.333
 4956TIP3   OH239062   0.062   7.382   9.242
 4956TIP3    H139063  -0.005   7.383   9.174
 4956TIP3    H239064   0.142   7.410   9.197
 4957TIP3   OH239065   0.380   5.868   9.073
 4957TIP3    H139066   0.435   5.821   9.010
 4957TIP3    H239067   0.442   5.906   9.136
 4958TIP3   OH239068   0.858   5.956   9.235
 4958TIP3    H139069   0.893   5.881   9.282
 4958TIP3    H239070   0.883   6.032   9.288
 4959TIP3   OH239071   1.028   7.499   9.049
 4959TIP3    H139072   1.124   7.497   9.047
 4959TIP3    H239073   1.001   7.421   8.999
 4960TIP3   OH239074   1.718   7.350   9.335
 4960TIP3    H139075   1.713   7.261   9.301
 4960TIP3    H239076   1.685   7.405   9.264
 4961TIP3   OH239077   0.385   7.411   8.911
 4961TIP3    H139078   0.358   7.437   8.999
 4961TIP3    H239079   0.458   7.351   8.924
 4962TIP3   OH239080   3.100   6.686   9.514
 4962TIP3    H139081   3.069   6.776   9.514
 4962TIP3    H239082   3.035   6.639   9.462
 4963TIP3   OH239083   2.943   6.582   9.872
 4963TIP3    H139084   2.943   6.532   9.954
 4963TIP3    H239085   2.899   6.524   9.809
 4964TIP3   OH239086   3.367   6.861   9.727
 4964TIP3    H139087   3.312   6.788   9.756
 4964TIP3    H239088   3.401   6.899   9.808
 4965TIP3   OH239089   2.338   6.932   9.871
 4965TIP3    H139090   2.310   6.851   9.827
 4965TIP3    H239091   2.433   6.927   9.870
 4966TIP3   OH239092   2.009   6.328   9.330
 4966TIP3    H139093   1.979   6.410   9.369
 4966TIP3    H239094   1.936   6.300   9.275
 4967TIP3   OH239095   2.070   6.575   9.689
 4967TIP3    H139096   2.094   6.483   9.701
 4967TIP3    H239097   2.151   6.623   9.702
 4968TIP3   OH239098   3.027   7.386   9.772
 4968TIP3    H139099   3.060   7.310   9.724
 4968TIP3    H239100   3.013   7.353   9.861
 4969TIP3   OH239101   2.845   6.827   9.966
 4969TIP3    H139102   2.884   6.749   9.924
 4969TIP3    H239103   2.910   6.853  10.032
 4970TIP3   OH239104   3.048   6.241   9.898
 4970TIP3    H139105   3.077   6.158   9.936
 4970TIP3    H239106   3.091   6.246   9.813
 4971TIP3   OH239107   2.484   6.028   9.649
 4971TIP3    H139108   2.475   6.112   9.604
 4971TIP3    H239109   2.426   5.968   9.603
 4972TIP3   OH239110   3.274   6.016   9.587
 4972TIP3    H139111   3.301   5.981   9.672
 4972TIP3    H239112   3.353   6.012   9.533
 4973TIP3   OH239113   2.126   6.311   9.740
 4973TIP3    H139114   2.198   6.271   9.789
 4973TIP3    H239115   2.127   6.266   9.655
 4974TIP3   OH239116   2.588   6.428   9.672
 4974TIP3    H139117   2.680   6.399   9.677
 4974TIP3    H239118   2.545   6.362   9.617
 4975TIP3   OH239119   2.976   6.923   9.435
 4975TIP3    H139120   2.981   6.921   9.339
 4975TIP3    H239121   2.944   7.010   9.456
 4976TIP3   OH239122   3.343   5.922   9.835
 4976TIP3    H139123   3.266   5.939   9.889
 4976TIP3    H239124   3.416   5.957   9.887
 4977TIP3   OH239125   2.343   6.170   9.845
 4977TIP3    H139126   2.401   6.240   9.875
 4977TIP3    H239127   2.399   6.113   9.791
 4978TIP3   OH239128   2.007   6.960   9.298
 4978TIP3    H139129   1.998   7.034   9.238
 4978TIP3    H239130   2.029   7.001   9.382
 4979TIP3   OH239131   3.454   6.965   9.974
 4979TIP3    H139132   3.393   6.964  10.047
 4979TIP3    H239133   3.484   7.056   9.970
 4980TIP3   OH239134   2.785   5.624   9.871
 4980TIP3    H139135   2.865   5.574   9.857
 4980TIP3    H239136   2.773   5.624   9.966
 4981TIP3   OH239137   3.170   7.235   9.542
 4981TIP3    H139138   3.212   7.150   9.529
 4981TIP3    H239139   3.242   7.293   9.567
 4982TIP3   OH239140   3.325   7.013   9.501
 4982TIP3    H139141   3.379   6.971   9.434
 4982TIP3    H239142   3.338   6.960   9.579
 4983TIP3   OH239143   2.945   6.570   9.312
 4983TIP3    H139144   2.871   6.628   9.292
 4983TIP3    H239145   3.011   6.592   9.246
 4984TIP3   OH239146   3.006   6.506   8.951
 4984TIP3    H139147   3.060   6.535   9.024
 4984TIP3    H239148   3.057   6.435   8.910
 4985TIP3   OH239149   3.332   6.650   9.374
 4985TIP3    H139150   3.261   6.665   9.435
 4985TIP3    H239151   3.395   6.597   9.423
 4986TIP3   OH239152   2.474   6.645   9.532
 4986TIP3    H139153   2.432   6.602   9.458
 4986TIP3    H239154   2.525   6.575   9.574
 4987TIP3   OH239155   2.608   6.898   9.847
 4987TIP3    H139156   2.627   6.951   9.770
 4987TIP3    H239157   2.694   6.885   9.889
 4988TIP3   OH239158   2.492   6.394   9.928
 4988TIP3    H139159   2.529   6.401   9.840
 4988TIP3    H239160   2.488   6.484   9.960
 4989TIP3   OH239161   3.194   6.575   9.146
 4989TIP3    H139162   3.242   6.612   9.220
 4989TIP3    H239163   3.249   6.594   9.070
 4990TIP3   OH239164   2.909   7.204   9.460
 4990TIP3    H139165   2.994   7.212   9.503
 4990TIP3    H239166   2.878   7.294   9.452
 4991TIP3   OH239167   3.532   5.677   9.169
 4991TIP3    H139168   3.452   5.703   9.215
 4991TIP3    H239169   3.564   5.758   9.130
 4992TIP3   OH239170   2.332   6.548   9.309
 4992TIP3    H139171   2.289   6.630   9.286
 4992TIP3    H239172   2.265   6.481   9.294
 4993TIP3   OH239173   3.721   7.127   8.984
 4993TIP3    H139174   3.721   7.222   8.985
 4993TIP3    H239175   3.814   7.103   8.978
 4994TIP3   OH239176   2.082   7.036   9.918
 4994TIP3    H139177   2.169   7.002   9.896
 4994TIP3    H239178   2.086   7.129   9.896
 4995TIP3   OH239179   2.862   7.468   9.375
 4995TIP3    H139180   2.813   7.499   9.299
 4995TIP3    H239181   2.846   7.534   9.442
 4996TIP3   OH239182   2.293   7.283   9.546
 4996TIP3    H139183   2.316   7.253   9.635
 4996TIP3    H239184   2.217   7.229   9.523
 4997TIP3   OH239185   3.218   7.416   9.046
 4997TIP3    H139186   3.256   7.334   9.015
 4997TIP3    H239187   3.188   7.397   9.135
 4998TIP3   OH239188   3.121   7.384   9.302
 4998TIP3    H139189   3.030   7.410   9.314
 4998TIP3    H239190   3.137   7.319   9.371
 4999TIP3   OH239191   2.438   5.732  10.004
 4999TIP3    H139192   2.385   5.739   9.924
 4999TIP3    H239193   2.437   5.821  10.040
 5000TIP3   OH239194   3.342   6.607   8.917
 5000TIP3    H139195   3.307   6.613   8.828
 5000TIP3    H239196   3.436   6.621   8.906
 5001TIP3   OH239197   2.952   5.942   9.004
 5001TIP3    H139198   2.927   5.905   9.088
 5001TIP3    H239199   2.869   5.969   8.964
 5002TIP3   OH239200   2.424   6.263   9.524
 5002TIP3    H139201   2.329   6.253   9.521
 5002TIP3    H239202   2.453   6.243   9.435
 5003TIP3   OH239203   2.990   6.318   9.413
 5003TIP3    H139204   2.958   6.405   9.389
 5003TIP3    H239205   3.062   6.301   9.353
 5004TIP3   OH239206   3.134   6.244   9.638
 5004TIP3    H139207   3.092   6.269   9.556
 5004TIP3    H239208   3.181   6.162   9.617
 5005TIP3   OH239209   2.689   6.008   8.937
 5005TIP3    H139210   2.684   5.997   9.032
 5005TIP3    H239211   2.608   6.052   8.913
 5006TIP3   OH239212   1.963   6.022   9.664
 5006TIP3    H139213   2.008   6.017   9.749
 5006TIP3    H239214   2.023   6.072   9.609
 5007TIP3   OH239215   1.872   6.112   9.126
 5007TIP3    H139216   1.950   6.151   9.086
 5007TIP3    H239217   1.804   6.179   9.114
 5008TIP3   OH239218   2.759   5.988   9.624
 5008TIP3    H139219   2.665   5.994   9.644
 5008TIP3    H239220   2.800   5.973   9.709
 5009TIP3   OH239221   2.154   6.172   9.507
 5009TIP3    H139222   2.107   6.211   9.432
 5009TIP3    H239223   2.190   6.091   9.472
 5010TIP3   OH239224   2.530   6.180   9.289
 5010TIP3    H139225   2.621   6.171   9.316
 5010TIP3    H239226   2.534   6.223   9.204
 5011TIP3   OH239227   3.129   5.991  -0.003
 5011TIP3    H139228   3.130   6.000   0.093
 5011TIP3    H239229   3.048   5.944  -0.022
 5012TIP3   OH239230   2.548   6.279   9.041
 5012TIP3    H139231   2.511   6.241   8.961
 5012TIP3    H239232   2.617   6.338   9.009
 5013TIP3   OH239233   2.854   6.353   9.717
 5013TIP3    H139234   2.911   6.345   9.640
 5013TIP3    H239235   2.900   6.305   9.785
 5014TIP3   OH239236   2.292   5.937   9.457
 5014TIP3    H139237   2.245   5.857   9.481
 5014TIP3    H239238   2.332   5.917   9.373
 5015TIP3   OH239239   2.733   6.740   9.248
 5015TIP3    H139240   2.662   6.703   9.196
 5015TIP3    H239241   2.690   6.794   9.314
 5016TIP3   OH239242   3.128   6.056   9.195
 5016TIP3    H139243   3.088   6.046   9.108
 5016TIP3    H239244   3.159   6.146   9.197
 5017TIP3   OH239245   3.209   6.312   9.246
 5017TIP3    H139246   3.296   6.299   9.284
 5017TIP3    H239247   3.213   6.400   9.208
 5018TIP3   OH239248   2.317   6.681   9.757
 5018TIP3    H139249   2.372   6.676   9.678
 5018TIP3    H239250   2.376   6.659   9.829
 5019TIP3   OH239251   2.938   6.892   9.150
 5019TIP3    H139252   2.903   6.981   9.152
 5019TIP3    H239253   2.864   6.837   9.177
 5020TIP3   OH239254   3.581   6.325   9.113
 5020TIP3    H139255   3.521   6.319   9.038
 5020TIP3    H239256   3.624   6.409   9.102
 5021TIP3   OH239257   3.590   7.122   9.230
 5021TIP3    H139258   3.543   7.041   9.250
 5021TIP3    H239259   3.626   7.108   9.143
 5022TIP3   OH239260   3.222   6.642   9.827
 5022TIP3    H139261   3.127   6.636   9.818
 5022TIP3    H239262   3.255   6.570   9.774
 5023TIP3   OH239263   2.580   7.082   9.624
 5023TIP3    H139264   2.607   7.143   9.555
 5023TIP3    H239265   2.523   7.133   9.681
 5024TIP3   OH239266   2.084   6.541   9.096
 5024TIP3    H139267   2.118   6.621   9.136
 5024TIP3    H239268   1.989   6.551   9.100
 5025TIP3   OH239269   2.572   6.885   9.422
 5025TIP3    H139270   2.581   6.948   9.493
 5025TIP3    H239271   2.534   6.807   9.464
 5026TIP3   OH239272   2.540   7.286   9.425
 5026TIP3    H139273   2.448   7.281   9.448
 5026TIP3    H239274   2.575   7.357   9.480
 5027TIP3   OH239275   3.359   6.952   9.037
 5027TIP3    H139276   3.380   6.923   9.125
 5027TIP3    H239277   3.277   6.907   9.015
 5028TIP3   OH239278   3.701   7.401   9.008
 5028TIP3    H139279   3.704   7.462   8.934
 5028TIP3    H239280   3.622   7.426   9.056
 5029TIP3   OH239281   3.467   6.869   9.282
 5029TIP3    H139282   3.413   6.797   9.314
 5029TIP3    H239283   3.556   6.833   9.280
 5030TIP3   OH239284   2.697   7.018   8.938
 5030TIP3    H139285   2.690   6.932   8.896
 5030TIP3    H239286   2.648   7.010   9.019
 5031TIP3   OH239287   2.540   7.021   9.172
 5031TIP3    H139288   2.552   6.981   9.258
 5031TIP3    H239289   2.565   7.113   9.185
 5032TIP3   OH239290   2.185   6.767   9.217
 5032TIP3    H139291   2.123   6.826   9.259
 5032TIP3    H239292   2.236   6.823   9.158
 5033TIP3   OH239293   3.099   5.899   9.411
 5033TIP3    H139294   3.107   5.957   9.335
 5033TIP3    H239295   3.149   5.941   9.480
 5034TIP3   OH239296   2.835   7.137   9.203
 5034TIP3    H139297   2.772   7.203   9.173
 5034TIP3    H239298   2.857   7.164   9.292
 5035TIP3   OH239299   2.785   6.129   9.387
 5035TIP3    H139300   2.856   6.192   9.391
 5035TIP3    H239301   2.783   6.089   9.473
 5036TIP3   OH239302   2.850   5.796   9.445
 5036TIP3    H139303   2.813   5.863   9.503
 5036TIP3    H239304   2.941   5.821   9.434
 5037TIP3   OH239305   2.608   7.305   9.160
 5037TIP3    H139306   2.641   7.394   9.145
 5037TIP3    H239307   2.580   7.306   9.252
 5038TIP3   OH239308   2.437   5.931   9.215
 5038TIP3    H139309   2.455   6.022   9.240
 5038TIP3    H239310   2.524   5.892   9.205
 5039TIP3   OH239311   3.340   6.411   9.719
 5039TIP3    H139312   3.269   6.351   9.694
 5039TIP3    H239313   3.394   6.360   9.780
 5040TIP3   OH239314   2.310   6.941   9.044
 5040TIP3    H139315   2.383   6.982   9.090
 5040TIP3    H239316   2.352   6.878   8.985
 5041TIP3   OH239317   2.072   6.265   9.019
 5041TIP3    H139318   2.096   6.328   9.088
 5041TIP3    H239319   2.064   6.318   8.940
 5042TIP3   OH239320   3.488   7.314   9.960
 5042TIP3    H139321   3.461   7.391   9.911
 5042TIP3    H239322   3.572   7.337  10.000
 5043TIP3   OH239323   2.238   5.760   9.806
 5043TIP3    H139324   2.223   5.753   9.712
 5043TIP3    H239325   2.199   5.681   9.843
 5044TIP3   OH239326   2.051   7.165   9.479
 5044TIP3    H139327   1.993   7.206   9.543
 5044TIP3    H239328   2.025   7.204   9.396
 5045TIP3   OH239329   2.877   7.217   8.883
 5045TIP3    H139330   2.812   7.153   8.910
 5045TIP3    H239331   2.956   7.166   8.867
 5046TIP3   OH239332   3.342   7.204   8.926
 5046TIP3    H139333   3.364   7.123   8.973
 5046TIP3    H239334   3.409   7.212   8.859
 5047TIP3   OH239335   2.426   6.740   8.902
 5047TIP3    H139336   2.455   6.690   8.979
 5047TIP3    H239337   2.508   6.761   8.856
 5048TIP3   OH239338   3.114   6.855   8.947
 5048TIP3    H139339   3.052   6.861   9.020
 5048TIP3    H239340   3.070   6.799   8.883
 5049TIP3   OH239341   2.532   6.605   9.115
 5049TIP3    H139342   2.476   6.560   9.179
 5049TIP3    H239343   2.589   6.536   9.080
 5050TIP3   OH239344   2.730   6.466   8.963
 5050TIP3    H139345   2.713   6.496   8.874
 5050TIP3    H239346   2.823   6.480   8.976
 5051TIP3   OH239347   3.612   6.666   8.842
 5051TIP3    H139348   3.599   6.643   8.750
 5051TIP3    H239349   3.601   6.761   8.845
 5052TIP3   OH239350   2.727   7.557   9.141
 5052TIP3    H139351   2.804   7.529   9.091
 5052TIP3    H239352   2.701   7.640   9.101
 5053TIP3   OH239353   2.092   7.021   8.897
 5053TIP3    H139354   2.164   7.010   8.958
 5053TIP3    H239355   2.066   6.932   8.873
 5054TIP3   OH239356   1.952   7.449   9.437
 5054TIP3    H139357   1.873   7.426   9.388
 5054TIP3    H239358   1.936   7.416   9.525
 5055TIP3   OH239359   1.915   7.310   9.677
 5055TIP3    H139360   1.834   7.289   9.724
 5055TIP3    H239361   1.983   7.310   9.744
 5056TIP3   OH239362   3.719   6.754   9.278
 5056TIP3    H139363   3.786   6.822   9.284
 5056TIP3    H239364   3.739   6.694   9.349
 5057TIP3   OH239365   3.769   6.567   9.477
 5057TIP3    H139366   3.681   6.540   9.503
 5057TIP3    H239367   3.816   6.578   9.559
 5058TIP3   OH239368   3.800   6.940  10.024
 5058TIP3    H139369   3.800   6.853   9.985
 5058TIP3    H239370   3.856   6.992   9.966
 5059TIP3   OH239371   3.714   6.565   9.076
 5059TIP3    H139372   3.676   6.603   8.997
 5059TIP3    H239373   3.707   6.634   9.142
 5060TIP3   OH239374   3.423   6.273   8.888
 5060TIP3    H139375   3.446   6.293   8.798
 5060TIP3    H239376   3.426   6.177   8.894
 5061TIP3   OH239377   3.505   6.473   9.507
 5061TIP3    H139378   3.494   6.391   9.459
 5061TIP3    H239379   3.455   6.460   9.588
 5062TIP3   OH239380   1.919   6.616   9.915
 5062TIP3    H139381   1.972   6.613   9.835
 5062TIP3    H239382   1.982   6.610   9.986
 5063TIP3   OH239383   3.432   6.000   8.864
 5063TIP3    H139384   3.479   5.957   8.935
 5063TIP3    H239385   3.345   5.961   8.864
 5064TIP3   OH239386   3.460   6.244   9.350
 5064TIP3    H139387   3.476   6.152   9.370
 5064TIP3    H239388   3.511   6.261   9.271
 5065TIP3   OH239389   3.507   6.261   9.881
 5065TIP3    H139390   3.595   6.298   9.870
 5065TIP3    H239391   3.522   6.170   9.905
 5066TIP3   OH239392   3.488   5.966   9.419
 5066TIP3    H139393   3.546   5.922   9.481
 5066TIP3    H239394   3.443   5.894   9.373
 5067TIP3   OH239395   2.128   5.999   9.889
 5067TIP3    H139396   2.168   5.915   9.867
 5067TIP3    H239397   2.201   6.061   9.888
 5068TIP3   OH239398   1.898   6.332   9.899
 5068TIP3    H139399   1.966   6.317   9.832
 5068TIP3    H239400   1.884   6.427   9.898
 5069TIP3   OH239401   3.621   5.895   9.034
 5069TIP3    H139402   3.681   5.851   8.973
 5069TIP3    H239403   3.673   5.966   9.072
 5070TIP3   OH239404   1.924   5.920   9.318
 5070TIP3    H139405   1.863   5.931   9.391
 5070TIP3    H239406   1.905   5.994   9.260
 5071TIP3   OH239407   3.388   7.398   9.584
 5071TIP3    H139408   3.463   7.375   9.529
 5071TIP3    H239409   3.427   7.434   9.664
 5072TIP3   OH239410   2.115   7.305   9.868
 5072TIP3    H139411   2.108   7.362   9.945
 5072TIP3    H239412   2.210   7.300   9.851
 5073TIP3   OH239413   2.373   7.197   9.800
 5073TIP3    H139414   2.352   7.105   9.817
 5073TIP3    H239415   2.435   7.219   9.870
 5074TIP3   OH239416   2.541   7.200   0.014
 5074TIP3    H139417   2.566   7.119   0.059
 5074TIP3    H239418   2.586   7.269   0.062
 5075TIP3   OH239419   2.881   5.886   9.862
 5075TIP3    H139420   2.826   5.808   9.869
 5075TIP3    H239421   2.958   5.857   9.812
 5076TIP3   OH239422   3.494   5.694   9.776
 5076TIP3    H139423   3.559   5.740   9.724
 5076TIP3    H239424   3.435   5.763   9.807
 5077TIP3   OH239425   3.657   5.838   9.595
 5077TIP3    H139426   3.712   5.766   9.563
 5077TIP3    H239427   3.719   5.901   9.632
 5078TIP3   OH239428   2.170   5.705   9.541
 5078TIP3    H139429   2.076   5.689   9.527
 5078TIP3    H239430   2.209   5.617   9.537
 5079TIP3   OH239431   2.030   5.722   9.161
 5079TIP3    H139432   2.099   5.771   9.117
 5079TIP3    H239433   1.992   5.784   9.224
 5080TIP3   OH239434   2.683   5.640   9.612
 5080TIP3    H139435   2.746   5.685   9.557
 5080TIP3    H239436   2.721   5.643   9.700
 5081TIP3   OH239437   3.076   5.744   9.736
 5081TIP3    H139438   3.158   5.744   9.687
 5081TIP3    H239439   3.063   5.652   9.761
 5082TIP3   OH239440   3.321   5.755   9.325
 5082TIP3    H139441   3.241   5.803   9.347
 5082TIP3    H239442   3.297   5.663   9.336
 5083TIP3   OH239443   1.993   7.228   9.204
 5083TIP3    H139444   1.916   7.253   9.153
 5083TIP3    H239445   2.055   7.300   9.190
 5084TIP3   OH239446   2.233   5.866   9.040
 5084TIP3    H139447   2.277   5.815   8.971
 5084TIP3    H239448   2.302   5.886   9.103
 5085TIP3   OH239449   2.726   5.927   9.205
 5085TIP3    H139450   2.744   5.845   9.252
 5085TIP3    H239451   2.752   5.996   9.266
 5086TIP3   OH239452   2.939   7.452   9.012
 5086TIP3    H139453   3.035   7.450   9.018
 5086TIP3    H239454   2.916   7.369   8.971
 5087TIP3   OH239455   3.559   7.355   9.368
 5087TIP3    H139456   3.564   7.267   9.333
 5087TIP3    H239457   3.529   7.409   9.295
 5088TIP3   OH239458   2.174   7.382   8.928
 5088TIP3    H139459   2.152   7.420   9.013
 5088TIP3    H239460   2.264   7.352   8.937
 5089TIP3   OH239461   4.994   6.544   9.544
 5089TIP3    H139462   4.949   6.571   9.624
 5089TIP3    H239463   4.933   6.566   9.474
 5090TIP3   OH239464   4.882   6.567   9.804
 5090TIP3    H139465   4.889   6.527   9.891
 5090TIP3    H239466   4.814   6.634   9.813
 5091TIP3   OH239467   5.262   6.861   9.778
 5091TIP3    H139468   5.226   6.775   9.799
 5091TIP3    H239469   5.297   6.893   9.862
 5092TIP3   OH239470   4.216   6.960   9.847
 5092TIP3    H139471   4.188   6.878   9.805
 5092TIP3    H239472   4.311   6.958   9.842
 5093TIP3   OH239473   3.886   6.351   9.343
 5093TIP3    H139474   3.851   6.429   9.387
 5093TIP3    H239475   3.834   6.342   9.264
 5094TIP3   OH239476   3.947   6.574   9.705
 5094TIP3    H139477   3.978   6.484   9.714
 5094TIP3    H239478   4.026   6.627   9.708
 5095TIP3   OH239479   4.923   7.356   9.778
 5095TIP3    H139480   4.981   7.284   9.756
 5095TIP3    H239481   4.878   7.327   9.857
 5096TIP3   OH239482   4.813   6.991   9.982
 5096TIP3    H139483   4.764   6.917   9.944
 5096TIP3    H239484   4.863   6.952  10.054
 5097TIP3   OH239485   5.017   6.250   9.922
 5097TIP3    H139486   5.026   6.156   9.938
 5097TIP3    H239487   4.996   6.257   9.829
 5098TIP3   OH239488   4.413   6.002   9.709
 5098TIP3    H139489   4.378   6.062   9.644
 5098TIP3    H239490   4.406   5.915   9.668
 5099TIP3   OH239491   5.123   6.107   9.490
 5099TIP3    H139492   5.152   6.074   9.576
 5099TIP3    H239493   5.203   6.141   9.450
 5100TIP3   OH239494   4.011   6.307   9.752
 5100TIP3    H139495   4.090   6.269   9.790
 5100TIP3    H239496   4.002   6.264   9.667
 5101TIP3   OH239497   4.442   6.406   9.653
 5101TIP3    H139498   4.536   6.388   9.658
 5101TIP3    H239499   4.405   6.327   9.614
 5102TIP3   OH239500   4.965   6.934   9.411
 5102TIP3    H139501   4.934   6.914   9.322
 5102TIP3    H239502   4.907   7.005   9.441
 5103TIP3   OH239503   5.203   6.047   9.743
 5103TIP3    H139504   5.155   6.010   9.817
 5103TIP3    H239505   5.278   6.091   9.783
 5104TIP3   OH239506   4.234   6.175   9.858
 5104TIP3    H139507   4.279   6.257   9.881
 5104TIP3    H239508   4.303   6.119   9.823
 5105TIP3   OH239509   3.919   6.944   9.295
 5105TIP3    H139510   3.908   7.021   9.239
 5105TIP3    H239511   3.945   6.980   9.380
 5106TIP3   OH239512   5.360   6.928   0.035
 5106TIP3    H139513   5.287   6.943   0.094
 5106TIP3    H239514   5.428   6.989   0.063
 5107TIP3   OH239515   4.602   5.674   9.838
 5107TIP3    H139516   4.587   5.581   9.851
 5107TIP3    H239517   4.535   5.717   9.893
 5108TIP3   OH239518   5.096   7.243   9.546
 5108TIP3    H139519   5.131   7.154   9.549
 5108TIP3    H239520   5.171   7.299   9.566
 5109TIP3   OH239521   5.202   6.993   9.545
 5109TIP3    H139522   5.126   6.947   9.507
 5109TIP3    H239523   5.223   6.944   9.624
 5110TIP3   OH239524   4.852   6.576   9.310
 5110TIP3    H139525   4.777   6.632   9.290
 5110TIP3    H239526   4.915   6.597   9.242
 5111TIP3   OH239527   4.890   6.476   8.947
 5111TIP3    H139528   4.945   6.507   9.019
 5111TIP3    H239529   4.935   6.398   8.915
 5112TIP3   OH239530   5.215   6.603   9.376
 5112TIP3    H139531   5.144   6.594   9.440
 5112TIP3    H239532   5.289   6.557   9.416
 5113TIP3   OH239533   4.350   6.638   9.531
 5113TIP3    H139534   4.319   6.602   9.449
 5113TIP3    H239535   4.395   6.565   9.574
 5114TIP3   OH239536   4.480   6.977   9.784
 5114TIP3    H139537   4.507   6.993   9.694
 5114TIP3    H239538   4.536   6.905   9.814
 5115TIP3   OH239539   4.348   6.420   9.912
 5115TIP3    H139540   4.390   6.419   9.826
 5115TIP3    H239541   4.352   6.512   9.939
 5116TIP3   OH239542   5.083   6.558   9.135
 5116TIP3    H139543   5.134   6.587   9.211
 5116TIP3    H239544   5.138   6.582   9.059
 5117TIP3   OH239545   4.833   7.176   9.483
 5117TIP3    H139546   4.919   7.206   9.514
 5117TIP3    H239547   4.770   7.219   9.541
 5118TIP3   OH239548   5.399   5.708   9.139
 5118TIP3    H139549   5.329   5.739   9.195
 5118TIP3    H239550   5.429   5.787   9.093
 5119TIP3   OH239551   4.241   6.542   9.292
 5119TIP3    H139552   4.183   6.612   9.262
 5119TIP3    H239553   4.187   6.463   9.291
 5120TIP3   OH239554   5.632   7.156   8.911
 5120TIP3    H139555   5.625   7.240   8.958
 5120TIP3    H239556   5.720   7.125   8.930
 5121TIP3   OH239557   3.978   7.092   9.891
 5121TIP3    H139558   4.059   7.044   9.874
 5121TIP3    H239559   4.005   7.183   9.895
 5122TIP3   OH239560   4.772   7.439   9.289
 5122TIP3    H139561   4.778   7.459   9.196
 5122TIP3    H239562   4.698   7.492   9.319
 5123TIP3   OH239563   4.171   7.321   9.508
 5123TIP3    H139564   4.216   7.298   9.590
 5123TIP3    H239565   4.108   7.251   9.494
 5124TIP3   OH239566   5.118   7.411   9.043
 5124TIP3    H139567   5.155   7.330   9.009
 5124TIP3    H239568   5.088   7.389   9.132
 5125TIP3   OH239569   5.033   7.360   9.297
 5125TIP3    H139570   4.939   7.378   9.303
 5125TIP3    H239571   5.050   7.299   9.370
 5126TIP3   OH239572   4.382   5.785   9.985
 5126TIP3    H139573   4.319   5.785   9.913
 5126TIP3    H239574   4.394   5.878  10.006
 5127TIP3   OH239575   5.229   6.604   8.905
 5127TIP3    H139576   5.199   6.614   8.815
 5127TIP3    H239577   5.319   6.636   8.904
 5128TIP3   OH239578   4.708   6.031   9.008
 5128TIP3    H139579   4.663   6.022   9.092
 5128TIP3    H239580   4.686   5.951   8.960
 5129TIP3   OH239581   4.298   6.191   9.545
 5129TIP3    H139582   4.203   6.181   9.542
 5129TIP3    H239583   4.325   6.198   9.453
 5130TIP3   OH239584   4.847   6.304   9.354
 5130TIP3    H139585   4.836   6.399   9.346
 5130TIP3    H239586   4.932   6.287   9.313
 5131TIP3   OH239587   4.982   6.285   9.648
 5131TIP3    H139588   4.984   6.368   9.600
 5131TIP3    H239589   5.007   6.219   9.583
 5132TIP3   OH239590   4.399   6.020   8.906
 5132TIP3    H139591   4.376   6.013   8.999
 5132TIP3    H239592   4.356   6.100   8.877
 5133TIP3   OH239593   3.848   6.013   9.672
 5133TIP3    H139594   3.902   6.002   9.750
 5133TIP3    H239595   3.901   6.068   9.614
 5134TIP3   OH239596   3.758   6.117   9.120
 5134TIP3    H139597   3.834   6.154   9.076
 5134TIP3    H239598   3.693   6.187   9.117
 5135TIP3   OH239599   4.693   5.998   9.649
 5135TIP3    H139600   4.609   6.007   9.695
 5135TIP3    H239601   4.752   5.961   9.715
 5136TIP3   OH239602   4.013   6.172   9.510
 5136TIP3    H139603   3.972   6.228   9.444
 5136TIP3    H239604   4.045   6.096   9.461
 5137TIP3   OH239605   4.387   6.218   9.288
 5137TIP3    H139606   4.476   6.215   9.322
 5137TIP3    H239607   4.395   6.261   9.203
 5138TIP3   OH239608   5.039   5.974   9.972
 5138TIP3    H139609   5.004   5.983  10.060
 5138TIP3    H239610   4.974   5.922   9.925
 5139TIP3   OH239611   4.396   6.309   9.029
 5139TIP3    H139612   4.337   6.299   8.954
 5139TIP3    H239613   4.477   6.342   8.991
 5140TIP3   OH239614   4.711   6.364   9.686
 5140TIP3    H139615   4.789   6.310   9.671
 5140TIP3    H239616   4.744   6.442   9.731
 5141TIP3   OH239617   4.138   5.956   9.402
 5141TIP3    H139618   4.114   5.872   9.441
 5141TIP3    H239619   4.189   5.932   9.324
 5142TIP3   OH239620   4.637   6.734   9.240
 5142TIP3    H139621   4.571   6.694   9.183
 5142TIP3    H239622   4.586   6.779   9.308
 5143TIP3   OH239623   4.969   6.062   9.099
 5143TIP3    H139624   4.878   6.074   9.073
 5143TIP3    H239625   4.996   6.148   9.132
 5144TIP3   OH239626   5.086   6.287   9.213
 5144TIP3    H139627   5.170   6.266   9.254
 5144TIP3    H239628   5.095   6.378   9.183
 5145TIP3   OH239629   4.189   6.703   9.746
 5145TIP3    H139630   4.245   6.687   9.671
 5145TIP3    H239631   4.245   6.687   9.822
 5146TIP3   OH239632   4.831   6.908   9.160
 5146TIP3    H139633   4.790   6.994   9.171
 5146TIP3    H239634   4.762   6.846   9.183
 5147TIP3   OH239635   5.485   6.315   9.150
 5147TIP3    H139636   5.418   6.312   9.081
 5147TIP3    H239637   5.526   6.401   9.140
 5148TIP3   OH239638   5.363   7.087   9.342
 5148TIP3    H139639   5.312   7.066   9.420
 5148TIP3    H239640   5.362   7.006   9.290
 5149TIP3   OH239641   5.156   6.609   9.829
 5149TIP3    H139642   5.061   6.607   9.813
 5149TIP3    H239643   5.191   6.537   9.776
 5150TIP3   OH239644   4.449   7.109   9.533
 5150TIP3    H139645   4.459   7.176   9.465
 5150TIP3    H239646   4.401   7.153   9.603
 5151TIP3   OH239647   3.986   6.533   9.032
 5151TIP3    H139648   4.027   6.604   9.080
 5151TIP3    H239649   3.892   6.542   9.049
 5152TIP3   OH239650   4.460   6.864   9.405
 5152TIP3    H139651   4.455   6.944   9.458
 5152TIP3    H239652   4.421   6.796   9.460
 5153TIP3   OH239653   4.417   7.346   9.381
 5153TIP3    H139654   4.322   7.342   9.393
 5153TIP3    H239655   4.449   7.393   9.459
 5154TIP3   OH239656   5.258   6.935   9.014
 5154TIP3    H139657   5.284   6.896   9.098
 5154TIP3    H239658   5.171   6.898   8.996
 5155TIP3   OH239659   5.605   7.413   9.007
 5155TIP3    H139660   5.607   7.470   8.929
 5155TIP3    H239661   5.525   7.437   9.052
 5156TIP3   OH239662   5.342   6.819   9.247
 5156TIP3    H139663   5.290   6.757   9.299
 5156TIP3    H239664   5.433   6.795   9.265
 5157TIP3   OH239665   4.601   7.016   8.918
 5157TIP3    H139666   4.601   6.929   8.877
 5157TIP3    H239667   4.548   7.005   8.997
 5158TIP3   OH239668   4.469   7.001   9.163
 5158TIP3    H139669   4.456   6.947   9.241
 5158TIP3    H239670   4.540   7.061   9.188
 5159TIP3   OH239671   4.079   6.744   9.187
 5159TIP3    H139672   4.018   6.800   9.235
 5159TIP3    H239673   4.137   6.805   9.141
 5160TIP3   OH239674   4.982   5.928   9.339
 5160TIP3    H139675   4.978   5.969   9.253
 5160TIP3    H239676   5.021   5.995   9.396
 5161TIP3   OH239677   4.700   7.142   9.232
 5161TIP3    H139678   4.665   7.224   9.196
 5161TIP3    H239679   4.744   7.168   9.313
 5162TIP3   OH239680   4.629   6.158   9.421
 5162TIP3    H139681   4.704   6.214   9.401
 5162TIP3    H239682   4.649   6.121   9.507
 5163TIP3   OH239683   4.751   5.825   9.442
 5163TIP3    H139684   4.737   5.887   9.512
 5163TIP3    H239685   4.835   5.850   9.404
 5164TIP3   OH239686   4.518   7.337   9.124
 5164TIP3    H139687   4.534   7.429   9.101
 5164TIP3    H239688   4.477   7.342   9.211
 5165TIP3   OH239689   4.321   5.976   9.173
 5165TIP3    H139690   4.320   6.062   9.215
 5165TIP3    H239691   4.407   5.940   9.195
 5166TIP3   OH239692   5.245   6.376   9.712
 5166TIP3    H139693   5.161   6.331   9.703
 5166TIP3    H239694   5.296   6.322   9.771
 5167TIP3   OH239695   4.220   6.939   9.052
 5167TIP3    H139696   4.291   6.989   9.093
 5167TIP3    H239697   4.263   6.885   8.987
 5168TIP3   OH239698   3.947   6.260   8.987
 5168TIP3    H139699   3.971   6.346   9.022
 5168TIP3    H239700   3.971   6.264   8.895
 5169TIP3   OH239701   5.352   7.325   9.940
 5169TIP3    H139702   5.328   7.408   9.899
 5169TIP3    H239703   5.436   7.341   9.982
 5170TIP3   OH239704   4.174   5.763   9.788
 5170TIP3    H139705   4.155   5.767   9.694
 5170TIP3    H239706   4.137   5.679   9.816
 5171TIP3   OH239707   3.961   7.143   9.489
 5171TIP3    H139708   3.909   7.183   9.559
 5171TIP3    H239709   3.927   7.182   9.409
 5172TIP3   OH239710   4.779   7.223   8.898
 5172TIP3    H139711   4.711   7.157   8.917
 5172TIP3    H239712   4.857   7.171   8.879
 5173TIP3   OH239713   5.238   7.197   8.933
 5173TIP3    H139714   5.263   7.113   8.971
 5173TIP3    H239715   5.296   7.207   8.857
 5174TIP3   OH239716   4.343   6.755   8.894
 5174TIP3    H139717   4.367   6.702   8.969
 5174TIP3    H239718   4.425   6.767   8.846
 5175TIP3   OH239719   5.001   6.854   8.952
 5175TIP3    H139720   4.940   6.864   9.025
 5175TIP3    H239721   4.960   6.791   8.894
 5176TIP3   OH239722   4.438   6.605   9.101
 5176TIP3    H139723   4.379   6.566   9.166
 5176TIP3    H239724   4.481   6.530   9.061
 5177TIP3   OH239725   4.610   6.445   8.931
 5177TIP3    H139726   4.608   6.474   8.840
 5177TIP3    H239727   4.703   6.452   8.956
 5178TIP3   OH239728   5.501   6.677   8.860
 5178TIP3    H139729   5.485   6.649   8.770
 5178TIP3    H239730   5.492   6.772   8.858
 5179TIP3   OH239731   4.603   7.596   9.063
 5179TIP3    H139732   4.688   7.563   9.034
 5179TIP3    H239733   4.600   7.686   9.029
 5180TIP3   OH239734   3.978   7.025   8.953
 5180TIP3    H139735   4.060   7.011   8.999
 5180TIP3    H239736   3.954   6.939   8.919
 5181TIP3   OH239737   3.789   7.439   9.493
 5181TIP3    H139738   3.708   7.416   9.448
 5181TIP3    H239739   3.790   7.383   9.571
 5182TIP3   OH239740   3.839   7.271   9.706
 5182TIP3    H139741   3.815   7.197   9.762
 5182TIP3    H239742   3.907   7.317   9.755
 5183TIP3   OH239743   5.602   6.745   9.296
 5183TIP3    H139744   5.663   6.818   9.308
 5183TIP3    H239745   5.630   6.681   9.362
 5184TIP3   OH239746   5.670   6.540   9.471
 5184TIP3    H139747   5.582   6.508   9.494
 5184TIP3    H239748   5.713   6.553   9.555
 5185TIP3   OH239749   5.722   6.846  10.007
 5185TIP3    H139750   5.691   6.769   9.959
 5185TIP3    H239751   5.751   6.907   9.940
 5186TIP3   OH239752   5.589   6.562   9.093
 5186TIP3    H139753   5.553   6.602   9.015
 5186TIP3    H239754   5.585   6.631   9.160
 5187TIP3   OH239755   5.310   6.306   8.939
 5187TIP3    H139756   5.335   6.370   8.873
 5187TIP3    H239757   5.328   6.221   8.898
 5188TIP3   OH239758   5.408   6.438   9.501
 5188TIP3    H139759   5.396   6.355   9.455
 5188TIP3    H239760   5.358   6.428   9.582
 5189TIP3   OH239761   3.815   6.677   9.924
 5189TIP3    H139762   3.860   6.658   9.842
 5189TIP3    H239763   3.869   6.636   9.991
 5190TIP3   OH239764   5.333   6.065   8.811
 5190TIP3    H139765   5.388   6.011   8.867
 5190TIP3    H239766   5.246   6.024   8.815
 5191TIP3   OH239767   5.352   6.199   9.360
 5191TIP3    H139768   5.388   6.113   9.380
 5191TIP3    H239769   5.405   6.231   9.287
 5192TIP3   OH239770   5.395   6.213   9.869
 5192TIP3    H139771   5.488   6.233   9.880
 5192TIP3    H239772   5.371   6.165   9.948
 5193TIP3   OH239773   5.423   5.938   9.430
 5193TIP3    H139774   5.444   5.909   9.519
 5193TIP3    H239775   5.352   5.881   9.401
 5194TIP3   OH239776   4.035   5.985   9.878
 5194TIP3    H139777   4.082   5.905   9.854
 5194TIP3    H239778   4.103   6.052   9.882
 5195TIP3   OH239779   3.759   6.370   9.863
 5195TIP3    H139780   3.839   6.340   9.820
 5195TIP3    H239781   3.767   6.466   9.865
 5196TIP3   OH239782   5.491   5.926   8.990
 5196TIP3    H139783   5.550   5.876   8.933
 5196TIP3    H239784   5.548   5.982   9.042
 5197TIP3   OH239785   3.816   5.932   9.315
 5197TIP3    H139786   3.760   5.949   9.391
 5197TIP3    H239787   3.797   6.005   9.255
 5198TIP3   OH239788   5.321   7.402   9.582
 5198TIP3    H139789   5.409   7.371   9.560
 5198TIP3    H239790   5.332   7.448   9.665
 5199TIP3   OH239791   4.065   7.355   9.854
 5199TIP3    H139792   4.100   7.389   9.937
 5199TIP3    H239793   4.142   7.324   9.806
 5200TIP3   OH239794   4.282   7.221   9.746
 5200TIP3    H139795   4.260   7.133   9.776
 5200TIP3    H239796   4.359   7.246   9.798
 5201TIP3   OH239797   4.509   7.222   9.905
 5201TIP3    H139798   4.504   7.129   9.879
 5201TIP3    H239799   4.596   7.231   9.945
 5202TIP3   OH239800   4.852   5.829   9.813
 5202TIP3    H139801   4.782   5.766   9.832
 5202TIP3    H239802   4.923   5.775   9.778
 5203TIP3   OH239803   5.350   5.663   9.828
 5203TIP3    H139804   5.403   5.732   9.788
 5203TIP3    H239805   5.261   5.699   9.829
 5204TIP3   OH239806   5.512   5.835   9.676
 5204TIP3    H139807   5.580   5.777   9.642
 5204TIP3    H239808   5.559   5.901   9.727
 5205TIP3   OH239809   4.073   5.714   9.526
 5205TIP3    H139810   3.980   5.698   9.508
 5205TIP3    H239811   4.114   5.628   9.518
 5206TIP3   OH239812   3.975   5.750   9.186
 5206TIP3    H139813   4.018   5.806   9.120
 5206TIP3    H239814   3.923   5.811   9.238
 5207TIP3   OH239815   4.522   5.732   9.580
 5207TIP3    H139816   4.599   5.758   9.529
 5207TIP3    H239817   4.557   5.714   9.668
 5208TIP3   OH239818   5.063   5.664   9.727
 5208TIP3    H139819   5.125   5.636   9.659
 5208TIP3    H239820   5.017   5.584   9.752
 5209TIP3   OH239821   5.216   5.781   9.331
 5209TIP3    H139822   5.135   5.832   9.337
 5209TIP3    H239823   5.187   5.690   9.336
 5210TIP3   OH239824   3.878   7.227   9.243
 5210TIP3    H139825   3.784   7.240   9.230
 5210TIP3    H239826   3.918   7.305   9.204
 5211TIP3   OH239827   4.129   5.887   8.993
 5211TIP3    H139828   4.178   5.823   8.942
 5211TIP3    H239829   4.192   5.917   9.059
 5212TIP3   OH239830   4.587   5.953   9.245
 5212TIP3    H139831   4.629   5.878   9.287
 5212TIP3    H239832   4.598   6.025   9.307
 5213TIP3   OH239833   4.837   7.462   9.017
 5213TIP3    H139834   4.933   7.463   9.013
 5213TIP3    H239835   4.812   7.379   8.978
 5214TIP3   OH239836   5.502   7.322   9.320
 5214TIP3    H139837   5.451   7.241   9.326
 5214TIP3    H239838   5.452   7.377   9.260
 5215TIP3   OH239839   4.096   7.377   8.888
 5215TIP3    H139840   4.056   7.402   8.971
 5215TIP3    H239841   4.171   7.322   8.912
 5216TIP3   OH239842   6.875   6.695   9.494
 5216TIP3    H139843   6.856   6.789   9.484
 5216TIP3    H239844   6.805   6.651   9.445
 5217TIP3   OH239845   6.709   6.636   9.892
 5217TIP3    H139846   6.725   6.582   9.970
 5217TIP3    H239847   6.661   6.579   9.832
 5218TIP3   OH239848   7.228   6.816   9.760
 5218TIP3    H139849   7.139   6.779   9.763
 5218TIP3    H239850   7.225   6.891   9.819
 5219TIP3   OH239851   6.111   6.938   9.853
 5219TIP3    H139852   6.082   6.857   9.812
 5219TIP3    H239853   6.207   6.930   9.858
 5220TIP3   OH239854   5.850   6.375   9.334
 5220TIP3    H139855   5.785   6.432   9.374
 5220TIP3    H239856   5.808   6.340   9.255
 5221TIP3   OH239857   5.841   6.560   9.701
 5221TIP3    H139858   5.875   6.471   9.712
 5221TIP3    H239859   5.919   6.616   9.706
 5222TIP3   OH239860   6.807   7.306   9.780
 5222TIP3    H139861   6.886   7.252   9.771
 5222TIP3    H239862   6.771   7.281   9.865
 5223TIP3   OH239863   6.628   6.889   9.970
 5223TIP3    H139864   6.655   6.804   9.936
 5223TIP3    H239865   6.695   6.912  10.034
 5224TIP3   OH239866   6.812   6.254   9.916
 5224TIP3    H139867   6.842   6.168   9.946
 5224TIP3    H239868   6.830   6.255   9.823
 5225TIP3   OH239869   6.279   6.047   9.659
 5225TIP3    H139870   6.292   6.121   9.600
 5225TIP3    H239871   6.213   5.993   9.614
 5226TIP3   OH239872   7.012   6.131   9.524
 5226TIP3    H139873   7.054   6.078   9.592
 5226TIP3    H239874   7.085   6.170   9.475
 5227TIP3   OH239875   5.913   6.299   9.755
 5227TIP3    H139876   5.974   6.252   9.812
 5227TIP3    H239877   5.936   6.272   9.666
 5228TIP3   OH239878   6.355   6.455   9.658
 5228TIP3    H139879   6.445   6.441   9.688
 5228TIP3    H239880   6.340   6.384   9.595
 5229TIP3   OH239881   6.818   6.949   9.409
 5229TIP3    H139882   6.790   6.941   9.317
 5229TIP3    H239883   6.808   7.042   9.429
 5230TIP3   OH239884   7.106   5.963   9.717
 5230TIP3    H139885   7.044   5.891   9.732
 5230TIP3    H239886   7.191   5.919   9.704
 5231TIP3   OH239887   6.137   6.160   9.871
 5231TIP3    H139888   6.173   6.248   9.878
 5231TIP3    H239889   6.188   6.119   9.800
 5232TIP3   OH239890   5.793   6.945   9.321
 5232TIP3    H139891   5.777   7.025   9.271
 5232TIP3    H239892   5.823   6.976   9.407
 5233TIP3   OH239893   7.251   7.013   9.955
 5233TIP3    H139894   7.187   7.003  10.025
 5233TIP3    H239895   7.249   7.106   9.933
 5234TIP3   OH239896   6.468   5.656   9.861
 5234TIP3    H139897   6.452   5.562   9.874
 5234TIP3    H239898   6.396   5.699   9.908
 5235TIP3   OH239899   7.041   7.192   9.642
 5235TIP3    H139900   7.098   7.119   9.620
 5235TIP3    H239901   7.086   7.269   9.608
 5236TIP3   OH239902   7.225   7.005   9.554
 5236TIP3    H139903   7.239   6.970   9.466
 5236TIP3    H239904   7.237   6.930   9.612
 5237TIP3   OH239905   6.708   6.589   9.296
 5237TIP3    H139906   6.635   6.647   9.273
 5237TIP3    H239907   6.774   6.605   9.229
 5238TIP3   OH239908   6.759   6.499   8.952
 5238TIP3    H139909   6.818   6.520   9.025
 5238TIP3    H239910   6.808   6.437   8.899
 5239TIP3   OH239911   7.108   6.667   9.355
 5239TIP3    H139912   7.031   6.683   9.410
 5239TIP3    H239913   7.159   6.603   9.404
 5240TIP3   OH239914   6.234   6.657   9.509
 5240TIP3    H139915   6.187   6.612   9.440
 5240TIP3    H239916   6.286   6.589   9.552
 5241TIP3   OH239917   6.386   6.912   9.840
 5241TIP3    H139918   6.399   6.963   9.761
 5241TIP3    H239919   6.470   6.915   9.886
 5242TIP3   OH239920   6.225   6.418   9.899
 5242TIP3    H139921   6.265   6.422   9.812
 5242TIP3    H239922   6.236   6.505   9.935
 5243TIP3   OH239923   6.959   6.564   9.141
 5243TIP3    H139924   7.010   6.609   9.208
 5243TIP3    H239925   7.013   6.571   9.062
 5244TIP3   OH239926   6.815   7.222   9.492
 5244TIP3    H139927   6.895   7.204   9.540
 5244TIP3    H239928   6.753   7.251   9.558
 5245TIP3   OH239929   7.352   5.669   9.175
 5245TIP3    H139930   7.269   5.699   9.212
 5245TIP3    H239931   7.391   5.747   9.137
 5246TIP3   OH239932   6.083   6.537   9.308
 5246TIP3    H139933   6.037   6.612   9.271
 5246TIP3    H239934   6.016   6.469   9.318
 5247TIP3   OH239935   7.586   7.101   9.054
 5247TIP3    H139936   7.573   7.195   9.042
 5247TIP3    H239937   7.668   7.082   9.010
 5248TIP3   OH239938   5.842   7.024   9.843
 5248TIP3    H139939   5.933   6.994   9.834
 5248TIP3    H239940   5.849   7.119   9.850
 5249TIP3   OH239941   6.696   7.585   9.353
 5249TIP3    H139942   6.630   7.581   9.285
 5249TIP3    H239943   6.681   7.669   9.397
 5250TIP3   OH239944   6.063   7.307   9.545
 5250TIP3    H139945   6.096   7.279   9.631
 5250TIP3    H239946   5.992   7.246   9.526
 5251TIP3   OH239947   6.967   7.401   9.006
 5251TIP3    H139948   7.026   7.327   8.991
 5251TIP3    H239949   6.937   7.389   9.096
 5252TIP3   OH239950   6.856   7.379   9.267
 5252TIP3    H139951   6.799   7.452   9.290
 5252TIP3    H239952   6.848   7.318   9.340
 5253TIP3   OH239953   6.261   5.762   0.016
 5253TIP3    H139954   6.188   5.755  -0.045
 5253TIP3    H239955   6.273   5.856   0.029
 5254TIP3   OH239956   7.108   6.567   8.912
 5254TIP3    H139957   7.077   6.586   8.823
 5254TIP3    H239958   7.202   6.584   8.908
 5255TIP3   OH239959   6.697   5.985   8.977
 5255TIP3    H139960   6.622   5.994   9.036
 5255TIP3    H239961   6.671   5.917   8.915
 5256TIP3   OH239962   6.271   6.261   9.487
 5256TIP3    H139963   6.176   6.264   9.495
 5256TIP3    H239964   6.287   6.228   9.399
 5257TIP3   OH239965   6.722   6.325   9.376
 5257TIP3    H139966   6.698   6.414   9.353
 5257TIP3    H239967   6.798   6.305   9.322
 5258TIP3   OH239968   6.817   6.288   9.629
 5258TIP3    H139969   6.772   6.310   9.547
 5258TIP3    H239970   6.881   6.222   9.604
 5259TIP3   OH239971   6.400   6.006   8.903
 5259TIP3    H139972   6.403   6.004   8.999
 5259TIP3    H239973   6.315   6.043   8.883
 5260TIP3   OH239974   5.657   6.016   9.822
 5260TIP3    H139975   5.748   5.996   9.847
 5260TIP3    H239976   5.649   6.111   9.834
 5261TIP3   OH239977   5.655   6.101   9.128
 5261TIP3    H139978   5.737   6.139   9.096
 5261TIP3    H239979   5.596   6.176   9.139
 5262TIP3   OH239980   6.560   5.984   9.659
 5262TIP3    H139981   6.465   5.994   9.673
 5262TIP3    H239982   6.593   5.952   9.743
 5263TIP3   OH239983   6.000   6.222   9.510
 5263TIP3    H139984   5.946   6.258   9.439
 5263TIP3    H239985   6.005   6.128   9.492
 5264TIP3   OH239986   6.287   6.148   9.239
 5264TIP3    H139987   6.369   6.104   9.216
 5264TIP3    H239988   6.269   6.205   9.164
 5265TIP3   OH239989   6.870   5.998   0.007
 5265TIP3    H139990   6.842   6.012   0.097
 5265TIP3    H239991   6.802   5.942  -0.031
 5266TIP3   OH239992   6.268   6.288   9.009
 5266TIP3    H139993   6.229   6.249   8.930
 5266TIP3    H239994   6.344   6.337   8.976
 5267TIP3   OH239995   6.604   6.402   9.770
 5267TIP3    H139996   6.673   6.369   9.712
 5267TIP3    H239997   6.614   6.350   9.850
 5268TIP3   OH239998   6.069   5.952   9.492
 5268TIP3    H139999   6.024   5.874   9.525
 5268TIP3    H240000   6.086   5.931   9.400
 5269TIP3   OH240001   6.499   6.760   9.227
 5269TIP3    H140002   6.432   6.705   9.187
 5269TIP3    H240003   6.453   6.811   9.293
 5270TIP3   OH240004   6.914   6.044   9.125
 5270TIP3    H140005   6.832   6.037   9.077
 5270TIP3    H240006   6.921   6.137   9.148
 5271TIP3   OH240007   6.956   6.299   9.228
 5271TIP3    H140008   7.042   6.282   9.267
 5271TIP3    H240009   6.962   6.388   9.194
 5272TIP3   OH240010   6.085   6.690   9.740
 5272TIP3    H140011   6.134   6.684   9.658
 5272TIP3    H240012   6.148   6.665   9.807
 5273TIP3   OH240013   6.721   6.904   9.146
 5273TIP3    H140014   6.698   6.997   9.144
 5273TIP3    H240015   6.638   6.859   9.166
 5274TIP3   OH240016   7.401   6.332   9.164
 5274TIP3    H140017   7.364   6.301   9.081
 5274TIP3    H240018   7.457   6.406   9.140
 5275TIP3   OH240019   7.420   7.131   9.282
 5275TIP3    H140020   7.364   7.054   9.289
 5275TIP3    H240021   7.476   7.113   9.206
 5276TIP3   OH240022   6.982   6.691   9.804
 5276TIP3    H140023   6.886   6.697   9.803
 5276TIP3    H240024   7.002   6.611   9.755
 5277TIP3   OH240025   6.351   7.086   9.618
 5277TIP3    H140026   6.376   7.155   9.557
 5277TIP3    H240027   6.282   7.125   9.671
 5278TIP3   OH240028   5.856   6.527   9.046
 5278TIP3    H140029   5.898   6.602   9.088
 5278TIP3    H240030   5.763   6.538   9.065
 5279TIP3   OH240031   6.344   6.896   9.412
 5279TIP3    H140032   6.350   6.955   9.488
 5279TIP3    H240033   6.300   6.818   9.446
 5280TIP3   OH240034   6.330   7.323   9.472
 5280TIP3    H140035   6.234   7.322   9.469
 5280TIP3    H240036   6.352   7.381   9.544
 5281TIP3   OH240037   7.164   6.947   9.047
 5281TIP3    H140038   7.181   6.925   9.139
 5281TIP3    H240039   7.082   6.901   9.026
 5282TIP3   OH240040   7.543   7.380   9.043
 5282TIP3    H140041   7.561   7.431   8.964
 5282TIP3    H240042   7.462   7.419   9.079
 5283TIP3   OH240043   7.276   6.878   9.300
 5283TIP3    H140044   7.212   6.809   9.318
 5283TIP3    H240045   7.359   6.832   9.287
 5284TIP3   OH240046   6.449   7.025   8.925
 5284TIP3    H140047   6.446   6.936   8.890
 5284TIP3    H240048   6.414   7.016   9.014
 5285TIP3   OH240049   6.330   7.047   9.173
 5285TIP3    H140050   6.334   7.003   9.258
 5285TIP3    H240051   6.360   7.136   9.192
 5286TIP3   OH240052   5.945   6.749   9.192
 5286TIP3    H140053   5.885   6.804   9.244
 5286TIP3    H240054   6.001   6.811   9.147
 5287TIP3   OH240055   6.912   5.924   9.370
 5287TIP3    H140056   6.902   5.960   9.282
 5287TIP3    H240057   6.937   6.000   9.424
 5288TIP3   OH240058   6.677   7.172   9.169
 5288TIP3    H140059   6.591   7.213   9.181
 5288TIP3    H240060   6.740   7.242   9.183
 5289TIP3   OH240061   6.605   6.072   9.397
 5289TIP3    H140062   6.638   6.162   9.394
 5289TIP3    H240063   6.587   6.056   9.490
 5290TIP3   OH240064   6.726   5.799   9.529
 5290TIP3    H140065   6.671   5.870   9.564
 5290TIP3    H240066   6.782   5.842   9.465
 5291TIP3   OH240067   6.442   7.307   9.221
 5291TIP3    H140068   6.451   7.396   9.187
 5291TIP3    H240069   6.406   7.318   9.310
 5292TIP3   OH240070   6.143   5.909   9.228
 5292TIP3    H140071   6.192   5.992   9.229
 5292TIP3    H240072   6.209   5.843   9.207
 5293TIP3   OH240073   7.040   6.442   9.699
 5293TIP3    H140074   6.955   6.406   9.670
 5293TIP3    H240075   7.079   6.371   9.751
 5294TIP3   OH240076   6.094   6.941   9.062
 5294TIP3    H140077   6.166   6.992   9.100
 5294TIP3    H240078   6.136   6.878   9.004
 5295TIP3   OH240079   5.864   6.250   9.037
 5295TIP3    H140080   5.884   6.343   9.048
 5295TIP3    H240081   5.892   6.230   8.948
 5296TIP3   OH240082   7.230   7.289   9.942
 5296TIP3    H140083   7.212   7.364   9.885
 5296TIP3    H240084   7.308   7.316   9.991
 5297TIP3   OH240085   6.044   5.748   9.843
 5297TIP3    H140086   6.027   5.753   9.749
 5297TIP3    H240087   6.005   5.665   9.870
 5298TIP3   OH240088   5.839   7.152   9.514
 5298TIP3    H140089   5.770   7.174   9.576
 5298TIP3    H240090   5.806   7.184   9.430
 5299TIP3   OH240091   6.641   7.206   8.850
 5299TIP3    H140092   6.575   7.146   8.882
 5299TIP3    H240093   6.723   7.157   8.853
 5300TIP3   OH240094   7.125   7.191   8.930
 5300TIP3    H140095   7.149   7.111   8.978
 5300TIP3    H240096   7.192   7.198   8.861
 5301TIP3   OH240097   6.202   6.735   8.919
 5301TIP3    H140098   6.231   6.682   8.993
 5301TIP3    H240099   6.281   6.751   8.868
 5302TIP3   OH240100   6.914   6.845   8.964
 5302TIP3    H140101   6.848   6.856   9.033
 5302TIP3    H240102   6.870   6.792   8.897
 5303TIP3   OH240103   6.302   6.590   9.131
 5303TIP3    H140104   6.237   6.548   9.186
 5303TIP3    H240105   6.348   6.518   9.088
 5304TIP3   OH240106   6.481   6.454   8.952
 5304TIP3    H140107   6.472   6.481   8.861
 5304TIP3    H240108   6.574   6.464   8.972
 5305TIP3   OH240109   7.379   6.651   8.866
 5305TIP3    H140110   7.349   6.647   8.775
 5305TIP3    H240111   7.387   6.745   8.884
 5306TIP3   OH240112   6.524   7.575   9.137
 5306TIP3    H140113   6.582   7.532   9.074
 5306TIP3    H240114   6.501   7.658   9.095
 5307TIP3   OH240115   5.879   7.027   8.912
 5307TIP3    H140116   5.952   7.011   8.972
 5307TIP3    H240117   5.847   6.939   8.890
 5308TIP3   OH240118   5.676   7.441   9.497
 5308TIP3    H140119   5.617   7.408   9.430
 5308TIP3    H240120   5.664   7.381   9.571
 5309TIP3   OH240121   5.662   7.264   9.708
 5309TIP3    H140122   5.596   7.217   9.759
 5309TIP3    H240123   5.732   7.282   9.771
 5310TIP3   OH240124   7.515   6.739   9.282
 5310TIP3    H140125   7.593   6.795   9.289
 5310TIP3    H240126   7.520   6.683   9.360
 5311TIP3   OH240127   7.495   6.570   9.502
 5311TIP3    H140128   7.403   6.553   9.520
 5311TIP3    H240129   7.537   6.570   9.588
 5312TIP3   OH240130  -0.031   6.796   9.930
 5312TIP3    H140131   0.036   6.742   9.972
 5312TIP3    H240132   0.011   6.829   9.851
 5313TIP3   OH240133   7.544   6.560   9.072
 5313TIP3    H140134   7.484   6.584   9.001
 5313TIP3    H240135   7.528   6.625   9.140
 5314TIP3   OH240136   7.303   6.258   8.918
 5314TIP3    H140137   7.264   6.301   8.842
 5314TIP3    H240138   7.293   6.164   8.900
 5315TIP3   OH240139   7.235   6.472   9.507
 5315TIP3    H140140   7.228   6.387   9.464
 5315TIP3    H240141   7.172   6.468   9.579
 5316TIP3   OH240142   5.673   6.584   9.914
 5316TIP3    H140143   5.730   6.585   9.836
 5316TIP3    H240144   5.734   6.573   9.987
 5317TIP3   OH240145   7.266   5.991   8.862
 5317TIP3    H140146   7.293   5.936   8.937
 5317TIP3    H240147   7.172   5.977   8.855
 5318TIP3   OH240148   7.211   6.236   9.346
 5318TIP3    H140149   7.241   6.146   9.359
 5318TIP3    H240150   7.272   6.272   9.282
 5319TIP3   OH240151   7.146   6.221   9.815
 5319TIP3    H140152   7.238   6.221   9.843
 5319TIP3    H240153   7.126   6.128   9.799
 5320TIP3   OH240154   7.276   5.969   9.399
 5320TIP3    H140155   7.297   5.938   9.487
 5320TIP3    H240156   7.224   5.898   9.360
 5321TIP3   OH240157   5.918   5.990   9.897
 5321TIP3    H140158   5.955   5.902   9.888
 5321TIP3    H240159   5.994   6.048   9.896
 5322TIP3   OH240160   5.667   6.298   9.879
 5322TIP3    H140161   5.745   6.299   9.824
 5322TIP3    H240162   5.642   6.390   9.887
 5323TIP3   OH240163   7.470   5.881   9.036
 5323TIP3    H140164   7.502   5.819   8.970
 5323TIP3    H240165   7.504   5.966   9.009
 5324TIP3   OH240166   5.649   5.869   9.274
 5324TIP3    H140167   5.578   5.886   9.337
 5324TIP3    H240168   5.662   5.953   9.230
 5325TIP3   OH240169   7.178   7.406   9.533
 5325TIP3    H140170   7.265   7.397   9.496
 5325TIP3    H240171   7.193   7.447   9.619
 5326TIP3   OH240172   5.897   7.298   9.865
 5326TIP3    H140173   5.910   7.327   9.955
 5326TIP3    H240174   5.985   7.278   9.833
 5327TIP3   OH240175   6.150   7.202   9.790
 5327TIP3    H140176   6.128   7.111   9.811
 5327TIP3    H240177   6.222   7.223   9.850
 5328TIP3   OH240178   6.344   7.196  -0.012
 5328TIP3    H140179   6.339   7.120   0.044
 5328TIP3    H240180   6.327   7.270   0.046
 5329TIP3   OH240181   6.685   5.833   9.867
 5329TIP3    H140182   6.615   5.769   9.878
 5329TIP3    H240183   6.761   5.781   9.839
 5330TIP3   OH240184   7.196   5.634   9.765
 5330TIP3    H140185   7.256   5.705   9.742
 5330TIP3    H240186   7.109   5.674   9.764
 5331TIP3   OH240187   7.353   5.853   9.649
 5331TIP3    H140188   7.410   5.779   9.628
 5331TIP3    H240189   7.413   5.928   9.655
 5332TIP3   OH240190   5.957   5.718   9.580
 5332TIP3    H140191   5.863   5.706   9.567
 5332TIP3    H240192   5.994   5.632   9.560
 5333TIP3   OH240193   5.761   5.676   9.118
 5333TIP3    H140194   5.835   5.721   9.078
 5333TIP3    H240195   5.723   5.740   9.178
 5334TIP3   OH240196   6.484   5.652   9.584
 5334TIP3    H140197   6.563   5.702   9.565
 5334TIP3    H240198   6.476   5.655   9.679
 5335TIP3   OH240199   6.933   5.737   9.719
 5335TIP3    H140200   6.873   5.755   9.647
 5335TIP3    H240201   6.904   5.653   9.754
 5336TIP3   OH240202   7.122   5.759   9.301
 5336TIP3    H140203   7.046   5.815   9.319
 5336TIP3    H240204   7.088   5.670   9.312
 5337TIP3   OH240205   5.757   7.222   9.260
 5337TIP3    H140206   5.669   7.257   9.265
 5337TIP3    H240207   5.806   7.289   9.211
 5338TIP3   OH240208   5.986   5.816   9.015
 5338TIP3    H140209   6.048   5.744   9.004
 5338TIP3    H240210   6.018   5.864   9.091
 5339TIP3   OH240211   6.491   5.977   9.168
 5339TIP3    H140212   6.487   5.882   9.168
 5339TIP3    H240213   6.537   5.999   9.250
 5340TIP3   OH240214   6.694   7.448   8.969
 5340TIP3    H140215   6.790   7.446   8.968
 5340TIP3    H240216   6.668   7.364   8.931
 5341TIP3   OH240217   7.405   7.390   9.374
 5341TIP3    H140218   7.414   7.299   9.347
 5341TIP3    H240219   7.387   7.438   9.293
 5342TIP3   OH240220   5.995   7.363   8.874
 5342TIP3    H140221   5.961   7.382   8.961
 5342TIP3    H240222   6.069   7.304   8.889
 5343TIP3   OH240223   7.516   6.302   9.420
 5343TIP3    H140224   7.498   6.393   9.441
 5343TIP3    H240225   7.486   6.291   9.330
 5344TIP3   OH240226   7.574   7.101   9.890
 5344TIP3    H140227   7.667   7.120   9.898
 5344TIP3    H240228   7.540   7.173   9.836
 5345TIP3   OH240229   7.492   6.100   9.621
 5345TIP3    H140230   7.582   6.069   9.631
 5345TIP3    H240231   7.496   6.163   9.549
 5346TIP3   OH240232   7.506   7.567   9.558
 5346TIP3    H140233   7.471   7.513   9.488
 5346TIP3    H240234   7.504   7.511   9.636
 5347TIP3   OH240235   7.501   7.291   9.680
 5347TIP3    H140236   7.450   7.241   9.616
 5347TIP3    H240237   7.592   7.276   9.654
 5348TIP3   OH240238   7.603   6.408   9.923
 5348TIP3    H140239   7.640   6.473   9.863
 5348TIP3    H240240   7.575   6.459   9.999
 5349TIP3   OH240241   7.419   6.205   9.868
 5349TIP3    H140242   7.446   6.166   9.784
 5349TIP3    H240243   7.483   6.274   9.884
 5350TIP3   OH240244   7.536   5.962   9.298
 5350TIP3    H140245   7.451   5.975   9.339
 5350TIP3    H240246   7.515   5.925   9.212
 5351TIP3   OH240247   0.865   7.475   9.845
 5351TIP3    H140248   0.941   7.432   9.807
 5351TIP3    H240249   0.794   7.458   9.783
 5352TIP3   OH240250   1.604   7.502   9.132
 5352TIP3    H140251   1.531   7.506   9.194
 5352TIP3    H240252   1.607   7.590   9.094
 5353TIP3   OH240253   0.559   7.583   9.937
 5353TIP3    H140254   0.523   7.545  10.017
 5353TIP3    H240255   0.549   7.677   9.949
 5354TIP3   OH240256   0.251   7.542   9.879
 5354TIP3    H140257   0.249   7.521   9.786
 5354TIP3    H240258   0.299   7.470   9.919
 5355TIP3   OH240259   1.573   7.527   9.780
 5355TIP3    H140260   1.611   7.615   9.787
 5355TIP3    H240261   1.479   7.542   9.779
 5356TIP3   OH240262   0.264   7.455   9.619
 5356TIP3    H140263   0.210   7.503   9.557
 5356TIP3    H240264   0.326   7.406   9.565
 5357TIP3   OH240265   0.312   7.482   9.167
 5357TIP3    H140266   0.282   7.573   9.170
 5357TIP3    H240267   0.377   7.476   9.237
 5358TIP3   OH240268   0.636   7.491   9.688
 5358TIP3    H140269   0.650   7.577   9.646
 5358TIP3    H240270   0.595   7.512   9.772
 5359TIP3   OH240271   1.302   7.574   9.760
 5359TIP3    H140272   1.281   7.667   9.757
 5359TIP3    H240273   1.218   7.529   9.761
 5360TIP3   OH240274   1.423   7.524   9.341
 5360TIP3    H140275   1.339   7.480   9.334
 5360TIP3    H240276   1.465   7.484   9.417
 5361TIP3   OH240277   2.699   7.504   9.895
 5361TIP3    H140278   2.744   7.451   9.829
 5361TIP3    H240279   2.610   7.516   9.859
 5362TIP3   OH240280   3.474   7.486   9.138
 5362TIP3    H140281   3.385   7.470   9.107
 5362TIP3    H240282   3.484   7.581   9.137
 5363TIP3   OH240283   2.454   7.602   9.806
 5363TIP3    H140284   2.359   7.593   9.811
 5363TIP3    H240285   2.471   7.691   9.839
 5364TIP3   OH240286   2.175   7.610   9.811
 5364TIP3    H140287   2.172   7.588   9.718
 5364TIP3    H240288   2.096   7.571   9.848
 5365TIP3   OH240289   3.415   7.553   9.821
 5365TIP3    H140290   3.455   7.639   9.836
 5365TIP3    H240291   3.325   7.574   9.796
 5366TIP3   OH240292   2.185   7.540   9.546
 5366TIP3    H140293   2.105   7.518   9.497
 5366TIP3    H240294   2.241   7.463   9.536
 5367TIP3   OH240295   2.100   7.485   9.184
 5367TIP3    H140296   2.113   7.577   9.160
 5367TIP3    H240297   2.054   7.488   9.268
 5368TIP3   OH240298   2.602   7.481   9.604
 5368TIP3    H140299   2.666   7.548   9.580
 5368TIP3    H240300   2.539   7.526   9.660
 5369TIP3   OH240301   3.163   7.618   9.702
 5369TIP3    H140302   3.183   7.602   9.609
 5369TIP3    H240303   3.107   7.544   9.727
 5370TIP3   OH240304   3.258   7.586   9.436
 5370TIP3    H140305   3.209   7.533   9.373
 5370TIP3    H240306   3.314   7.523   9.481
 5371TIP3   OH240307   4.623   7.497   9.998
 5371TIP3    H140308   4.678   7.421   9.981
 5371TIP3    H240309   4.546   7.483   9.943
 5372TIP3   OH240310   5.372   7.488   9.133
 5372TIP3    H140311   5.285   7.460   9.105
 5372TIP3    H240312   5.369   7.584   9.131
 5373TIP3   OH240313   4.373   7.536   9.876
 5373TIP3    H140314   4.307   7.503   9.937
 5373TIP3    H240315   4.361   7.631   9.878
 5374TIP3   OH240316   4.012   7.616   9.764
 5374TIP3    H140317   4.016   7.597   9.670
 5374TIP3    H240318   4.018   7.530   9.806
 5375TIP3   OH240319   5.292   7.564   9.809
 5375TIP3    H140320   5.313   7.654   9.836
 5375TIP3    H240321   5.201   7.569   9.780
 5376TIP3   OH240322   4.030   7.563   9.493
 5376TIP3    H140323   3.944   7.525   9.477
 5376TIP3    H240324   4.091   7.491   9.482
 5377TIP3   OH240325   3.951   7.466   9.109
 5377TIP3    H140326   3.962   7.559   9.127
 5377TIP3    H240327   3.862   7.458   9.076
 5378TIP3   OH240328   4.473   7.459   9.622
 5378TIP3    H140329   4.534   7.533   9.611
 5378TIP3    H240330   4.432   7.475   9.707
 5379TIP3   OH240331   5.042   7.589   9.688
 5379TIP3    H140332   5.059   7.572   9.596
 5379TIP3    H240333   4.989   7.515   9.717
 5380TIP3   OH240334   5.162   7.565   9.430
 5380TIP3    H140335   5.116   7.506   9.371
 5380TIP3    H240336   5.226   7.509   9.474
 5381TIP3   OH240337   6.539   7.509   9.897
 5381TIP3    H140338   6.589   7.433   9.926
 5381TIP3    H240339   6.491   7.478   9.821
 5382TIP3   OH240340   7.324   7.528   9.141
 5382TIP3    H140341   7.237   7.522   9.182
 5382TIP3    H240342   7.321   7.608   9.089
 5383TIP3   OH240343   6.201   7.563   9.920
 5383TIP3    H140344   6.113   7.554   9.882
 5383TIP3    H240345   6.209   7.656   9.939
 5384TIP3   OH240346   5.960   7.562   9.784
 5384TIP3    H140347   5.951   7.560   9.689
 5384TIP3    H240348   5.912   7.485   9.814
 5385TIP3   OH240349   7.157   7.514   9.787
 5385TIP3    H140350   7.191   7.603   9.789
 5385TIP3    H240351   7.064   7.523   9.768
 5386TIP3   OH240352   5.925   7.551   9.513
 5386TIP3    H140353   5.837   7.519   9.494
 5386TIP3    H240354   5.982   7.477   9.496
 5387TIP3   OH240355   5.857   7.444   9.110
 5387TIP3    H140356   5.868   7.536   9.133
 5387TIP3    H240357   5.769   7.439   9.073
 5388TIP3   OH240358   6.349   7.479   9.695
 5388TIP3    H140359   6.377   7.563   9.659
 5388TIP3    H240360   6.292   7.503   9.768
 5389TIP3   OH240361   6.892   7.554   9.694
 5389TIP3    H140362   6.864   7.552   9.603
 5389TIP3    H240363   6.852   7.476   9.733
 5390TIP3   OH240364   7.094   7.525   9.299
 5390TIP3    H140365   7.011   7.482   9.277
 5390TIP3    H240366   7.119   7.486   9.383
 5391TIP3   OH240367   1.265   1.096   0.681
 5391TIP3    H140368   1.259   1.182   0.639
 5391TIP3    H240369   1.189   1.048   0.648
 5392TIP3   OH240370   1.119   0.970   1.037
 5392TIP3    H140371   1.134   0.925   1.120
 5392TIP3    H240372   1.069   0.907   0.984
 5393TIP3   OH240373   0.313   0.889   1.188
 5393TIP3    H140374   0.299   0.804   1.228
 5393TIP3    H240375   0.359   0.940   1.254
 5394TIP3   OH240376   1.585   1.240   0.948
 5394TIP3    H140377   1.514   1.176   0.956
 5394TIP3    H240378   1.552   1.317   0.993
 5395TIP3   OH240379   0.504   1.369   0.990
 5395TIP3    H140380   0.475   1.283   0.959
 5395TIP3    H240381   0.599   1.359   1.001
 5396TIP3   OH240382   0.250   0.705   0.542
 5396TIP3    H140383   0.305   0.782   0.524
 5396TIP3    H240384   0.162   0.733   0.515
 5397TIP3   OH240385   0.027   0.889   0.820
 5397TIP3    H140386   0.071   0.807   0.844
 5397TIP3    H240387   0.082   0.957   0.858
 5398TIP3   OH240388   1.226   1.693   0.965
 5398TIP3    H140389   1.267   1.644   0.894
 5398TIP3    H240390   1.225   1.632   1.039
 5399TIP3   OH240391   0.996   1.221   1.039
 5399TIP3    H140392   1.030   1.136   1.012
 5399TIP3    H240393   1.064   1.258   1.095
 5400TIP3   OH240394   1.891   0.402   1.180
 5400TIP3    H140395   1.875   0.496   1.185
 5400TIP3    H240396   1.953   0.392   1.107
 5401TIP3   OH240397   1.244   0.659   1.018
 5401TIP3    H140398   1.238   0.568   1.047
 5401TIP3    H240399   1.209   0.658   0.929
 5402TIP3   OH240400   0.645   0.406   0.831
 5402TIP3    H140401   0.653   0.497   0.804
 5402TIP3    H240402   0.587   0.366   0.766
 5403TIP3   OH240403   1.369   0.464   0.676
 5403TIP3    H140404   1.405   0.436   0.760
 5403TIP3    H240405   1.441   0.511   0.634
 5404TIP3   OH240406   0.221   0.721   0.951
 5404TIP3    H140407   0.284   0.772   1.002
 5404TIP3    H240408   0.274   0.664   0.896
 5405TIP3   OH240409   0.733   0.868   0.813
 5405TIP3    H140410   0.821   0.841   0.837
 5405TIP3    H240411   0.691   0.787   0.784
 5406TIP3   OH240412   1.914   0.633   1.418
 5406TIP3    H140413   1.822   0.639   1.391
 5406TIP3    H240414   1.911   0.594   1.506
 5407TIP3   OH240415   0.518   0.320   1.245
 5407TIP3    H140416   0.487   0.377   1.174
 5407TIP3    H240417   0.452   0.330   1.314
 5408TIP3   OH240418   1.231   1.310   0.513
 5408TIP3    H140419   1.209   1.293   0.421
 5408TIP3    H240420   1.215   1.404   0.524
 5409TIP3   OH240421   0.781   1.130   1.189
 5409TIP3    H140422   0.739   1.203   1.233
 5409TIP3    H240423   0.854   1.170   1.142
 5410TIP3   OH240424   1.462   0.419   0.936
 5410TIP3    H140425   1.381   0.411   0.988
 5410TIP3    H240426   1.516   0.480   0.986
 5411TIP3   OH240427   0.468   0.493   1.041
 5411TIP3    H140428   0.501   0.577   1.071
 5411TIP3    H240429   0.520   0.473   0.963
 5412TIP3   OH240430   0.650   1.338   1.315
 5412TIP3    H140431   0.648   1.434   1.320
 5412TIP3    H240432   0.559   1.312   1.329
 5413TIP3   OH240433   0.050   1.261   0.367
 5413TIP3    H140434   0.079   1.270   0.277
 5413TIP3    H240435   0.047   1.351   0.401
 5414TIP3   OH240436   1.505   1.467   1.078
 5414TIP3    H140437   1.414   1.483   1.103
 5414TIP3    H240438   1.538   1.553   1.052
 5415TIP3   OH240439   1.658   0.259   1.243
 5415TIP3    H140440   1.623   0.227   1.160
 5415TIP3    H240441   1.731   0.315   1.218
 5416TIP3   OH240442   0.879   0.068   0.912
 5416TIP3    H140443   0.874  -0.019   0.951
 5416TIP3    H240444   0.805   0.116   0.949
 5417TIP3   OH240445   1.368   1.605   0.748
 5417TIP3    H140446   1.417   1.523   0.739
 5417TIP3    H240447   1.435   1.673   0.737
 5418TIP3   OH240448   1.536   1.392   0.719
 5418TIP3    H140449   1.558   1.344   0.640
 5418TIP3    H240450   1.562   1.334   0.791
 5419TIP3   OH240451   1.630   1.244   1.456
 5419TIP3    H140452   1.605   1.182   1.387
 5419TIP3    H240453   1.653   1.324   1.409
 5420TIP3   OH240454   1.085   0.987   0.495
 5420TIP3    H140455   1.016   1.043   0.459
 5420TIP3    H240456   1.159   1.000   0.437
 5421TIP3   OH240457   1.113   0.864   0.156
 5421TIP3    H140458   1.152   0.917   0.224
 5421TIP3    H240459   1.183   0.806   0.126
 5422TIP3   OH240460   1.751   0.923   1.345
 5422TIP3    H140461   1.689   0.985   1.305
 5422TIP3    H240462   1.826   0.922   1.285
 5423TIP3   OH240463   1.477   1.007   0.534
 5423TIP3    H140464   1.408   1.034   0.594
 5423TIP3    H240465   1.526   0.940   0.582
 5424TIP3   OH240466   1.381   0.749   1.454
 5424TIP3    H140467   1.390   0.828   1.506
 5424TIP3    H240468   1.321   0.773   1.383
 5425TIP3   OH240469   0.570   1.041   0.672
 5425TIP3    H140470   0.525   0.987   0.608
 5425TIP3    H240471   0.632   0.981   0.715
 5426TIP3   OH240472   0.785   1.386   0.967
 5426TIP3    H140473   0.777   1.396   0.872
 5426TIP3    H240474   0.860   1.329   0.979
 5427TIP3   OH240475   0.612   0.975   1.037
 5427TIP3    H140476   0.667   0.945   0.964
 5427TIP3    H240477   0.672   1.025   1.092
 5428TIP3   OH240478   1.254   1.520   1.179
 5428TIP3    H140479   1.234   1.566   1.260
 5428TIP3    H240480   1.230   1.429   1.197
 5429TIP3   OH240481   0.755   1.331   1.574
 5429TIP3    H140482   0.681   1.379   1.610
 5429TIP3    H240483   0.730   1.312   1.484
 5430TIP3   OH240484   1.292   1.009   0.321
 5430TIP3    H140485   1.364   1.002   0.383
 5430TIP3    H240486   1.334   1.021   0.236
 5431TIP3   OH240487   0.420   0.978   1.442
 5431TIP3    H140488   0.456   1.044   1.501
 5431TIP3    H240489   0.329   0.969   1.470
 5432TIP3   OH240490   1.184   1.583   0.542
 5432TIP3    H140491   1.227   1.591   0.627
 5432TIP3    H240492   1.126   1.659   0.537
 5433TIP3   OH240493   0.543   1.501   1.628
 5433TIP3    H140494   0.557   1.544   1.544
 5433TIP3    H240495   0.448   1.486   1.632
 5434TIP3   OH240496   1.735   0.050   0.287
 5434TIP3    H140497   1.663   0.101   0.323
 5434TIP3    H240498   1.788   0.114   0.239
 5435TIP3   OH240499   0.437   0.900   0.472
 5435TIP3    H140500   0.374   0.961   0.433
 5435TIP3    H240501   0.487   0.866   0.398
 5436TIP3   OH240502   1.775   1.480   0.182
 5436TIP3    H140503   1.776   1.569   0.147
 5436TIP3    H240504   1.867   1.457   0.190
 5437TIP3   OH240505   0.152   1.240   1.516
 5437TIP3    H140506   0.064   1.244   1.478
 5437TIP3    H240507   0.164   1.148   1.540
 5438TIP3   OH240508   0.237   1.442   1.057
 5438TIP3    H140509   0.321   1.404   1.033
 5438TIP3    H240510   0.252   1.478   1.145
 5439TIP3   OH240511   1.886   1.491   1.636
 5439TIP3    H140512   1.888   1.397   1.619
 5439TIP3    H240513   1.801   1.505   1.679
 5440TIP3   OH240514   0.981   1.487   1.568
 5440TIP3    H140515   0.958   1.570   1.611
 5440TIP3    H240516   0.901   1.434   1.574
 5441TIP3   OH240517   1.022   1.788   0.456
 5441TIP3    H140518   1.010   1.800   0.361
 5441TIP3    H240519   1.017   1.877   0.491
 5442TIP3   OH240520   0.446   1.702   0.751
 5442TIP3    H140521   0.488   1.693   0.836
 5442TIP3    H240522   0.358   1.666   0.763
 5443TIP3   OH240523   1.273   1.802   0.196
 5443TIP3    H140524   1.306   1.729   0.144
 5443TIP3    H240525   1.316   1.793   0.281
 5444TIP3   OH240526   1.381   1.762   0.450
 5444TIP3    H140527   1.326   1.684   0.459
 5444TIP3    H240528   1.430   1.765   0.532
 5445TIP3   OH240529   1.502   0.601   1.663
 5445TIP3    H140530   1.455   0.651   1.596
 5445TIP3    H240531   1.510   0.513   1.627
 5446TIP3   OH240532   0.398   1.307   1.416
 5446TIP3    H140533   0.439   1.273   1.496
 5446TIP3    H240534   0.306   1.283   1.424
 5447TIP3   OH240535   0.654   0.194   1.021
 5447TIP3    H140536   0.647   0.264   0.956
 5447TIP3    H240537   0.611   0.229   1.098
 5448TIP3   OH240538   0.989   0.180   1.466
 5448TIP3    H140539   1.027   0.094   1.453
 5448TIP3    H240540   0.924   0.167   1.536
 5449TIP3   OH240541   1.291   0.479   1.483
 5449TIP3    H140542   1.236   0.477   1.562
 5449TIP3    H240543   1.301   0.572   1.464
 5450TIP3   OH240544   1.400   1.042   0.066
 5450TIP3    H140545   1.355   1.004  -0.009
 5450TIP3    H240546   1.480   0.991   0.075
 5451TIP3   OH240547   1.040   0.396   0.100
 5451TIP3    H140548   0.968   0.371   0.158
 5451TIP3    H240549   1.025   0.346   0.020
 5452TIP3   OH240550   0.577   0.721   1.138
 5452TIP3    H140551   0.571   0.728   1.233
 5452TIP3    H240552   0.574   0.811   1.107
 5453TIP3   OH240553   0.589   0.651   0.720
 5453TIP3    H140554   0.495   0.640   0.736
 5453TIP3    H240555   0.599   0.639   0.626
 5454TIP3   OH240556   1.106   0.715   0.515
 5454TIP3    H140557   1.092   0.810   0.511
 5454TIP3    H240558   1.191   0.702   0.473
 5455TIP3   OH240559   1.108   0.758   1.703
 5455TIP3    H140560   1.018   0.734   1.682
 5455TIP3    H240561   1.153   0.675   1.718
 5456TIP3   OH240562   1.151   0.614   0.764
 5456TIP3    H140563   1.127   0.657   0.682
 5456TIP3    H240564   1.217   0.550   0.740
 5457TIP3   OH240565   0.307   0.644   1.316
 5457TIP3    H140566   0.389   0.670   1.358
 5457TIP3    H240567   0.297   0.551   1.339
 5458TIP3   OH240568   0.709   0.413   0.043
 5458TIP3    H140569   0.748   0.395   0.129
 5458TIP3    H240570   0.770   0.474   0.002
 5459TIP3   OH240571   0.058   0.460   0.860
 5459TIP3    H140572   0.099   0.423   0.938
 5459TIP3    H240573   0.127   0.510   0.816
 5460TIP3   OH240574   0.293   0.504   0.360
 5460TIP3    H140575   0.316   0.553   0.281
 5460TIP3    H240576   0.282   0.571   0.428
 5461TIP3   OH240577   1.194   0.796   1.253
 5461TIP3    H140578   1.211   0.744   1.174
 5461TIP3    H240579   1.125   0.747   1.299
 5462TIP3   OH240580   0.909   0.383   0.707
 5462TIP3    H140581   0.828   0.380   0.758
 5462TIP3    H240582   0.977   0.360   0.769
 5463TIP3   OH240583   0.324   0.554   0.751
 5463TIP3    H140584   0.291   0.603   0.676
 5463TIP3    H240585   0.363   0.475   0.714
 5464TIP3   OH240586   0.626   0.608   0.450
 5464TIP3    H140587   0.721   0.597   0.455
 5464TIP3    H240588   0.613   0.677   0.386
 5465TIP3   OH240589   1.220   0.393   1.067
 5465TIP3    H140590   1.174   0.381   1.150
 5465TIP3    H240591   1.169   0.343   1.004
 5466TIP3   OH240592   0.578   0.796   0.251
 5466TIP3    H140593   0.505   0.760   0.201
 5466TIP3    H240594   0.655   0.779   0.196
 5467TIP3   OH240595   1.648   1.822   1.721
 5467TIP3    H140596   1.681   1.857   1.638
 5467TIP3    H240597   1.700   1.866   1.788
 5468TIP3   OH240598   0.467   1.164   1.647
 5468TIP3    H140599   0.534   1.155   1.714
 5468TIP3    H240600   0.384   1.155   1.694
 5469TIP3   OH240601   0.966   0.761   0.914
 5469TIP3    H140602   1.021   0.702   0.863
 5469TIP3    H240603   0.934   0.707   0.986
 5470TIP3   OH240604   0.467   0.344   0.633
 5470TIP3    H140605   0.407   0.270   0.642
 5470TIP3    H240606   0.498   0.339   0.543
 5471TIP3   OH240607   0.841   0.642   1.135
 5471TIP3    H140608   0.748   0.662   1.123
 5471TIP3    H240609   0.873   0.713   1.191
 5472TIP3   OH240610   0.908   1.150   0.362
 5472TIP3    H140611   0.848   1.113   0.297
 5472TIP3    H240612   0.851   1.187   0.428
 5473TIP3   OH240613   1.587   1.103   1.224
 5473TIP3    H140614   1.655   1.148   1.174
 5473TIP3    H240615   1.519   1.083   1.159
 5474TIP3   OH240616   1.286   0.424   0.213
 5474TIP3    H140617   1.196   0.420   0.180
 5474TIP3    H240618   1.316   0.512   0.189
 5475TIP3   OH240619   1.053   1.200   1.445
 5475TIP3    H140620   1.023   1.121   1.489
 5475TIP3    H240621   1.033   1.271   1.506
 5476TIP3   OH240622   1.355   0.682   0.406
 5476TIP3    H140623   1.440   0.649   0.436
 5476TIP3    H240624   1.367   0.700   0.313
 5477TIP3   OH240625   0.429   1.122   0.898
 5477TIP3    H140626   0.463   1.103   0.810
 5477TIP3    H240627   0.481   1.065   0.956
 5478TIP3   OH240628   1.112   1.299   0.252
 5478TIP3    H140629   1.070   1.382   0.274
 5478TIP3    H240630   1.052   1.232   0.285
 5479TIP3   OH240631   0.165   0.962   1.539
 5479TIP3    H140632   0.179   0.898   1.609
 5479TIP3    H240633   0.078   0.942   1.505
 5480TIP3   OH240634   0.966   0.969   1.580
 5480TIP3    H140635   0.895   0.906   1.586
 5480TIP3    H240636   1.044   0.920   1.607
 5481TIP3   OH240637   1.256   1.483   1.616
 5481TIP3    H140638   1.162   1.483   1.600
 5481TIP3    H240639   1.264   1.489   1.711
 5482TIP3   OH240640   1.774   0.639   0.345
 5482TIP3    H140641   1.727   0.602   0.270
 5482TIP3    H240642   1.787   0.731   0.323
 5483TIP3   OH240643   1.873   1.221   1.585
 5483TIP3    H140644   1.780   1.213   1.560
 5483TIP3    H240645   1.921   1.195   1.507
 5484TIP3   OH240646   1.639   1.509   0.418
 5484TIP3    H140647   1.617   1.423   0.453
 5484TIP3    H240648   1.677   1.491   0.331
 5485TIP3   OH240649   1.399   1.043   1.025
 5485TIP3    H140650   1.305   1.038   1.008
 5485TIP3    H240651   1.433   0.960   0.990
 5486TIP3   OH240652   0.689   1.452   0.713
 5486TIP3    H140653   0.707   1.534   0.666
 5486TIP3    H240654   0.596   1.458   0.735
 5487TIP3   OH240655   0.135   0.883   0.180
 5487TIP3    H140656   0.165   0.937   0.253
 5487TIP3    H240657   0.042   0.869   0.198
 5488TIP3   OH240658   0.721   1.236   0.545
 5488TIP3    H140659   0.727   1.307   0.609
 5488TIP3    H240660   0.670   1.168   0.589
 5489TIP3   OH240661   0.902   1.622   1.332
 5489TIP3    H140662   0.952   1.702   1.316
 5489TIP3    H240663   0.952   1.574   1.397
 5490TIP3   OH240664   0.675   1.707   0.597
 5490TIP3    H140665   0.591   1.716   0.641
 5490TIP3    H240666   0.731   1.772   0.640
 5491TIP3   OH240667   1.201   1.257   1.225
 5491TIP3    H140668   1.151   1.234   1.303
 5491TIP3    H240669   1.260   1.182   1.212
 5492TIP3   OH240670   1.355   1.306   0.120
 5492TIP3    H140671   1.362   1.213   0.097
 5492TIP3    H240672   1.276   1.311   0.175
 5493TIP3   OH240673   1.473   1.582   1.484
 5493TIP3    H140674   1.388   1.556   1.520
 5493TIP3    H240675   1.455   1.663   1.437
 5494TIP3   OH240676   1.785   1.742   0.100
 5494TIP3    H140677   1.880   1.750   0.100
 5494TIP3    H240678   1.754   1.807   0.163
 5495TIP3   OH240679   0.295   0.381   1.407
 5495TIP3    H140680   0.252   0.412   1.486
 5495TIP3    H240681   0.239   0.311   1.374
 5496TIP3   OH240682   1.618   1.243   0.497
 5496TIP3    H140683   1.555   1.170   0.499
 5496TIP3    H240684   1.703   1.201   0.484
 5497TIP3   OH240685   0.289   1.546   1.311
 5497TIP3    H140686   0.342   1.472   1.340
 5497TIP3    H240687   0.255   1.585   1.392
 5498TIP3   OH240688   0.592   1.377   0.346
 5498TIP3    H140689   0.641   1.328   0.411
 5498TIP3    H240690   0.638   1.460   0.339
 5499TIP3   OH240691   0.253   1.066   0.355
 5499TIP3    H140692   0.185   1.126   0.384
 5499TIP3    H240693   0.314   1.120   0.305
 5500TIP3   OH240694   1.100   0.378   1.313
 5500TIP3    H140695   1.173   0.401   1.371
 5500TIP3    H240696   1.052   0.310   1.361
 5501TIP3   OH240697   1.266   0.308   0.463
 5501TIP3    H140698   1.275   0.360   0.383
 5501TIP3    H240699   1.294   0.367   0.533
 5502TIP3   OH240700   0.980   1.519   0.326
 5502TIP3    H140701   0.889   1.549   0.329
 5502TIP3    H240702   1.025   1.572   0.392
 5503TIP3   OH240703   0.892   0.548   0.484
 5503TIP3    H140704   0.965   0.610   0.485
 5503TIP3    H240705   0.901   0.499   0.565
 5504TIP3   OH240706   1.019   0.640   1.397
 5504TIP3    H140707   0.948   0.645   1.462
 5504TIP3    H240708   1.019   0.549   1.368
 5505TIP3   OH240709   0.999   0.225   0.493
 5505TIP3    H140710   0.974   0.284   0.565
 5505TIP3    H240711   1.093   0.241   0.482
 5506TIP3   OH240712   0.722   1.621   0.343
 5506TIP3    H140713   0.725   1.697   0.285
 5506TIP3    H240714   0.709   1.657   0.430
 5507TIP3   OH240715   0.570   0.342   0.371
 5507TIP3    H140716   0.560   0.436   0.385
 5507TIP3    H240717   0.662   0.332   0.346
 5508TIP3   OH240718   1.546   0.366   1.491
 5508TIP3    H140719   1.453   0.385   1.481
 5508TIP3    H240720   1.575   0.339   1.404
 5509TIP3   OH240721   1.478   0.785   0.946
 5509TIP3    H140722   1.392   0.750   0.966
 5509TIP3    H240723   1.539   0.727   0.992
 5510TIP3   OH240724   0.427   1.219   0.203
 5510TIP3    H140725   0.475   1.279   0.261
 5510TIP3    H240726   0.488   1.202   0.131
 5511TIP3   OH240727   0.337   0.693   0.155
 5511TIP3    H140728   0.270   0.760   0.171
 5511TIP3    H240729   0.306   0.648   0.076
 5512TIP3   OH240730   1.609   1.720   1.064
 5512TIP3    H140731   1.588   1.804   1.023
 5512TIP3    H240732   1.702   1.725   1.083
 5513TIP3   OH240733   0.345   0.161   0.926
 5513TIP3    H140734   0.329   0.166   0.832
 5513TIP3    H240735   0.342   0.068   0.947
 5514TIP3   OH240736   0.048   1.535   0.408
 5514TIP3    H140737   0.013   1.571   0.489
 5514TIP3    H240738   0.117   1.597   0.383
 5515TIP3   OH240739   0.050   1.821   1.740
 5515TIP3    H140740   0.089   1.776   1.815
 5515TIP3    H240741  -0.001   1.754   1.695
 5516TIP3   OH240742   0.637   1.622   1.858
 5516TIP3    H140743   0.710   1.566   1.884
 5516TIP3    H240744   0.599   1.580   1.781
 5517TIP3   OH240745   1.091   1.602   9.977
 5517TIP3    H140746   1.062   1.511   9.965
 5517TIP3    H240747   1.181   1.595  10.007
 5518TIP3   OH240748   1.304   1.480   1.893
 5518TIP3    H140749   1.323   1.391   1.924
 5518TIP3    H240750   1.375   1.534   1.927
 5519TIP3   OH240751   1.356   1.576   0.051
 5519TIP3    H140752   1.362   1.484   0.074
 5519TIP3    H240753   1.436   1.595   0.003
 5520TIP3   OH240754   0.250   1.126   1.809
 5520TIP3    H140755   0.245   1.048   1.864
 5520TIP3    H240756   0.166   1.170   1.822
 5521TIP3   OH240757   0.632   1.213   0.011
 5521TIP3    H140758   0.683   1.164   0.076
 5521TIP3    H240759   0.693   1.279  -0.022
 5522TIP3   OH240760   0.887   1.172   1.752
 5522TIP3    H140761   0.842   1.225   1.686
 5522TIP3    H240762   0.917   1.095   1.704
 5523TIP3   OH240763   1.403   1.244   1.613
 5523TIP3    H140764   1.484   1.261   1.564
 5523TIP3    H240765   1.353   1.325   1.606
 5524TIP3   OH240766   0.248   0.780   1.742
 5524TIP3    H140767   0.342   0.765   1.750
 5524TIP3    H240768   0.223   0.823   1.823
 5525TIP3   OH240769   0.731   1.029   0.188
 5525TIP3    H140770   0.659   0.982   0.229
 5525TIP3    H240771   0.788   0.960   0.153
 5526TIP3   OH240772   0.555   0.741   1.413
 5526TIP3    H140773   0.519   0.828   1.432
 5526TIP3    H240774   0.629   0.732   1.473
 5527TIP3   OH240775   0.842   0.781   0.134
 5527TIP3    H140776   0.848   0.719   0.062
 5527TIP3    H240777   0.934   0.802   0.155
 5528TIP3   OH240778   1.263   0.960   1.821
 5528TIP3    H140779   1.320   0.969   1.744
 5528TIP3    H240780   1.211   0.881   1.803
 5529TIP3   OH240781   1.682   1.015   0.074
 5529TIP3    H140782   1.756   1.009   0.014
 5529TIP3    H240783   1.658   1.108   0.072
 5530TIP3   OH240784   0.674   0.439   1.557
 5530TIP3    H140785   0.713   0.420   1.472
 5530TIP3    H240786   0.717   0.520   1.586
 5531TIP3   OH240787   0.776   0.420   1.301
 5531TIP3    H140788   0.817   0.484   1.242
 5531TIP3    H240789   0.689   0.406   1.265
 5532TIP3   OH240790   0.879   0.882   1.266
 5532TIP3    H140791   0.926   0.896   1.348
 5532TIP3    H240792   0.843   0.969   1.244
 5533TIP3   OH240793   1.329   0.662   1.892
 5533TIP3    H140794   1.323   0.582   1.944
 5533TIP3    H240795   1.394   0.642   1.825
 5534TIP3   OH240796   1.432   0.974   1.603
 5534TIP3    H140797   1.413   1.068   1.600
 5534TIP3    H240798   1.527   0.970   1.612
 5535TIP3   OH240799   0.511   0.694   1.776
 5535TIP3    H140800   0.492   0.604   1.748
 5535TIP3    H240801   0.595   0.714   1.736
 5536TIP3   OH240802   0.707   0.141   1.357
 5536TIP3    H140803   0.779   0.203   1.348
 5536TIP3    H240804   0.630   0.190   1.327
 5537TIP3   OH240805   0.874   0.477   1.859
 5537TIP3    H140806   0.787   0.479   1.900
 5537TIP3    H240807   0.869   0.541   1.789
 5538TIP3   OH240808   1.147   0.477   1.719
 5538TIP3    H140809   1.070   0.452   1.769
 5538TIP3    H240810   1.219   0.428   1.760
 5539TIP3   OH240811   1.358   0.342   1.837
 5539TIP3    H140812   1.379   0.249   1.834
 5539TIP3    H240813   1.327   0.356   1.926
 5540TIP3   OH240814   0.455   0.425   1.716
 5540TIP3    H140815   0.523   0.427   1.649
 5540TIP3    H240816   0.444   0.332   1.736
 5541TIP3   OH240817   0.777   0.071   1.619
 5541TIP3    H140818   0.758  -0.021   1.632
 5541TIP3    H240819   0.734   0.093   1.536
 5542TIP3   OH240820   0.747   0.214   1.847
 5542TIP3    H140821   0.764   0.159   1.770
 5542TIP3    H240822   0.819   0.278   1.846
 5543TIP3   OH240823   0.722   1.823   0.155
 5543TIP3    H140824   0.817   1.836   0.155
 5543TIP3    H240825   0.688   1.897   0.104
 5544TIP3   OH240826   0.173   1.273   0.124
 5544TIP3    H140827   0.264   1.265   0.152
 5544TIP3    H240828   0.158   1.197   0.069
 5545TIP3   OH240829   0.103   1.774   0.628
 5545TIP3    H140830   0.012   1.803   0.641
 5545TIP3    H240831   0.123   1.721   0.705
 5546TIP3   OH240832   0.197   1.638   0.852
 5546TIP3    H140833   0.186   1.549   0.885
 5546TIP3    H240834   0.209   1.692   0.931
 5547TIP3   OH240835   1.871   1.728   1.162
 5547TIP3    H140836   1.859   1.706   1.255
 5547TIP3    H240837   1.934   1.800   1.163
 5548TIP3   OH240838   1.822   1.655   1.423
 5548TIP3    H140839   1.765   1.589   1.383
 5548TIP3    H240840   1.863   1.610   1.496
 5549TIP3   OH240841   1.664   1.356   1.923
 5549TIP3    H140842   1.628   1.411   1.854
 5549TIP3    H240843   1.733   1.409   1.962
 5550TIP3   OH240844   1.854   1.100   0.470
 5550TIP3    H140845   1.931   1.157   0.469
 5550TIP3    H240846   1.870   1.040   0.543
 5551TIP3   OH240847   1.869   0.909   0.671
 5551TIP3    H140848   1.778   0.889   0.693
 5551TIP3    H240849   1.907   0.942   0.752
 5552TIP3   OH240850   1.814   1.226   1.110
 5552TIP3    H140851   1.760   1.228   1.031
 5552TIP3    H240852   1.864   1.308   1.107
 5553TIP3   OH240853   1.652   1.475   1.312
 5553TIP3    H140854   1.581   1.509   1.365
 5553TIP3    H240855   1.613   1.461   1.225
 5554TIP3   OH240856   1.816   0.901   0.283
 5554TIP3    H140857   1.756   0.934   0.216
 5554TIP3    H240858   1.820   0.971   0.349
 5555TIP3   OH240859   1.641   0.540   0.123
 5555TIP3    H140860   1.558   0.588   0.123
 5555TIP3    H240861   1.668   0.537   0.031
 5556TIP3   OH240862   1.605   0.815   0.698
 5556TIP3    H140863   1.596   0.728   0.659
 5556TIP3    H240864   1.558   0.810   0.781
 5557TIP3   OH240865   0.182   1.043   1.000
 5557TIP3    H140866   0.256   1.088   0.960
 5557TIP3    H240867   0.221   0.991   1.070
 5558TIP3   OH240868   1.707   0.954   1.619
 5558TIP3    H140869   1.731   0.869   1.655
 5558TIP3    H240870   1.736   0.950   1.528
 5559TIP3   OH240871   1.748   0.707   1.723
 5559TIP3    H140872   1.665   0.663   1.704
 5559TIP3    H240873   1.814   0.639   1.710
 5560TIP3   OH240874   1.641   0.255   0.037
 5560TIP3    H140875   1.729   0.247   0.073
 5560TIP3    H240876   1.608   0.338   0.072
 5561TIP3   OH240877   1.598   0.568   0.546
 5561TIP3    H140878   1.631   0.480   0.561
 5561TIP3    H240879   1.655   0.604   0.478
 5562TIP3   OH240880   1.622   0.593   1.084
 5562TIP3    H140881   1.714   0.608   1.062
 5562TIP3    H240882   1.617   0.608   1.179
 5563TIP3   OH240883   1.637   0.676   1.350
 5563TIP3    H140884   1.549   0.686   1.386
 5563TIP3    H240885   1.673   0.765   1.350
 5564TIP3   OH240886   0.200   0.518   1.640
 5564TIP3    H140887   0.200   0.611   1.664
 5564TIP3    H240888   0.282   0.484   1.675
 5565TIP3   OH240889   1.953   0.177   1.812
 5565TIP3    H140890   2.029   0.186   1.755
 5565TIP3    H240891   1.879   0.200   1.755
 5566TIP3   OH240892   1.693   0.307   0.556
 5566TIP3    H140893   1.706   0.263   0.640
 5566TIP3    H240894   1.629   0.253   0.510
 5567TIP3   OH240895   0.224   0.363   1.057
 5567TIP3    H140896   0.265   0.289   1.012
 5567TIP3    H240897   0.293   0.429   1.062
 5568TIP3   OH240898   0.050   0.651   1.159
 5568TIP3    H140899   0.102   0.677   1.083
 5568TIP3    H240900   0.113   0.648   1.231
 5569TIP3   OH240901   1.768   0.264   1.627
 5569TIP3    H140902   1.686   0.307   1.603
 5569TIP3    H240903   1.777   0.192   1.565
 5570TIP3   OH240904   1.890   0.245   0.147
 5570TIP3    H140905   1.947   0.260   0.071
 5570TIP3    H240906   1.918   0.311   0.211
 5571TIP3   OH240907   0.156   0.289   0.460
 5571TIP3    H140908   0.067   0.324   0.450
 5571TIP3    H240909   0.213   0.359   0.426
 5572TIP3   OH240910   1.539   1.812   0.679
 5572TIP3    H140911   1.610   1.779   0.624
 5572TIP3    H240912   1.576   1.888   0.723
 5573TIP3   OH240913   0.139   0.201   1.264
 5573TIP3    H140914   0.044   0.204   1.273
 5573TIP3    H240915   0.158   0.261   1.192
 5574TIP3   OH240916   0.268   1.462   1.647
 5574TIP3    H140917   0.225   1.385   1.608
 5574TIP3    H240918   0.234   1.466   1.736
 5575TIP3   OH240919   0.632   1.608   1.385
 5575TIP3    H140920   0.598   1.696   1.368
 5575TIP3    H240921   0.727   1.617   1.373
 5576TIP3   OH240922   0.947   1.737   1.688
 5576TIP3    H140923   0.972   1.688   1.766
 5576TIP3    H240924   1.027   1.783   1.661
 5577TIP3   OH240925   1.186   1.847   1.618
 5577TIP3    H140926   1.210   1.796   1.540
 5577TIP3    H240927   1.255   1.826   1.681
 5578TIP3   OH240928   1.764   0.076   1.419
 5578TIP3    H140929   1.717   0.132   1.357
 5578TIP3    H240930   1.701   0.008   1.443
 5579TIP3   OH240931   0.318   1.962   1.399
 5579TIP3    H140932   0.251   2.008   1.350
 5579TIP3    H240933   0.293   1.974   1.491
 5580TIP3   OH240934   0.569   1.872   1.334
 5580TIP3    H140935   0.481   1.899   1.361
 5580TIP3    H240936   0.578   1.905   1.245
 5581TIP3   OH240937   1.019   1.860   1.249
 5581TIP3    H140938   0.971   1.886   1.170
 5581TIP3    H240939   1.020   1.939   1.303
 5582TIP3   OH240940   1.225   1.729   1.369
 5582TIP3    H140941   1.158   1.774   1.318
 5582TIP3    H240942   1.308   1.761   1.334
 5583TIP3   OH240943   1.478   1.797   1.296
 5583TIP3    H140944   1.518   1.883   1.294
 5583TIP3    H240945   1.511   1.753   1.218
 5584TIP3   OH240946   0.299   1.751   1.088
 5584TIP3    H140947   0.277   1.717   1.174
 5584TIP3    H240948   0.384   1.712   1.068
 5585TIP3   OH240949   0.533   1.641   1.003
 5585TIP3    H140950   0.520   1.546   1.005
 5585TIP3    H240951   0.623   1.653   1.034
 5586TIP3   OH240952   0.797   1.639   1.077
 5586TIP3    H140953   0.804   1.553   1.036
 5586TIP3    H240954   0.834   1.627   1.165
 5587TIP3   OH240955   1.085   0.248   0.875
 5587TIP3    H140956   1.019   0.183   0.899
 5587TIP3    H240957   1.146   0.201   0.818
 5588TIP3   OH240958   1.586   0.177   0.978
 5588TIP3    H140959   1.660   0.178   0.918
 5588TIP3    H240960   1.536   0.256   0.956
 5589TIP3   OH240961   1.790   0.195   0.794
 5589TIP3    H140962   1.865   0.136   0.790
 5589TIP3    H240963   1.828   0.283   0.793
 5590TIP3   OH240964   0.284   0.147   0.660
 5590TIP3    H140965   0.225   0.183   0.593
 5590TIP3    H240966   0.266   0.053   0.660
 5591TIP3   OH240967   0.151   0.138   0.232
 5591TIP3    H140968   0.243   0.150   0.209
 5591TIP3    H240969   0.143   0.175   0.320
 5592TIP3   OH240970   0.921  -0.003   0.638
 5592TIP3    H140971   0.948   0.069   0.581
 5592TIP3    H240972   0.921   0.035   0.726
 5593TIP3   OH240973   1.230   0.079   0.716
 5593TIP3    H140974   1.271   0.066   0.631
 5593TIP3    H240975   1.229  -0.008   0.756
 5594TIP3   OH240976   1.506   0.157   0.424
 5594TIP3    H140977   1.430   0.215   0.415
 5594TIP3    H240978   1.470   0.074   0.455
 5595TIP3   OH240979   0.211   1.761   0.373
 5595TIP3    H140980   0.185   1.771   0.464
 5595TIP3    H240981   0.168   1.834   0.328
 5596TIP3   OH240982   0.420   0.172   0.205
 5596TIP3    H140983   0.478   0.171   0.129
 5596TIP3    H240984   0.463   0.231   0.267
 5597TIP3   OH240985   0.843   0.353   0.296
 5597TIP3    H140986   0.887   0.284   0.344
 5597TIP3    H240987   0.860   0.433   0.346
 5598TIP3   OH240988   1.000   1.802   0.164
 5598TIP3    H140989   1.092   1.829   0.174
 5598TIP3    H240990   1.004   1.725   0.107
 5599TIP3   OH240991   1.735   1.748   0.494
 5599TIP3    H140992   1.696   1.664   0.470
 5599TIP3    H240993   1.717   1.805   0.420
 5600TIP3   OH240994   0.200   0.112   1.762
 5600TIP3    H140995   0.216   0.056   1.686
 5600TIP3    H240996   0.287   0.136   1.793
 5601TIP3   OH240997   0.476   0.162   1.786
 5601TIP3    H140998   0.564   0.167   1.825
 5601TIP3    H240999   0.479   0.084   1.731
 5602TIP3   OH241000   0.421   1.780   0.183
 5602TIP3    H141001   0.363   1.753   0.254
 5602TIP3    H241002   0.509   1.754   0.212
 5603TIP3   OH241003   1.424   0.078   1.841
 5603TIP3    H141004   1.363   0.007   1.863
 5603TIP3    H241005   1.499   0.033   1.802
 5604TIP3   OH241006   1.625   1.542   1.714
 5604TIP3    H141007   1.570   1.541   1.635
 5604TIP3    H241008   1.634   1.635   1.736
 5605TIP3   OH241009   3.132   1.061   0.677
 5605TIP3    H141010   3.113   1.152   0.653
 5605TIP3    H241011   3.071   1.009   0.625
 5606TIP3   OH241012   2.911   0.945   1.091
 5606TIP3    H141013   2.984   0.903   1.137
 5606TIP3    H241014   2.885   0.881   1.025
 5607TIP3   OH241015   2.213   0.852   1.165
 5607TIP3    H141016   2.238   0.799   1.242
 5607TIP3    H241017   2.293   0.899   1.142
 5608TIP3   OH241018   3.409   1.330   0.885
 5608TIP3    H141019   3.392   1.243   0.920
 5608TIP3    H241020   3.410   1.387   0.961
 5609TIP3   OH241021   2.405   1.363   0.884
 5609TIP3    H141022   2.353   1.283   0.884
 5609TIP3    H241023   2.487   1.339   0.926
 5610TIP3   OH241024   1.939   0.651   0.589
 5610TIP3    H141025   1.922   0.741   0.616
 5610TIP3    H241026   1.887   0.640   0.509
 5611TIP3   OH241027   2.030   0.988   0.888
 5611TIP3    H141028   2.063   0.898   0.893
 5611TIP3    H241029   2.109   1.042   0.881
 5612TIP3   OH241030   3.084   1.640   0.997
 5612TIP3    H141031   3.112   1.599   0.915
 5612TIP3    H241032   3.102   1.574   1.064
 5613TIP3   OH241033   2.865   1.216   1.086
 5613TIP3    H141034   2.880   1.123   1.069
 5613TIP3    H241035   2.928   1.238   1.155
 5614TIP3   OH241036   3.771   0.360   1.149
 5614TIP3    H141037   3.767   0.440   1.203
 5614TIP3    H241038   3.837   0.379   1.083
 5615TIP3   OH241039   3.131   0.682   1.026
 5615TIP3    H141040   3.122   0.593   1.058
 5615TIP3    H241041   3.098   0.679   0.936
 5616TIP3   OH241042   2.492   0.415   0.823
 5616TIP3    H141043   2.502   0.500   0.781
 5616TIP3    H241044   2.431   0.367   0.767
 5617TIP3   OH241045   3.260   0.473   0.683
 5617TIP3    H141046   3.287   0.441   0.769
 5617TIP3    H241047   3.338   0.516   0.648
 5618TIP3   OH241048   2.109   0.724   0.903
 5618TIP3    H141049   2.176   0.707   0.969
 5618TIP3    H241050   2.139   0.678   0.825
 5619TIP3   OH241051   2.591   0.847   0.843
 5619TIP3    H141052   2.678   0.813   0.865
 5619TIP3    H241053   2.550   0.775   0.795
 5620TIP3   OH241054   3.765   0.575   1.328
 5620TIP3    H141055   3.675   0.603   1.341
 5620TIP3    H241056   3.799   0.558   1.416
 5621TIP3   OH241057   2.347   0.381   1.213
 5621TIP3    H141058   2.323   0.445   1.146
 5621TIP3    H241059   2.280   0.390   1.281
 5622TIP3   OH241060   3.065   1.295   0.551
 5622TIP3    H141061   3.062   1.279   0.457
 5622TIP3    H241062   3.035   1.385   0.561
 5623TIP3   OH241063   2.616   1.140   1.187
 5623TIP3    H141064   2.562   1.210   1.222
 5623TIP3    H241065   2.691   1.184   1.148
 5624TIP3   OH241066   3.331   0.416   0.945
 5624TIP3    H141067   3.257   0.413   1.005
 5624TIP3    H241068   3.394   0.473   0.988
 5625TIP3   OH241069   2.328   0.558   1.003
 5625TIP3    H141070   2.386   0.615   1.054
 5625TIP3    H241071   2.386   0.515   0.940
 5626TIP3   OH241072   2.459   1.337   1.296
 5626TIP3    H141073   2.453   1.432   1.287
 5626TIP3    H241074   2.370   1.310   1.321
 5627TIP3   OH241075   2.068   1.275   0.438
 5627TIP3    H141076   2.051   1.325   0.358
 5627TIP3    H241077   2.093   1.341   0.502
 5628TIP3   OH241078   3.385   1.508   1.098
 5628TIP3    H141079   3.299   1.503   1.140
 5628TIP3    H241080   3.397   1.600   1.078
 5629TIP3   OH241081   3.544   0.204   1.180
 5629TIP3    H141082   3.504   0.180   1.096
 5629TIP3    H241083   3.616   0.263   1.156
 5630TIP3   OH241084   2.726   0.096   0.932
 5630TIP3    H141085   2.716   0.002   0.946
 5630TIP3    H241086   2.648   0.135   0.971
 5631TIP3   OH241087   3.197   1.591   0.741
 5631TIP3    H141088   3.248   1.518   0.706
 5631TIP3    H241089   3.255   1.667   0.734
 5632TIP3   OH241090   3.383   1.418   0.628
 5632TIP3    H141091   3.390   1.343   0.569
 5632TIP3    H241092   3.401   1.382   0.715
 5633TIP3   OH241093   3.542   1.277   1.459
 5633TIP3    H141094   3.527   1.214   1.389
 5633TIP3    H241095   3.564   1.359   1.414
 5634TIP3   OH241096   2.999   0.950   0.454
 5634TIP3    H141097   2.932   1.012   0.424
 5634TIP3    H241098   3.065   0.952   0.385
 5635TIP3   OH241099   3.040   0.804   0.087
 5635TIP3    H141100   3.104   0.842   0.147
 5635TIP3    H241101   3.092   0.750   0.027
 5636TIP3   OH241102   3.644   0.919   1.284
 5636TIP3    H141103   3.586   0.995   1.275
 5636TIP3    H241104   3.710   0.932   1.216
 5637TIP3   OH241105   3.347   0.980   0.528
 5637TIP3    H141106   3.277   1.005   0.587
 5637TIP3    H241107   3.407   0.927   0.582
 5638TIP3   OH241108   3.279   0.771   1.471
 5638TIP3    H141109   3.289   0.844   1.533
 5638TIP3    H241110   3.215   0.803   1.407
 5639TIP3   OH241111   2.483   1.042   0.677
 5639TIP3    H141112   2.457   0.997   0.597
 5639TIP3    H241113   2.532   0.977   0.727
 5640TIP3   OH241114   2.683   1.374   0.948
 5640TIP3    H141115   2.698   1.376   0.854
 5640TIP3    H241116   2.755   1.322   0.983
 5641TIP3   OH241117   2.459   0.953   1.061
 5641TIP3    H141118   2.512   0.924   0.987
 5641TIP3    H241119   2.514   1.017   1.106
 5642TIP3   OH241120   3.140   1.480   1.226
 5642TIP3    H141121   3.131   1.508   1.317
 5642TIP3    H241122   3.113   1.388   1.227
 5643TIP3   OH241123   2.585   1.340   1.543
 5643TIP3    H141124   2.518   1.395   1.585
 5643TIP3    H241125   2.548   1.317   1.458
 5644TIP3   OH241126   3.220   0.916   0.287
 5644TIP3    H141127   3.275   0.945   0.360
 5644TIP3    H241128   3.259   0.955   0.209
 5645TIP3   OH241129   2.335   0.976   1.455
 5645TIP3    H141130   2.323   1.045   1.520
 5645TIP3    H241131   2.246   0.945   1.436
 5646TIP3   OH241132   3.000   1.567   0.546
 5646TIP3    H141133   3.056   1.575   0.623
 5646TIP3    H241134   2.989   1.657   0.515
 5647TIP3   OH241135   2.388   1.530   1.608
 5647TIP3    H141136   2.393   1.571   1.521
 5647TIP3    H241137   2.298   1.544   1.636
 5648TIP3   OH241138   3.652   0.108   0.264
 5648TIP3    H141139   3.578   0.165   0.288
 5648TIP3    H241140   3.712   0.166   0.216
 5649TIP3   OH241141   2.410   0.919   0.439
 5649TIP3    H141142   2.334   0.961   0.398
 5649TIP3    H241143   2.393   0.825   0.429
 5650TIP3   OH241144   3.633   1.482   0.223
 5650TIP3    H141145   3.652   1.574   0.203
 5650TIP3    H241146   3.718   1.438   0.218
 5651TIP3   OH241147   1.992   1.144   1.349
 5651TIP3    H141148   1.942   1.144   1.268
 5651TIP3    H241149   2.011   1.052   1.366
 5652TIP3   OH241150   1.953   1.471   1.092
 5652TIP3    H141151   2.036   1.475   1.140
 5652TIP3    H241152   1.908   1.553   1.114
 5653TIP3   OH241153   3.772   1.590   1.652
 5653TIP3    H141154   3.793   1.497   1.644
 5653TIP3    H241155   3.683   1.592   1.689
 5654TIP3   OH241156   2.826   1.469   1.497
 5654TIP3    H141157   2.816   1.552   1.544
 5654TIP3    H241158   2.748   1.418   1.522
 5655TIP3   OH241159   2.990   1.816   0.437
 5655TIP3    H141160   2.948   1.829   0.351
 5655TIP3    H241161   2.962   1.892   0.488
 5656TIP3   OH241162   2.287   1.713   0.662
 5656TIP3    H141163   2.317   1.689   0.749
 5656TIP3    H241164   2.238   1.636   0.632
 5657TIP3   OH241165   3.176   1.897   0.156
 5657TIP3    H141166   3.202   1.816   0.113
 5657TIP3    H241167   3.218   1.892   0.243
 5658TIP3   OH241168   3.274   1.808   0.406
 5658TIP3    H141169   3.183   1.786   0.424
 5658TIP3    H241170   3.319   1.723   0.403
 5659TIP3   OH241171   3.422   0.619   1.658
 5659TIP3    H141172   3.381   0.665   1.585
 5659TIP3    H241173   3.431   0.529   1.628
 5660TIP3   OH241174   2.207   1.307   1.404
 5660TIP3    H141175   2.235   1.274   1.490
 5660TIP3    H241176   2.132   1.252   1.381
 5661TIP3   OH241177   2.496   0.220   1.039
 5661TIP3    H141178   2.496   0.279   0.963
 5661TIP3    H241179   2.436   0.261   1.101
 5662TIP3   OH241180   2.854   0.130   1.443
 5662TIP3    H141181   2.906   0.051   1.429
 5662TIP3    H241182   2.784   0.124   1.378
 5663TIP3   OH241183   3.185   0.497   1.467
 5663TIP3    H141184   3.134   0.473   1.544
 5663TIP3    H241185   3.203   0.590   1.478
 5664TIP3   OH241186   3.321   0.991   0.049
 5664TIP3    H141187   3.301   1.007  -0.044
 5664TIP3    H241188   3.415   1.006   0.056
 5665TIP3   OH241189   2.862   0.466   0.075
 5665TIP3    H141190   2.799   0.428   0.137
 5665TIP3    H241191   2.865   0.404   0.003
 5666TIP3   OH241192   2.492   0.700   1.171
 5666TIP3    H141193   2.446   0.695   1.254
 5666TIP3    H241194   2.486   0.792   1.145
 5667TIP3   OH241195   2.458   0.656   0.692
 5667TIP3    H141196   2.363   0.645   0.695
 5667TIP3    H241197   2.480   0.657   0.599
 5668TIP3   OH241198   3.011   0.683   0.502
 5668TIP3    H141199   3.002   0.777   0.489
 5668TIP3    H241200   3.088   0.659   0.451
 5669TIP3   OH241201   2.929   0.691   1.652
 5669TIP3    H141202   2.874   0.623   1.689
 5669TIP3    H241203   3.014   0.680   1.696
 5670TIP3   OH241204   3.040   0.623   0.770
 5670TIP3    H141205   3.018   0.656   0.683
 5670TIP3    H241206   3.110   0.559   0.755
 5671TIP3   OH241207   2.301   0.680   1.370
 5671TIP3    H141208   2.325   0.703   1.459
 5671TIP3    H241209   2.246   0.602   1.380
 5672TIP3   OH241210   2.432   0.412   0.044
 5672TIP3    H141211   2.477   0.472   0.104
 5672TIP3    H241212   2.398   0.468  -0.025
 5673TIP3   OH241213   1.900   0.441   0.778
 5673TIP3    H141214   1.965   0.454   0.847
 5673TIP3    H241215   1.912   0.516   0.720
 5674TIP3   OH241216   1.980   0.461   0.298
 5674TIP3    H141217   2.029   0.505   0.229
 5674TIP3    H241218   1.909   0.521   0.319
 5675TIP3   OH241219   3.085   0.808   1.268
 5675TIP3    H141220   3.116   0.761   1.190
 5675TIP3    H241221   3.020   0.750   1.307
 5676TIP3   OH241222   2.768   0.419   0.733
 5676TIP3    H141223   2.682   0.404   0.773
 5676TIP3    H241224   2.831   0.394   0.800
 5677TIP3   OH241225   2.193   0.584   0.679
 5677TIP3    H141226   2.111   0.599   0.633
 5677TIP3    H241227   2.215   0.493   0.661
 5678TIP3   OH241228   2.507   0.641   0.418
 5678TIP3    H141229   2.600   0.630   0.440
 5678TIP3    H241230   2.506   0.649   0.322
 5679TIP3   OH241231   3.088   0.421   1.092
 5679TIP3    H141232   3.052   0.401   1.178
 5679TIP3    H241233   3.031   0.375   1.030
 5680TIP3   OH241234   2.519   0.664   0.145
 5680TIP3    H141235   2.467   0.704   0.075
 5680TIP3    H241236   2.607   0.698   0.131
 5681TIP3   OH241237   3.526   1.870   1.764
 5681TIP3    H141238   3.548   1.902   1.677
 5681TIP3    H241239   3.595   1.904   1.821
 5682TIP3   OH241240   2.285   1.180   1.641
 5682TIP3    H141241   2.357   1.170   1.703
 5682TIP3    H241242   2.206   1.174   1.695
 5683TIP3   OH241243   2.829   0.730   0.924
 5683TIP3    H141244   2.894   0.685   0.870
 5683TIP3    H241245   2.807   0.667   0.993
 5684TIP3   OH241246   2.308   0.333   0.637
 5684TIP3    H141247   2.250   0.256   0.641
 5684TIP3    H241248   2.354   0.324   0.553
 5685TIP3   OH241249   2.743   0.592   1.150
 5685TIP3    H141250   2.659   0.637   1.161
 5685TIP3    H241251   2.793   0.616   1.228
 5686TIP3   OH241252   2.813   1.130   0.358
 5686TIP3    H141253   2.747   1.086   0.306
 5686TIP3    H241254   2.764   1.176   0.425
 5687TIP3   OH241255   3.497   1.146   1.217
 5687TIP3    H141256   3.572   1.193   1.180
 5687TIP3    H241257   3.439   1.131   1.142
 5688TIP3   OH241258   3.080   0.425   0.250
 5688TIP3    H141259   3.003   0.451   0.201
 5688TIP3    H241260   3.125   0.508   0.271
 5689TIP3   OH241261   2.995   1.198   1.561
 5689TIP3    H141262   3.035   1.135   1.622
 5689TIP3    H241263   2.918   1.230   1.607
 5690TIP3   OH241264   3.229   0.643   0.323
 5690TIP3    H141265   3.313   0.611   0.290
 5690TIP3    H241266   3.232   0.738   0.311
 5691TIP3   OH241267   2.298   1.100   0.879
 5691TIP3    H141268   2.350   1.084   0.800
 5691TIP3    H241269   2.340   1.048   0.947
 5692TIP3   OH241270   3.026   1.280   0.274
 5692TIP3    H141271   2.980   1.363   0.263
 5692TIP3    H241272   2.956   1.216   0.288
 5693TIP3   OH241273   2.058   0.889   1.449
 5693TIP3    H141274   2.081   0.877   1.541
 5693TIP3    H241275   2.010   0.809   1.426
 5694TIP3   OH241276   2.799   0.938   1.631
 5694TIP3    H141277   2.787   0.954   1.538
 5694TIP3    H241278   2.852   0.859   1.636
 5695TIP3   OH241279   3.107   1.488   1.513
 5695TIP3    H141280   3.016   1.460   1.496
 5695TIP3    H241281   3.115   1.487   1.608
 5696TIP3   OH241282   3.653   0.659   0.369
 5696TIP3    H141283   3.588   0.624   0.307
 5696TIP3    H241284   3.665   0.750   0.341
 5697TIP3   OH241285   3.774   1.317   1.617
 5697TIP3    H141286   3.684   1.293   1.596
 5697TIP3    H241287   3.826   1.281   1.546
 5698TIP3   OH241288   3.455   1.591   0.423
 5698TIP3    H141289   3.430   1.528   0.491
 5698TIP3    H241290   3.499   1.538   0.357
 5699TIP3   OH241291   3.332   1.081   0.989
 5699TIP3    H141292   3.253   1.085   0.936
 5699TIP3    H241293   3.359   0.989   0.985
 5700TIP3   OH241294   2.595   1.451   0.688
 5700TIP3    H141295   2.584   1.534   0.642
 5700TIP3    H241296   2.512   1.438   0.735
 5701TIP3   OH241297   2.063   0.886   0.158
 5701TIP3    H141298   2.120   0.942   0.210
 5701TIP3    H241299   1.981   0.884   0.207
 5702TIP3   OH241300   2.624   1.234   0.526
 5702TIP3    H141301   2.625   1.313   0.581
 5702TIP3    H241302   2.574   1.170   0.578
 5703TIP3   OH241303   2.712   1.603   1.283
 5703TIP3    H141304   2.783   1.661   1.255
 5703TIP3    H241305   2.754   1.542   1.345
 5704TIP3   OH241306   2.545   1.694   0.559
 5704TIP3    H141307   2.454   1.715   0.580
 5704TIP3    H241308   2.596   1.766   0.596
 5705TIP3   OH241309   3.056   1.222   1.291
 5705TIP3    H141310   3.028   1.219   1.383
 5705TIP3    H241311   3.111   1.145   1.281
 5706TIP3   OH241312   3.285   1.369   0.245
 5706TIP3    H141313   3.333   1.324   0.314
 5706TIP3    H241314   3.196   1.333   0.251
 5707TIP3   OH241315   3.350   1.614   1.488
 5707TIP3    H141316   3.265   1.572   1.497
 5707TIP3    H241317   3.333   1.692   1.434
 5708TIP3   OH241318   3.705   1.744   0.179
 5708TIP3    H141319   3.791   1.755   0.140
 5708TIP3    H241320   3.683   1.830   0.215
 5709TIP3   OH241321   2.135   0.463   1.382
 5709TIP3    H141322   2.061   0.524   1.381
 5709TIP3    H241323   2.095   0.377   1.392
 5710TIP3   OH241324   3.435   1.223   0.435
 5710TIP3    H141325   3.398   1.140   0.463
 5710TIP3    H241326   3.530   1.208   0.433
 5711TIP3   OH241327   2.188   1.536   1.246
 5711TIP3    H141328   2.178   1.459   1.301
 5711TIP3    H241329   2.270   1.575   1.274
 5712TIP3   OH241330   2.518   1.341   0.287
 5712TIP3    H141331   2.553   1.295   0.364
 5712TIP3    H241332   2.558   1.427   0.290
 5713TIP3   OH241333   2.209   1.067   0.312
 5713TIP3    H141334   2.160   1.123   0.372
 5713TIP3    H241335   2.247   1.128   0.248
 5714TIP3   OH241336   2.975   0.366   1.342
 5714TIP3    H141337   3.053   0.386   1.393
 5714TIP3    H241338   2.935   0.292   1.388
 5715TIP3   OH241339   3.149   0.298   0.492
 5715TIP3    H141340   3.128   0.341   0.409
 5715TIP3    H241341   3.184   0.369   0.547
 5716TIP3   OH241342   2.892   1.517   0.289
 5716TIP3    H141343   2.799   1.536   0.294
 5716TIP3    H241344   2.925   1.532   0.378
 5717TIP3   OH241345   2.759   0.574   0.502
 5717TIP3    H141346   2.845   0.616   0.498
 5717TIP3    H241347   2.759   0.527   0.586
 5718TIP3   OH241348   2.900   0.633   1.376
 5718TIP3    H141349   2.901   0.652   1.470
 5718TIP3    H241350   2.921   0.540   1.370
 5719TIP3   OH241351   2.866   0.260   0.521
 5719TIP3    H141352   2.846   0.319   0.594
 5719TIP3    H241353   2.961   0.256   0.518
 5720TIP3   OH241354   2.630   1.596   0.314
 5720TIP3    H141355   2.618   1.669   0.254
 5720TIP3    H241356   2.598   1.629   0.399
 5721TIP3   OH241357   2.458   0.364   0.405
 5721TIP3    H141358   2.459   0.460   0.414
 5721TIP3    H241359   2.545   0.343   0.369
 5722TIP3   OH241360   3.430   0.382   1.520
 5722TIP3    H141361   3.345   0.401   1.481
 5722TIP3    H241362   3.456   0.298   1.484
 5723TIP3   OH241363   3.370   0.807   0.963
 5723TIP3    H141364   3.283   0.772   0.983
 5723TIP3    H241365   3.431   0.741   0.999
 5724TIP3   OH241366   2.291   1.277   0.149
 5724TIP3    H141367   2.371   1.301   0.197
 5724TIP3    H241368   2.317   1.281   0.057
 5725TIP3   OH241369   2.069   0.614   0.084
 5725TIP3    H141370   2.091   0.702   0.113
 5725TIP3    H241371   2.000   0.626   0.019
 5726TIP3   OH241372   3.453   1.777   1.068
 5726TIP3    H141373   3.443   1.867   1.037
 5726TIP3    H241374   3.547   1.768   1.088
 5727TIP3   OH241375   2.182   0.172   0.927
 5727TIP3    H141376   2.167   0.166   0.833
 5727TIP3    H241377   2.173   0.082   0.959
 5728TIP3   OH241378   2.110   1.502   0.603
 5728TIP3    H141379   2.065   1.520   0.685
 5728TIP3    H241380   2.069   1.562   0.540
 5729TIP3   OH241381   2.051   1.823   1.834
 5729TIP3    H141382   2.112   1.810   1.906
 5729TIP3    H241383   2.061   1.744   1.780
 5730TIP3   OH241384   2.464   1.578   1.873
 5730TIP3    H141385   2.548   1.535   1.887
 5730TIP3    H241386   2.444   1.562   1.781
 5731TIP3   OH241387   2.989   1.620   0.049
 5731TIP3    H141388   2.952   1.571   0.122
 5731TIP3    H241389   3.083   1.615   0.062
 5732TIP3   OH241390   3.127   1.492   1.788
 5732TIP3    H141391   3.124   1.404   1.825
 5732TIP3    H241392   3.193   1.538   1.841
 5733TIP3   OH241393   3.258   1.621   0.108
 5733TIP3    H141394   3.276   1.540   0.158
 5733TIP3    H241395   3.340   1.640   0.064
 5734TIP3   OH241396   2.048   1.168   1.790
 5734TIP3    H141397   2.032   1.080   1.822
 5734TIP3    H241398   1.981   1.182   1.723
 5735TIP3   OH241399   2.575   1.090  -0.002
 5735TIP3    H141400   2.576   1.079   0.093
 5735TIP3    H241401   2.654   1.140  -0.021
 5736TIP3   OH241402   2.740   1.197   1.720
 5736TIP3    H141403   2.690   1.231   1.645
 5736TIP3    H241404   2.762   1.108   1.695
 5737TIP3   OH241405   3.305   1.230   1.592
 5737TIP3    H141406   3.385   1.260   1.549
 5737TIP3    H241407   3.237   1.286   1.556
 5738TIP3   OH241408   2.154   0.844   1.700
 5738TIP3    H141409   2.229   0.785   1.690
 5738TIP3    H241410   2.145   0.855   1.795
 5739TIP3   OH241411   2.605   0.990   0.253
 5739TIP3    H141412   2.542   0.966   0.321
 5739TIP3    H241413   2.644   0.907   0.227
 5740TIP3   OH241414   2.557   0.808   1.448
 5740TIP3    H141415   2.483   0.869   1.454
 5740TIP3    H241416   2.630   0.863   1.420
 5741TIP3   OH241417   2.756   0.796   0.122
 5741TIP3    H141418   2.766   0.855   0.048
 5741TIP3    H241419   2.845   0.765   0.140
 5742TIP3   OH241420   3.089   1.027   1.762
 5742TIP3    H141421   3.174   0.995   1.733
 5742TIP3    H241422   3.056   0.959   1.821
 5743TIP3   OH241423   3.586   1.058   0.068
 5743TIP3    H141424   3.662   1.052   0.010
 5743TIP3    H241425   3.561   1.151   0.066
 5744TIP3   OH241426   2.574   0.553   1.545
 5744TIP3    H141427   2.588   0.494   1.471
 5744TIP3    H241428   2.578   0.641   1.507
 5745TIP3   OH241429   2.604   0.401   1.313
 5745TIP3    H141430   2.658   0.445   1.247
 5745TIP3    H241431   2.516   0.402   1.277
 5746TIP3   OH241432   2.760   0.973   1.354
 5746TIP3    H141433   2.831   0.950   1.294
 5746TIP3    H241434   2.704   1.033   1.305
 5747TIP3   OH241435   3.173   0.642   1.796
 5747TIP3    H141436   3.165   0.554   1.831
 5747TIP3    H241437   3.264   0.649   1.768
 5748TIP3   OH241438   3.351   0.973   1.664
 5748TIP3    H141439   3.336   1.064   1.640
 5748TIP3    H241440   3.446   0.963   1.664
 5749TIP3   OH241441   2.348   0.647   1.674
 5749TIP3    H141442   2.294   0.572   1.699
 5749TIP3    H241443   2.428   0.608   1.637
 5750TIP3   OH241444   2.636   0.126   1.272
 5750TIP3    H141445   2.627   0.212   1.314
 5750TIP3    H241446   2.594   0.137   1.187
 5751TIP3   OH241447   2.763   0.476   1.731
 5751TIP3    H141448   2.717   0.431   1.802
 5751TIP3    H241449   2.694   0.499   1.668
 5752TIP3   OH241450   3.019   0.399   1.657
 5752TIP3    H141451   2.927   0.408   1.682
 5752TIP3    H241452   3.064   0.378   1.738
 5753TIP3   OH241453   3.160   0.382   1.891
 5753TIP3    H141454   3.220   0.307   1.895
 5753TIP3    H241455   3.142   0.403   1.983
 5754TIP3   OH241456   2.186   0.438   1.761
 5754TIP3    H141457   2.171   0.373   1.693
 5754TIP3    H241458   2.233   0.390   1.830
 5755TIP3   OH241459   2.667   0.086   1.659
 5755TIP3    H141460   2.666  -0.009   1.646
 5755TIP3    H241461   2.738   0.117   1.602
 5756TIP3   OH241462   2.643   0.110   1.936
 5756TIP3    H141463   2.661   0.089   1.845
 5756TIP3    H241464   2.626   0.204   1.936
 5757TIP3   OH241465   2.628   1.808   0.134
 5757TIP3    H141466   2.717   1.843   0.147
 5757TIP3    H241467   2.579   1.882   0.098
 5758TIP3   OH241468   2.040   1.390   0.173
 5758TIP3    H141469   2.131   1.360   0.167
 5758TIP3    H241470   1.997   1.352   0.097
 5759TIP3   OH241471   1.899   1.824   0.707
 5759TIP3    H141472   1.849   1.791   0.632
 5759TIP3    H241473   1.926   1.745   0.753
 5760TIP3   OH241474   1.999   1.603   0.843
 5760TIP3    H141475   1.962   1.533   0.897
 5760TIP3    H241476   2.051   1.655   0.904
 5761TIP3   OH241477   3.721   1.774   1.131
 5761TIP3    H141478   3.732   1.775   1.226
 5761TIP3    H241479   3.810   1.768   1.096
 5762TIP3   OH241480   3.711   1.714   1.411
 5762TIP3    H141481   3.664   1.641   1.371
 5762TIP3    H241482   3.755   1.675   1.487
 5763TIP3   OH241483   3.587   1.378   1.876
 5763TIP3    H141484   3.507   1.356   1.923
 5763TIP3    H241485   3.559   1.442   1.810
 5764TIP3   OH241486   3.698   1.129   0.463
 5764TIP3    H141487   3.774   1.187   0.460
 5764TIP3    H241488   3.716   1.069   0.535
 5765TIP3   OH241489   3.744   0.935   0.653
 5765TIP3    H141490   3.660   0.908   0.691
 5765TIP3    H241491   3.800   0.951   0.729
 5766TIP3   OH241492   3.748   1.249   1.155
 5766TIP3    H141493   3.780   1.164   1.125
 5766TIP3    H241494   3.811   1.312   1.121
 5767TIP3   OH241495   3.548   1.514   1.323
 5767TIP3    H141496   3.474   1.544   1.376
 5767TIP3    H241497   3.511   1.499   1.236
 5768TIP3   OH241498   3.682   0.920   0.284
 5768TIP3    H141499   3.638   0.959   0.209
 5768TIP3    H241500   3.681   0.988   0.351
 5769TIP3   OH241501   3.463   0.560   0.188
 5769TIP3    H141502   3.472   0.600   0.102
 5769TIP3    H241503   3.477   0.466   0.173
 5770TIP3   OH241504   3.492   0.827   0.713
 5770TIP3    H141505   3.495   0.736   0.685
 5770TIP3    H241506   3.450   0.825   0.799
 5771TIP3   OH241507   1.949   0.926   1.151
 5771TIP3    H141508   1.950   0.973   1.068
 5771TIP3    H241509   2.041   0.902   1.166
 5772TIP3   OH241510   3.633   0.964   1.676
 5772TIP3    H141511   3.649   0.873   1.701
 5772TIP3    H241512   3.703   0.986   1.615
 5773TIP3   OH241513   3.679   0.698   1.711
 5773TIP3    H141514   3.593   0.661   1.693
 5773TIP3    H241515   3.741   0.638   1.669
 5774TIP3   OH241516   3.560   0.333   0.035
 5774TIP3    H141517   3.649   0.312   0.063
 5774TIP3    H241518   3.533   0.257  -0.016
 5775TIP3   OH241519   3.504   0.575   0.591
 5775TIP3    H141520   3.540   0.486   0.592
 5775TIP3    H241521   3.545   0.616   0.515
 5776TIP3   OH241522   3.509   0.593   1.068
 5776TIP3    H141523   3.602   0.605   1.046
 5776TIP3    H241524   3.504   0.608   1.162
 5777TIP3   OH241525   3.511   0.687   1.329
 5777TIP3    H141526   3.430   0.709   1.376
 5777TIP3    H241527   3.555   0.771   1.318
 5778TIP3   OH241528   1.918   0.499   1.660
 5778TIP3    H141529   2.001   0.481   1.704
 5778TIP3    H241530   1.875   0.414   1.653
 5779TIP3   OH241531   3.851   0.148   1.808
 5779TIP3    H141532   3.937   0.132   1.770
 5779TIP3    H241533   3.808   0.207   1.746
 5780TIP3   OH241534   3.590   0.317   0.541
 5780TIP3    H141535   3.603   0.268   0.622
 5780TIP3    H241536   3.523   0.268   0.494
 5781TIP3   OH241537   2.087   0.419   0.985
 5781TIP3    H141538   2.121   0.331   0.969
 5781TIP3    H241539   2.165   0.475   0.989
 5782TIP3   OH241540   1.886   0.668   1.071
 5782TIP3    H141541   1.954   0.666   1.004
 5782TIP3    H241542   1.895   0.754   1.112
 5783TIP3   OH241543   3.687   0.293   1.646
 5783TIP3    H141544   3.621   0.331   1.704
 5783TIP3    H241545   3.636   0.246   1.580
 5784TIP3   OH241546   3.814   0.292   0.124
 5784TIP3    H141547   3.886   0.294   0.062
 5784TIP3    H241548   3.842   0.349   0.196
 5785TIP3   OH241549   1.961   0.257   0.479
 5785TIP3    H141550   1.871   0.273   0.508
 5785TIP3    H241551   1.982   0.332   0.424
 5786TIP3   OH241552   3.383   1.805   0.751
 5786TIP3    H141553   3.434   1.818   0.671
 5786TIP3    H241554   3.440   1.755   0.809
 5787TIP3   OH241555   1.995   0.226   1.371
 5787TIP3    H141556   1.927   0.162   1.391
 5787TIP3    H241557   1.960   0.276   1.298
 5788TIP3   OH241558   2.132   1.572   1.719
 5788TIP3    H141559   2.049   1.544   1.681
 5788TIP3    H241560   2.139   1.523   1.801
 5789TIP3   OH241561   2.442   1.622   1.336
 5789TIP3    H141562   2.427   1.716   1.328
 5789TIP3    H241563   2.537   1.612   1.326
 5790TIP3   OH241564   2.843   1.723   1.604
 5790TIP3    H141565   2.870   1.703   1.694
 5790TIP3    H241566   2.924   1.748   1.560
 5791TIP3   OH241567   3.172   1.996   1.564
 5791TIP3    H141568   3.126   1.925   1.519
 5791TIP3    H241569   3.197   1.960   1.648
 5792TIP3   OH241570   3.561   0.142   1.441
 5792TIP3    H141571   3.548   0.161   1.348
 5792TIP3    H241572   3.539   0.049   1.450
 5793TIP3   OH241573   2.220   2.031   1.415
 5793TIP3    H141574   2.140   1.997   1.375
 5793TIP3    H241575   2.207   2.019   1.509
 5794TIP3   OH241576   2.425   1.892   1.297
 5794TIP3    H141577   2.351   1.941   1.334
 5794TIP3    H241578   2.434   1.926   1.208
 5795TIP3   OH241579   2.905   1.764   1.169
 5795TIP3    H141580   2.963   1.723   1.105
 5795TIP3    H241581   2.857   1.831   1.118
 5796TIP3   OH241582   3.049   1.801   1.402
 5796TIP3    H141583   2.995   1.775   1.327
 5796TIP3    H241584   3.138   1.803   1.367
 5797TIP3   OH241585   3.309   1.818   1.304
 5797TIP3    H141586   3.348   1.905   1.317
 5797TIP3    H241587   3.343   1.788   1.220
 5798TIP3   OH241588   2.162   1.727   1.036
 5798TIP3    H141589   2.155   1.673   1.115
 5798TIP3    H241590   2.242   1.696   0.993
 5799TIP3   OH241591   2.381   1.632   0.907
 5799TIP3    H141592   2.376   1.536   0.901
 5799TIP3    H241593   2.467   1.648   0.945
 5800TIP3   OH241594   2.632   1.635   1.021
 5800TIP3    H141595   2.653   1.549   0.985
 5800TIP3    H241596   2.648   1.626   1.115
 5801TIP3   OH241597   2.929   0.284   0.913
 5801TIP3    H141598   2.866   0.215   0.933
 5801TIP3    H241599   2.992   0.243   0.854
 5802TIP3   OH241600   3.442   0.161   0.924
 5802TIP3    H141601   3.519   0.176   0.870
 5802TIP3    H241602   3.395   0.245   0.922
 5803TIP3   OH241603   3.671   0.207   0.780
 5803TIP3    H141604   3.745   0.147   0.785
 5803TIP3    H241605   3.710   0.294   0.786
 5804TIP3   OH241606   2.124   0.129   0.663
 5804TIP3    H141607   2.063   0.161   0.596
 5804TIP3    H241608   2.124   0.034   0.651
 5805TIP3   OH241609   2.112   0.073   0.332
 5805TIP3    H141610   2.177   0.126   0.286
 5805TIP3    H241611   2.057   0.138   0.377
 5806TIP3   OH241612   2.713   0.067   0.652
 5806TIP3    H141613   2.764   0.126   0.596
 5806TIP3    H241614   2.731   0.097   0.741
 5807TIP3   OH241615   3.086   0.160   0.732
 5807TIP3    H141616   3.126   0.189   0.650
 5807TIP3    H241617   3.107   0.067   0.736
 5808TIP3   OH241618   3.396   0.183   0.406
 5808TIP3    H141619   3.308   0.215   0.426
 5808TIP3    H241620   3.387   0.087   0.407
 5809TIP3   OH241621   2.001   1.689   0.440
 5809TIP3    H141622   1.906   1.698   0.451
 5809TIP3    H241623   2.031   1.777   0.416
 5810TIP3   OH241624   2.290   0.247   0.219
 5810TIP3    H141625   2.328   0.293   0.144
 5810TIP3    H241626   2.342   0.278   0.294
 5811TIP3   OH241627   2.726   0.377   0.310
 5811TIP3    H141628   2.773   0.307   0.357
 5811TIP3    H241629   2.740   0.455   0.363
 5812TIP3   OH241630   2.904   1.856   0.168
 5812TIP3    H141631   2.989   1.900   0.160
 5812TIP3    H241632   2.914   1.774   0.119
 5813TIP3   OH241633   3.573   1.811   0.536
 5813TIP3    H141634   3.535   1.734   0.494
 5813TIP3    H241635   3.595   1.869   0.463
 5814TIP3   OH241636   2.140   0.214   1.614
 5814TIP3    H141637   2.110   0.199   1.524
 5814TIP3    H241638   2.226   0.171   1.618
 5815TIP3   OH241639   2.389   0.110   1.676
 5815TIP3    H141640   2.483   0.122   1.666
 5815TIP3    H241641   2.375   0.016   1.671
 5816TIP3   OH241642   2.059   1.724   0.151
 5816TIP3    H141643   2.071   1.795   0.215
 5816TIP3    H241644   2.067   1.644   0.203
 5817TIP3   OH241645   3.340   0.168   1.896
 5817TIP3    H141646   3.296   0.093   1.856
 5817TIP3    H241647   3.397   0.129   1.963
 5818TIP3   OH241648   3.498   1.601   1.724
 5818TIP3    H141649   3.449   1.593   1.641
 5818TIP3    H241650   3.505   1.695   1.738
 5819TIP3   OH241651   4.988   1.038   0.636
 5819TIP3    H141652   4.959   1.129   0.632
 5819TIP3    H241653   4.926   0.990   0.582
 5820TIP3   OH241654   4.858   0.969   1.047
 5820TIP3    H141655   4.892   0.919   1.121
 5820TIP3    H241656   4.812   0.905   0.993
 5821TIP3   OH241657   4.053   0.912   1.239
 5821TIP3    H141658   4.073   0.823   1.268
 5821TIP3    H241659   4.111   0.968   1.291
 5822TIP3   OH241660   5.277   1.279   0.916
 5822TIP3    H141661   5.217   1.212   0.948
 5822TIP3    H241662   5.270   1.350   0.980
 5823TIP3   OH241663   4.219   1.349   0.967
 5823TIP3    H141664   4.196   1.264   0.929
 5823TIP3    H241665   4.313   1.346   0.979
 5824TIP3   OH241666   3.824   0.671   0.598
 5824TIP3    H141667   3.807   0.764   0.617
 5824TIP3    H241668   3.770   0.652   0.522
 5825TIP3   OH241669   3.937   0.963   0.849
 5825TIP3    H141670   3.970   0.876   0.874
 5825TIP3    H241671   4.015   1.018   0.845
 5826TIP3   OH241672   4.966   1.712   0.916
 5826TIP3    H141673   4.998   1.671   0.836
 5826TIP3    H241674   4.955   1.640   0.978
 5827TIP3   OH241675   4.710   1.216   1.057
 5827TIP3    H141676   4.748   1.132   1.030
 5827TIP3    H241677   4.777   1.255   1.113
 5828TIP3   OH241678   5.664   0.347   1.155
 5828TIP3    H141679   5.641   0.425   1.205
 5828TIP3    H241680   5.727   0.378   1.090
 5829TIP3   OH241681   5.028   0.641   1.018
 5829TIP3    H141682   5.043   0.548   1.034
 5829TIP3    H241683   4.987   0.644   0.932
 5830TIP3   OH241684   4.383   0.454   0.799
 5830TIP3    H141685   4.382   0.542   0.761
 5830TIP3    H241686   4.326   0.402   0.742
 5831TIP3   OH241687   5.142   0.489   0.649
 5831TIP3    H141688   5.186   0.472   0.732
 5831TIP3    H241689   5.205   0.539   0.597
 5832TIP3   OH241690   4.024   0.713   0.924
 5832TIP3    H141691   4.094   0.678   0.979
 5832TIP3    H241692   4.039   0.674   0.838
 5833TIP3   OH241693   4.503   0.871   0.823
 5833TIP3    H141694   4.584   0.830   0.855
 5833TIP3    H241695   4.456   0.801   0.779
 5834TIP3   OH241696   5.566   0.530   1.333
 5834TIP3    H141697   5.522   0.613   1.314
 5834TIP3    H241698   5.503   0.481   1.385
 5835TIP3   OH241699   4.252   0.366   1.236
 5835TIP3    H141700   4.225   0.429   1.169
 5835TIP3    H241701   4.179   0.366   1.299
 5836TIP3   OH241702   4.891   1.279   0.548
 5836TIP3    H141703   4.918   1.279   0.457
 5836TIP3    H241704   4.867   1.369   0.567
 5837TIP3   OH241705   4.468   1.151   1.176
 5837TIP3    H141706   4.424   1.225   1.217
 5837TIP3    H241707   4.546   1.188   1.136
 5838TIP3   OH241708   5.276   0.474   0.883
 5838TIP3    H141709   5.215   0.444   0.951
 5838TIP3    H241710   5.343   0.523   0.931
 5839TIP3   OH241711   4.229   0.535   1.014
 5839TIP3    H141712   4.283   0.596   1.064
 5839TIP3    H241713   4.287   0.501   0.946
 5840TIP3   OH241714   4.353   1.366   1.310
 5840TIP3    H141715   4.366   1.459   1.323
 5840TIP3    H241716   4.265   1.348   1.343
 5841TIP3   OH241717   3.920   1.294   0.436
 5841TIP3    H141718   3.905   1.334   0.350
 5841TIP3    H241719   3.948   1.366   0.492
 5842TIP3   OH241720   5.243   1.500   1.090
 5842TIP3    H141721   5.148   1.508   1.084
 5842TIP3    H241722   5.277   1.585   1.062
 5843TIP3   OH241723   5.410   0.242   1.223
 5843TIP3    H141724   5.361   0.211   1.147
 5843TIP3    H241725   5.492   0.276   1.187
 5844TIP3   OH241726   4.600   0.110   0.946
 5844TIP3    H141727   4.595   0.016   0.963
 5844TIP3    H241728   4.519   0.146   0.982
 5845TIP3   OH241729   5.090   1.609   0.686
 5845TIP3    H141730   5.131   1.523   0.679
 5845TIP3    H241731   5.162   1.670   0.702
 5846TIP3   OH241732   5.229   1.380   0.665
 5846TIP3    H141733   5.272   1.327   0.598
 5846TIP3    H241734   5.253   1.339   0.748
 5847TIP3   OH241735   5.359   1.222   1.448
 5847TIP3    H141736   5.356   1.179   1.363
 5847TIP3    H241737   5.364   1.315   1.428
 5848TIP3   OH241738   4.848   0.946   0.409
 5848TIP3    H141739   4.791   1.013   0.372
 5848TIP3    H241740   4.929   0.953   0.358
 5849TIP3   OH241741   4.930   0.821   0.093
 5849TIP3    H141742   5.000   0.861   0.145
 5849TIP3    H241743   4.976   0.762   0.033
 5850TIP3   OH241744   5.556   0.964   1.278
 5850TIP3    H141745   5.483   1.023   1.258
 5850TIP3    H241746   5.617   0.976   1.204
 5851TIP3   OH241747   5.237   1.009   0.528
 5851TIP3    H141748   5.156   1.019   0.578
 5851TIP3    H241749   5.292   0.954   0.583
 5852TIP3   OH241750   5.161   0.807   1.429
 5852TIP3    H141751   5.154   0.894   1.469
 5852TIP3    H241752   5.093   0.806   1.361
 5853TIP3   OH241753   4.388   1.065   0.662
 5853TIP3    H141754   4.355   1.014   0.588
 5853TIP3    H241755   4.439   1.003   0.714
 5854TIP3   OH241756   4.503   1.378   0.944
 5854TIP3    H141757   4.511   1.392   0.850
 5854TIP3    H241758   4.579   1.324   0.966
 5855TIP3   OH241759   4.344   0.950   1.035
 5855TIP3    H141760   4.410   0.928   0.969
 5855TIP3    H241761   4.385   1.020   1.087
 5856TIP3   OH241762   4.970   1.511   1.108
 5856TIP3    H141763   4.962   1.575   1.179
 5856TIP3    H241764   4.947   1.428   1.149
 5857TIP3   OH241765   4.544   1.339   1.512
 5857TIP3    H141766   4.493   1.395   1.570
 5857TIP3    H241767   4.488   1.328   1.435
 5858TIP3   OH241768   5.103   0.931   0.298
 5858TIP3    H141769   5.157   0.964   0.370
 5858TIP3    H241770   5.146   0.963   0.219
 5859TIP3   OH241771   4.210   1.044   1.430
 5859TIP3    H141772   4.241   1.108   1.495
 5859TIP3    H241773   4.180   0.970   1.482
 5860TIP3   OH241774   4.853   1.554   0.552
 5860TIP3    H141775   4.929   1.567   0.608
 5860TIP3    H241776   4.823   1.642   0.530
 5861TIP3   OH241777   4.388   1.516   1.647
 5861TIP3    H141778   4.386   1.573   1.570
 5861TIP3    H241779   4.299   1.519   1.681
 5862TIP3   OH241780   5.505   0.102   0.263
 5862TIP3    H141781   5.435   0.145   0.312
 5862TIP3    H241782   5.556   0.175   0.226
 5863TIP3   OH241783   4.290   0.935   0.437
 5863TIP3    H141784   4.212   0.980   0.405
 5863TIP3    H241785   4.270   0.842   0.427
 5864TIP3   OH241786   5.551   1.509   0.166
 5864TIP3    H141787   5.557   1.603   0.145
 5864TIP3    H241788   5.642   1.479   0.168
 5865TIP3   OH241789   3.894   1.209   1.398
 5865TIP3    H141790   3.840   1.215   1.319
 5865TIP3    H241791   3.889   1.118   1.424
 5866TIP3   OH241792   3.963   1.411   1.076
 5866TIP3    H141793   4.048   1.380   1.043
 5866TIP3    H241794   3.985   1.464   1.153
 5867TIP3   OH241795   5.631   1.454   1.656
 5867TIP3    H141796   5.621   1.362   1.632
 5867TIP3    H241797   5.561   1.471   1.719
 5868TIP3   OH241798   4.775   1.489   1.477
 5868TIP3    H141799   4.770   1.567   1.533
 5868TIP3    H241800   4.695   1.440   1.497
 5869TIP3   OH241801   4.807   1.800   0.444
 5869TIP3    H141802   4.790   1.821   0.352
 5869TIP3    H241803   4.783   1.880   0.492
 5870TIP3   OH241804   4.166   1.710   0.682
 5870TIP3    H141805   4.186   1.681   0.771
 5870TIP3    H241806   4.110   1.641   0.646
 5871TIP3   OH241807   5.079   1.856   0.191
 5871TIP3    H141808   5.111   1.782   0.141
 5871TIP3    H241809   5.096   1.834   0.282
 5872TIP3   OH241810   5.083   1.777   0.456
 5872TIP3    H141811   4.987   1.779   0.453
 5872TIP3    H241812   5.103   1.711   0.522
 5873TIP3   OH241813   5.350   0.660   1.580
 5873TIP3    H141814   5.281   0.709   1.536
 5873TIP3    H241815   5.348   0.573   1.539
 5874TIP3   OH241816   4.112   1.362   1.461
 5874TIP3    H141817   4.158   1.309   1.526
 5874TIP3    H241818   4.040   1.307   1.432
 5875TIP3   OH241819   4.350   0.188   1.049
 5875TIP3    H141820   4.281   0.198   0.984
 5875TIP3    H241821   4.327   0.250   1.118
 5876TIP3   OH241822   4.804   0.170   1.361
 5876TIP3    H141823   4.834   0.080   1.372
 5876TIP3    H241824   4.709   0.165   1.375
 5877TIP3   OH241825   5.068   0.511   1.481
 5877TIP3    H141826   5.024   0.481   1.560
 5877TIP3    H241827   5.074   0.606   1.492
 5878TIP3   OH241828   5.201   0.980   0.051
 5878TIP3    H141829   5.174   0.994  -0.040
 5878TIP3    H241830   5.295   0.995   0.051
 5879TIP3   OH241831   4.762   0.426   0.107
 5879TIP3    H141832   4.691   0.397   0.164
 5879TIP3    H241833   4.758   0.367   0.031
 5880TIP3   OH241834   4.349   0.712   1.181
 5880TIP3    H141835   4.277   0.703   1.244
 5880TIP3    H241836   4.339   0.801   1.147
 5881TIP3   OH241837   4.340   0.698   0.680
 5881TIP3    H141838   4.246   0.683   0.688
 5881TIP3    H241839   4.357   0.691   0.587
 5882TIP3   OH241840   4.874   0.691   0.501
 5882TIP3    H141841   4.858   0.781   0.473
 5882TIP3    H241842   4.954   0.666   0.455
 5883TIP3   OH241843   4.810   0.707   1.671
 5883TIP3    H141844   4.762   0.635   1.712
 5883TIP3    H241845   4.893   0.712   1.718
 5884TIP3   OH241846   4.921   0.618   0.766
 5884TIP3    H141847   4.888   0.659   0.686
 5884TIP3    H241848   4.991   0.561   0.737
 5885TIP3   OH241849   4.123   0.656   1.333
 5885TIP3    H141850   4.122   0.693   1.421
 5885TIP3    H241851   4.082   0.570   1.342
 5886TIP3   OH241852   4.312   0.348   0.061
 5886TIP3    H141853   4.331   0.378   0.150
 5886TIP3    H241854   4.291   0.429   0.013
 5887TIP3   OH241855   3.789   0.450   0.780
 5887TIP3    H141856   3.853   0.459   0.851
 5887TIP3    H241857   3.798   0.531   0.730
 5888TIP3   OH241858   3.869   0.485   0.314
 5888TIP3    H141859   3.913   0.538   0.248
 5888TIP3    H241860   3.794   0.538   0.342
 5889TIP3   OH241861   4.956   0.790   1.239
 5889TIP3    H141862   4.983   0.733   1.167
 5889TIP3    H241863   4.894   0.737   1.289
 5890TIP3   OH241864   4.656   0.422   0.738
 5890TIP3    H141865   4.568   0.421   0.777
 5890TIP3    H241866   4.714   0.395   0.809
 5891TIP3   OH241867   4.081   0.604   0.678
 5891TIP3    H141868   3.996   0.618   0.636
 5891TIP3    H241869   4.107   0.516   0.650
 5892TIP3   OH241870   4.384   0.654   0.410
 5892TIP3    H141871   4.473   0.634   0.439
 5892TIP3    H241872   4.390   0.660   0.315
 5893TIP3   OH241873   5.065   0.365   1.026
 5893TIP3    H141874   5.056   0.344   1.119
 5893TIP3    H241875   4.982   0.337   0.987
 5894TIP3   OH241876   4.422   0.656   0.141
 5894TIP3    H141877   4.384   0.692   0.061
 5894TIP3    H241878   4.511   0.689   0.143
 5895TIP3   OH241879   5.400   1.921   1.874
 5895TIP3    H141880   5.407   1.862   1.799
 5895TIP3    H241881   5.490   1.950   1.890
 5896TIP3   OH241882   4.232   1.208   1.661
 5896TIP3    H141883   4.296   1.231   1.728
 5896TIP3    H241884   4.172   1.147   1.705
 5897TIP3   OH241885   4.722   0.742   0.937
 5897TIP3    H141886   4.779   0.685   0.887
 5897TIP3    H241887   4.693   0.688   1.011
 5898TIP3   OH241888   4.203   0.362   0.607
 5898TIP3    H141889   4.150   0.283   0.618
 5898TIP3    H241890   4.240   0.354   0.519
 5899TIP3   OH241891   4.615   0.629   1.176
 5899TIP3    H141892   4.530   0.671   1.186
 5899TIP3    H241893   4.663   0.651   1.256
 5900TIP3   OH241894   4.684   1.147   0.298
 5900TIP3    H141895   4.610   1.100   0.261
 5900TIP3    H241896   4.648   1.194   0.373
 5901TIP3   OH241897   5.349   1.125   1.194
 5901TIP3    H141898   5.409   1.183   1.147
 5901TIP3    H241899   5.279   1.106   1.132
 5902TIP3   OH241900   4.991   0.415   0.261
 5902TIP3    H141901   4.907   0.428   0.215
 5902TIP3    H241902   5.019   0.503   0.284
 5903TIP3   OH241903   4.920   1.251   1.506
 5903TIP3    H141904   4.873   1.218   1.582
 5903TIP3    H241905   4.890   1.341   1.496
 5904TIP3   OH241906   5.102   0.656   0.335
 5904TIP3    H141907   5.185   0.628   0.298
 5904TIP3    H241908   5.102   0.752   0.325
 5905TIP3   OH241909   4.186   1.093   0.858
 5905TIP3    H141910   4.248   1.091   0.785
 5905TIP3    H241911   4.226   1.038   0.926
 5906TIP3   OH241912   4.921   1.289   0.269
 5906TIP3    H141913   4.876   1.372   0.261
 5906TIP3    H241914   4.852   1.223   0.266
 5907TIP3   OH241915   3.853   0.955   1.499
 5907TIP3    H141916   3.926   0.903   1.533
 5907TIP3    H241917   3.812   0.899   1.434
 5908TIP3   OH241918   4.621   0.908   1.683
 5908TIP3    H141919   4.552   0.867   1.631
 5908TIP3    H241920   4.694   0.847   1.677
 5909TIP3   OH241921   5.188   1.499   1.587
 5909TIP3    H141922   5.115   1.502   1.649
 5909TIP3    H241923   5.262   1.466   1.639
 5910TIP3   OH241924   5.544   0.666   0.348
 5910TIP3    H141925   5.472   0.637   0.292
 5910TIP3    H241926   5.553   0.760   0.329
 5911TIP3   OH241927   5.578   1.181   1.608
 5911TIP3    H141928   5.493   1.191   1.566
 5911TIP3    H241929   5.641   1.180   1.536
 5912TIP3   OH241930   5.427   1.524   0.413
 5912TIP3    H141931   5.387   1.441   0.436
 5912TIP3    H241932   5.462   1.511   0.325
 5913TIP3   OH241933   5.133   1.060   1.022
 5913TIP3    H141934   5.040   1.045   1.009
 5913TIP3    H241935   5.176   0.981   0.988
 5914TIP3   OH241936   4.464   1.463   0.677
 5914TIP3    H141937   4.475   1.552   0.645
 5914TIP3    H241938   4.372   1.443   0.662
 5915TIP3   OH241939   3.936   0.926   0.168
 5915TIP3    H141940   3.993   0.978   0.223
 5915TIP3    H241941   3.854   0.919   0.217
 5916TIP3   OH241942   4.524   1.252   0.502
 5916TIP3    H141943   4.536   1.325   0.562
 5916TIP3    H241944   4.481   1.184   0.555
 5917TIP3   OH241945   4.655   1.638   1.268
 5917TIP3    H141946   4.700   1.722   1.260
 5917TIP3    H241947   4.714   1.583   1.320
 5918TIP3   OH241948   4.421   1.724   0.573
 5918TIP3    H141949   4.328   1.724   0.598
 5918TIP3    H241950   4.453   1.809   0.602
 5919TIP3   OH241951   4.932   1.261   1.224
 5919TIP3    H141952   4.927   1.252   1.319
 5919TIP3    H241953   4.993   1.193   1.197
 5920TIP3   OH241954   5.190   1.351   0.223
 5920TIP3    H141955   5.233   1.320   0.303
 5920TIP3    H241956   5.099   1.324   0.233
 5921TIP3   OH241957   5.193   1.773   1.537
 5921TIP3    H141958   5.175   1.679   1.535
 5921TIP3    H241959   5.202   1.797   1.445
 5922TIP3   OH241960   5.564   1.786   0.134
 5922TIP3    H141961   5.649   1.829   0.149
 5922TIP3    H241962   5.505   1.831   0.194
 5923TIP3   OH241963   4.026   0.392   1.394
 5923TIP3    H141964   3.984   0.434   1.470
 5923TIP3    H241965   3.975   0.312   1.380
 5924TIP3   OH241966   5.344   1.246   0.441
 5924TIP3    H141967   5.297   1.167   0.466
 5924TIP3    H241968   5.436   1.221   0.442
 5925TIP3   OH241969   4.044   1.584   1.290
 5925TIP3    H141970   4.069   1.516   1.352
 5925TIP3    H241971   4.058   1.666   1.338
 5926TIP3   OH241972   4.375   1.379   0.300
 5926TIP3    H141973   4.424   1.324   0.361
 5926TIP3    H241974   4.421   1.463   0.300
 5927TIP3   OH241975   4.085   1.094   0.328
 5927TIP3    H141976   4.031   1.147   0.386
 5927TIP3    H241977   4.121   1.156   0.265
 5928TIP3   OH241978   5.019   0.323   1.287
 5928TIP3    H141979   5.032   0.384   1.359
 5928TIP3    H241980   4.944   0.269   1.315
 5929TIP3   OH241981   5.038   0.282   0.499
 5929TIP3    H141982   5.022   0.319   0.412
 5929TIP3    H241983   5.071   0.356   0.550
 5930TIP3   OH241984   4.767   1.515   0.288
 5930TIP3    H141985   4.676   1.543   0.291
 5930TIP3    H241986   4.799   1.527   0.377
 5931TIP3   OH241987   4.628   0.573   0.507
 5931TIP3    H141988   4.712   0.618   0.500
 5931TIP3    H241989   4.633   0.525   0.590
 5932TIP3   OH241990   4.786   0.642   1.401
 5932TIP3    H141991   4.786   0.677   1.490
 5932TIP3    H241992   4.808   0.549   1.411
 5933TIP3   OH241993   4.752   0.258   0.534
 5933TIP3    H141994   4.735   0.320   0.604
 5933TIP3    H241995   4.848   0.253   0.529
 5934TIP3   OH241996   4.511   1.622   0.327
 5934TIP3    H141997   4.507   1.697   0.267
 5934TIP3    H241998   4.483   1.657   0.411
 5935TIP3   OH241999   4.325   0.383   0.352
 5935TIP3    H142000   4.326   0.477   0.373
 5935TIP3    H242001   4.417   0.359   0.345
 5936TIP3   OH242002   5.329   0.420   1.431
 5936TIP3    H142003   5.234   0.433   1.442
 5936TIP3    H242004   5.336   0.358   1.359
 5937TIP3   OH242005   5.240   0.811   0.946
 5937TIP3    H142006   5.165   0.757   0.968
 5937TIP3    H242007   5.316   0.760   0.975
 5938TIP3   OH242008   4.152   1.306   0.157
 5938TIP3    H142009   4.229   1.334   0.208
 5938TIP3    H242010   4.180   1.315   0.066
 5939TIP3   OH242011   3.938   0.655   0.112
 5939TIP3    H142012   3.958   0.746   0.133
 5939TIP3    H242013   3.877   0.660   0.038
 5940TIP3   OH242014   5.347   1.762   1.051
 5940TIP3    H142015   5.345   1.830   0.984
 5940TIP3    H242016   5.440   1.754   1.074
 5941TIP3   OH242017   4.116   0.177   0.900
 5941TIP3    H142018   4.097   0.174   0.806
 5941TIP3    H242019   4.094   0.089   0.932
 5942TIP3   OH242020   3.973   1.526   0.593
 5942TIP3    H142021   3.927   1.533   0.676
 5942TIP3    H242022   3.928   1.588   0.535
 5943TIP3   OH242023   3.926   1.806   1.735
 5943TIP3    H142024   3.984   1.769   1.802
 5943TIP3    H242025   3.881   1.730   1.699
 5944TIP3   OH242026   4.884   1.616   0.054
 5944TIP3    H142027   4.846   1.569   0.128
 5944TIP3    H242028   4.979   1.608   0.066
 5945TIP3   OH242029   5.082   1.519   1.846
 5945TIP3    H142030   5.045   1.441   1.887
 5945TIP3    H242031   5.177   1.510   1.858
 5946TIP3   OH242032   5.159   1.605   0.091
 5946TIP3    H142033   5.182   1.524   0.136
 5946TIP3    H242034   5.234   1.622   0.033
 5947TIP3   OH242035   3.960   1.298   1.825
 5947TIP3    H142036   3.990   1.207   1.819
 5947TIP3    H242037   3.882   1.301   1.769
 5948TIP3   OH242038   4.391   1.055   9.972
 5948TIP3    H142039   4.395   1.044  10.067
 5948TIP3    H242040   4.470   1.104   9.951
 5949TIP3   OH242041   4.624   1.179   1.717
 5949TIP3    H142042   4.597   1.217   1.633
 5949TIP3    H242043   4.626   1.085   1.702
 5950TIP3   OH242044   5.141   1.069   1.532
 5950TIP3    H142045   5.218   1.123   1.514
 5950TIP3    H242046   5.067   1.129   1.524
 5951TIP3   OH242047   4.057   1.040   1.796
 5951TIP3    H142048   4.072   0.966   1.738
 5951TIP3    H242049   4.034   1.001   1.880
 5952TIP3   OH242050   4.465   0.994   0.231
 5952TIP3    H142051   4.411   0.976   0.308
 5952TIP3    H242052   4.519   0.915   0.221
 5953TIP3   OH242053   4.432   0.785   1.524
 5953TIP3    H142054   4.339   0.803   1.538
 5953TIP3    H242055   4.455   0.835   1.446
 5954TIP3   OH242056   4.650   0.805   0.146
 5954TIP3    H142057   4.660   0.857   0.066
 5954TIP3    H242058   4.740   0.782   0.171
 5955TIP3   OH242059   5.012   1.035   1.953
 5955TIP3    H142060   5.071   0.993   1.890
 5955TIP3    H242061   4.945   0.969   1.971
 5956TIP3   OH242062   5.465   1.051   0.058
 5956TIP3    H142063   5.539   1.040  -0.003
 5956TIP3    H242064   5.444   1.144   0.054
 5957TIP3   OH242065   4.482   0.526   1.587
 5957TIP3    H142066   4.490   0.476   1.505
 5957TIP3    H242067   4.472   0.617   1.558
 5958TIP3   OH242068   4.505   0.412   1.331
 5958TIP3    H142069   4.552   0.467   1.268
 5958TIP3    H242070   4.416   0.406   1.297
 5959TIP3   OH242071   4.545   0.928   1.320
 5959TIP3    H142072   4.639   0.942   1.307
 5959TIP3    H242073   4.504   1.004   1.278
 5960TIP3   OH242074   5.039   0.699   1.833
 5960TIP3    H142075   5.089   0.618   1.846
 5960TIP3    H242076   5.104   0.765   1.811
 5961TIP3   OH242077   5.188   0.925   1.768
 5961TIP3    H142078   5.167   0.972   1.688
 5961TIP3    H242079   5.280   0.946   1.785
 5962TIP3   OH242080   4.298   0.608   1.783
 5962TIP3    H142081   4.247   0.677   1.740
 5962TIP3    H242082   4.358   0.576   1.716
 5963TIP3   OH242083   4.515   0.143   1.393
 5963TIP3    H142084   4.524   0.237   1.378
 5963TIP3    H242085   4.427   0.122   1.362
 5964TIP3   OH242086   4.673   0.495   1.782
 5964TIP3    H142087   4.630   0.472   1.864
 5964TIP3    H242088   4.604   0.493   1.717
 5965TIP3   OH242089   4.936   0.429   1.702
 5965TIP3    H142090   4.847   0.433   1.738
 5965TIP3    H242091   4.991   0.412   1.778
 5966TIP3   OH242092   5.124   0.417   1.916
 5966TIP3    H142093   5.131   0.321   1.915
 5966TIP3    H242094   5.081   0.437   1.999
 5967TIP3   OH242095   4.047   0.471   1.786
 5967TIP3    H142096   4.130   0.517   1.774
 5967TIP3    H242097   4.064   0.410   1.858
 5968TIP3   OH242098   4.501   0.095   1.672
 5968TIP3    H142099   4.504  -0.001   1.672
 5968TIP3    H242100   4.512   0.119   1.580
 5969TIP3   OH242101   4.608   0.195   1.908
 5969TIP3    H142102   4.588   0.167   1.819
 5969TIP3    H242103   4.547   0.266   1.926
 5970TIP3   OH242104   4.523   1.836   0.150
 5970TIP3    H142105   4.616   1.858   0.153
 5970TIP3    H242106   4.480   1.915   0.116
 5971TIP3   OH242107   3.882   1.372   0.164
 5971TIP3    H142108   3.976   1.351   0.156
 5971TIP3    H242109   3.846   1.350   0.078
 5972TIP3   OH242110   3.786   1.808   0.718
 5972TIP3    H142111   3.724   1.792   0.647
 5972TIP3    H242112   3.800   1.722   0.758
 5973TIP3   OH242113   3.870   1.577   0.851
 5973TIP3    H142114   3.861   1.492   0.894
 5973TIP3    H242115   3.908   1.634   0.918
 5974TIP3   OH242116   5.601   1.749   1.165
 5974TIP3    H142117   5.568   1.726   1.252
 5974TIP3    H242118   5.665   1.818   1.180
 5975TIP3   OH242119   5.497   1.696   1.412
 5975TIP3    H142120   5.451   1.616   1.387
 5975TIP3    H242121   5.500   1.692   1.508
 5976TIP3   OH242122   5.597   1.135   0.462
 5976TIP3    H142123   5.673   1.194   0.460
 5976TIP3    H242124   5.617   1.072   0.531
 5977TIP3   OH242125   5.638   0.930   0.645
 5977TIP3    H142126   5.552   0.909   0.682
 5977TIP3    H242127   5.692   0.953   0.721
 5978TIP3   OH242128   5.603   1.252   1.155
 5978TIP3    H142129   5.658   1.189   1.108
 5978TIP3    H242130   5.633   1.337   1.125
 5979TIP3   OH242131   5.336   1.481   1.352
 5979TIP3    H142132   5.259   1.488   1.408
 5979TIP3    H242133   5.301   1.480   1.263
 5980TIP3   OH242134   5.566   0.930   0.281
 5980TIP3    H142135   5.518   0.967   0.207
 5980TIP3    H242136   5.566   0.999   0.347
 5981TIP3   OH242137   5.331   0.587   0.186
 5981TIP3    H142138   5.333   0.636   0.104
 5981TIP3    H242139   5.337   0.495   0.159
 5982TIP3   OH242140   5.377   0.837   0.700
 5982TIP3    H142141   5.377   0.747   0.667
 5982TIP3    H242142   5.327   0.833   0.781
 5983TIP3   OH242143   3.837   0.999   1.103
 5983TIP3    H142144   3.858   0.984   1.011
 5983TIP3    H242145   3.915   0.969   1.150
 5984TIP3   OH242146   5.455   0.999   1.789
 5984TIP3    H142147   5.503   0.922   1.759
 5984TIP3    H242148   5.493   1.072   1.741
 5985TIP3   OH242149   5.573   0.773   1.682
 5985TIP3    H142150   5.493   0.736   1.646
 5985TIP3    H242151   5.638   0.703   1.672
 5986TIP3   OH242152   5.396   0.356   0.035
 5986TIP3    H142153   5.480   0.324   0.069
 5986TIP3    H242154   5.358   0.281  -0.010
 5987TIP3   OH242155   5.389   0.588   0.565
 5987TIP3    H142156   5.420   0.499   0.579
 5987TIP3    H242157   5.439   0.619   0.490
 5988TIP3   OH242158   5.442   0.642   1.030
 5988TIP3    H142159   5.537   0.653   1.020
 5988TIP3    H242160   5.426   0.663   1.122
 5989TIP3   OH242161   5.396   0.742   1.281
 5989TIP3    H142162   5.316   0.763   1.329
 5989TIP3    H242163   5.449   0.822   1.286
 5990TIP3   OH242164   3.854   0.503   1.590
 5990TIP3    H142165   3.920   0.504   1.659
 5990TIP3    H242166   3.799   0.427   1.611
 5991TIP3   OH242167   5.705   0.151   1.816
 5991TIP3    H142168   5.798   0.149   1.793
 5991TIP3    H242169   5.666   0.213   1.755
 5992TIP3   OH242170   5.472   0.317   0.552
 5992TIP3    H142171   5.475   0.289   0.644
 5992TIP3    H242172   5.406   0.261   0.512
 5993TIP3   OH242173   3.985   0.406   0.978
 5993TIP3    H142174   4.022   0.321   0.952
 5993TIP3    H242175   4.061   0.461   0.993
 5994TIP3   OH242176   3.777   0.664   1.058
 5994TIP3    H142177   3.861   0.685   1.016
 5994TIP3    H242178   3.799   0.653   1.150
 5995TIP3   OH242179   5.572   0.336   1.657
 5995TIP3    H142180   5.502   0.368   1.714
 5995TIP3    H242181   5.527   0.281   1.593
 5996TIP3   OH242182   5.644   0.306   0.140
 5996TIP3    H142183   5.716   0.285   0.080
 5996TIP3    H242184   5.681   0.370   0.201
 5997TIP3   OH242185   3.855   0.255   0.471
 5997TIP3    H142186   3.765   0.274   0.496
 5997TIP3    H242187   3.882   0.331   0.418
 5998TIP3   OH242188   5.294   1.786   0.703
 5998TIP3    H142189   5.371   1.782   0.646
 5998TIP3    H242190   5.306   1.865   0.755
 5999TIP3   OH242191   3.832   0.190   1.355
 5999TIP3    H142192   3.748   0.184   1.402
 5999TIP3    H242193   3.810   0.238   1.275
 6000TIP3   OH242194   4.114   1.499   1.707
 6000TIP3    H142195   4.104   1.474   1.615
 6000TIP3    H242196   4.069   1.430   1.756
 6001TIP3   OH242197   4.408   1.626   1.389
 6001TIP3    H142198   4.377   1.715   1.371
 6001TIP3    H242199   4.497   1.625   1.355
 6002TIP3   OH242200   4.761   1.728   1.629
 6002TIP3    H142201   4.780   1.695   1.717
 6002TIP3    H242202   4.830   1.792   1.611
 6003TIP3   OH242203   4.976   1.907   1.648
 6003TIP3    H142204   5.051   1.864   1.607
 6003TIP3    H242205   5.008   1.933   1.734
 6004TIP3   OH242206   5.497   0.141   1.465
 6004TIP3    H142207   5.455   0.173   1.385
 6004TIP3    H242208   5.462   0.053   1.477
 6005TIP3   OH242209   4.073   1.850   1.389
 6005TIP3    H142210   3.994   1.890   1.351
 6005TIP3    H242211   4.085   1.895   1.472
 6006TIP3   OH242212   4.337   1.883   1.322
 6006TIP3    H142213   4.244   1.874   1.344
 6006TIP3    H242214   4.337   1.917   1.232
 6007TIP3   OH242215   4.761   1.895   1.239
 6007TIP3    H142216   4.704   1.949   1.185
 6007TIP3    H242217   4.776   1.946   1.318
 6008TIP3   OH242218   4.976   1.726   1.276
 6008TIP3    H142219   4.906   1.789   1.259
 6008TIP3    H242220   5.056   1.778   1.277
 6009TIP3   OH242221   5.219   1.860   1.273
 6009TIP3    H142222   5.254   1.949   1.266
 6009TIP3    H242223   5.258   1.813   1.200
 6010TIP3   OH242224   4.000   1.727   1.054
 6010TIP3    H142225   4.004   1.684   1.140
 6010TIP3    H242226   4.081   1.699   1.011
 6011TIP3   OH242227   4.228   1.624   0.938
 6011TIP3    H142228   4.218   1.529   0.946
 6011TIP3    H242229   4.314   1.642   0.976
 6012TIP3   OH242230   4.490   1.637   1.042
 6012TIP3    H142231   4.499   1.548   1.008
 6012TIP3    H242232   4.544   1.638   1.122
 6013TIP3   OH242233   4.820   0.282   0.915
 6013TIP3    H142234   4.751   0.221   0.942
 6013TIP3    H242235   4.873   0.231   0.854
 6014TIP3   OH242236   5.286   0.178   0.976
 6014TIP3    H142237   5.348   0.216   0.914
 6014TIP3    H242238   5.209   0.235   0.972
 6015TIP3   OH242239   5.508   0.249   0.819
 6015TIP3    H142240   5.571   0.187   0.856
 6015TIP3    H242241   5.555   0.332   0.816
 6016TIP3   OH242242   4.042   0.142   0.638
 6016TIP3    H142243   3.975   0.170   0.576
 6016TIP3    H242244   4.042   0.046   0.632
 6017TIP3   OH242245   3.957   0.018   0.338
 6017TIP3    H142246   4.025   0.076   0.303
 6017TIP3    H242247   3.890   0.078   0.373
 6018TIP3   OH242248   4.592   0.072   0.666
 6018TIP3    H142249   4.646   0.130   0.611
 6018TIP3    H242250   4.600   0.108   0.754
 6019TIP3   OH242251   4.973   0.147   0.739
 6019TIP3    H142252   5.010   0.176   0.655
 6019TIP3    H242253   4.990   0.053   0.741
 6020TIP3   OH242254   5.283   0.154   0.433
 6020TIP3    H142255   5.196   0.190   0.450
 6020TIP3    H242256   5.269   0.060   0.424
 6021TIP3   OH242257   3.861   1.709   0.424
 6021TIP3    H142258   3.794   1.702   0.356
 6021TIP3    H242259   3.907   1.791   0.403
 6022TIP3   OH242260   4.137   0.205   0.245
 6022TIP3    H142261   4.161   0.222   0.154
 6022TIP3    H242262   4.195   0.261   0.296
 6023TIP3   OH242263   4.599   0.363   0.329
 6023TIP3    H142264   4.647   0.297   0.379
 6023TIP3    H242265   4.613   0.445   0.377
 6024TIP3   OH242266   4.800   1.855   0.168
 6024TIP3    H142267   4.887   1.895   0.171
 6024TIP3    H242268   4.812   1.776   0.115
 6025TIP3   OH242269   5.505   1.766   0.508
 6025TIP3    H142270   5.470   1.680   0.483
 6025TIP3    H242271   5.472   1.826   0.441
 6026TIP3   OH242272   4.082   0.050   1.706
 6026TIP3    H142273   4.111  -0.041   1.714
 6026TIP3    H242274   4.151   0.101   1.748
 6027TIP3   OH242275   4.304   0.102   1.869
 6027TIP3    H142276   4.377   0.120   1.810
 6027TIP3    H242277   4.289   0.008   1.861
 6028TIP3   OH242278   3.981   1.742   0.133
 6028TIP3    H142279   3.996   1.815   0.194
 6028TIP3    H242280   4.018   1.666   0.177
 6029TIP3   OH242281   5.163   0.146   1.916
 6029TIP3    H142282   5.130   0.065   1.876
 6029TIP3    H242283   5.222   0.116   1.986
 6030TIP3   OH242284   5.428   1.732   1.679
 6030TIP3    H142285   5.414   1.652   1.729
 6030TIP3    H242286   5.344   1.748   1.635
 6031TIP3   OH242287   6.908   1.059   0.640
 6031TIP3    H142288   6.890   1.152   0.625
 6031TIP3    H242289   6.846   1.013   0.585
 6032TIP3   OH242290   6.758   0.962   1.054
 6032TIP3    H142291   6.781   0.919   1.137
 6032TIP3    H242292   6.709   0.895   1.006
 6033TIP3   OH242293   5.896   0.838   1.223
 6033TIP3    H142294   5.931   0.752   1.247
 6033TIP3    H242295   5.928   0.897   1.291
 6034TIP3   OH242296   7.166   1.263   0.923
 6034TIP3    H142297   7.108   1.191   0.946
 6034TIP3    H242298   7.154   1.327   0.993
 6035TIP3   OH242299   6.201   1.354   0.873
 6035TIP3    H142300   6.151   1.273   0.870
 6035TIP3    H242301   6.277   1.333   0.927
 6036TIP3   OH242302   5.723   0.670   0.582
 6036TIP3    H142303   5.703   0.761   0.606
 6036TIP3    H242304   5.664   0.651   0.510
 6037TIP3   OH242305   5.841   0.976   0.833
 6037TIP3    H142306   5.874   0.887   0.843
 6037TIP3    H242307   5.919   1.031   0.829
 6038TIP3   OH242308   6.840   1.718   1.024
 6038TIP3    H142309   6.850   1.678   0.938
 6038TIP3    H242310   6.850   1.645   1.085
 6039TIP3   OH242311   6.643   1.214   1.075
 6039TIP3    H142312   6.679   1.129   1.050
 6039TIP3    H242313   6.698   1.244   1.147
 6040TIP3   OH242314   7.366   0.346   1.155
 6040TIP3    H142315   7.374   0.395   1.237
 6040TIP3    H242316   7.408   0.402   1.090
 6041TIP3   OH242317   6.891   0.621   1.075
 6041TIP3    H142318   6.892   0.528   1.098
 6041TIP3    H242319   6.879   0.622   0.980
 6042TIP3   OH242320   6.275   0.456   0.787
 6042TIP3    H142321   6.286   0.538   0.739
 6042TIP3    H242322   6.217   0.403   0.732
 6043TIP3   OH242323   7.038   0.461   0.679
 6043TIP3    H142324   7.069   0.431   0.765
 6043TIP3    H242325   7.112   0.508   0.642
 6044TIP3   OH242326   5.934   0.718   0.864
 6044TIP3    H142327   5.998   0.672   0.918
 6044TIP3    H242328   5.954   0.691   0.774
 6045TIP3   OH242329   6.393   0.846   0.819
 6045TIP3    H142330   6.477   0.814   0.851
 6045TIP3    H242331   6.361   0.777   0.760
 6046TIP3   OH242332   7.417   0.478   1.388
 6046TIP3    H142333   7.378   0.563   1.369
 6046TIP3    H242334   7.488   0.497   1.449
 6047TIP3   OH242335   6.126   0.376   1.232
 6047TIP3    H142336   6.086   0.447   1.181
 6047TIP3    H242337   6.071   0.370   1.311
 6048TIP3   OH242338   6.868   1.308   0.532
 6048TIP3    H142339   6.861   1.291   0.438
 6048TIP3    H242340   6.820   1.391   0.545
 6049TIP3   OH242341   6.382   1.153   1.157
 6049TIP3    H142342   6.337   1.228   1.196
 6049TIP3    H242343   6.466   1.189   1.126
 6050TIP3   OH242344   7.102   0.406   0.941
 6050TIP3    H142345   7.035   0.381   1.004
 6050TIP3    H242346   7.152   0.475   0.984
 6051TIP3   OH242347   6.114   0.549   0.994
 6051TIP3    H142348   6.168   0.602   1.052
 6051TIP3    H242349   6.176   0.511   0.932
 6052TIP3   OH242350   6.241   1.351   1.294
 6052TIP3    H142351   6.247   1.446   1.302
 6052TIP3    H242352   6.150   1.331   1.317
 6053TIP3   OH242353   5.813   1.306   0.429
 6053TIP3    H142354   5.803   1.350   0.344
 6053TIP3    H242355   5.836   1.377   0.490
 6054TIP3   OH242356   7.139   1.467   1.116
 6054TIP3    H142357   7.048   1.485   1.143
 6054TIP3    H242358   7.168   1.549   1.076
 6055TIP3   OH242359   7.179   0.153   1.252
 6055TIP3    H142360   7.095   0.199   1.241
 6055TIP3    H242361   7.241   0.203   1.199
 6056TIP3   OH242362   6.465   0.106   0.940
 6056TIP3    H142363   6.463   0.013   0.962
 6056TIP3    H242364   6.384   0.142   0.976
 6057TIP3   OH242365   6.906   1.626   0.773
 6057TIP3    H142366   6.952   1.542   0.767
 6057TIP3    H242367   6.967   1.690   0.736
 6058TIP3   OH242368   7.053   1.409   0.720
 6058TIP3    H142369   7.016   1.351   0.653
 6058TIP3    H242370   7.106   1.351   0.775
 6059TIP3   OH242371   7.269   1.210   1.428
 6059TIP3    H142372   7.254   1.169   1.342
 6059TIP3    H242373   7.305   1.296   1.407
 6060TIP3   OH242374   6.770   0.958   0.421
 6060TIP3    H142375   6.703   1.011   0.379
 6060TIP3    H242376   6.843   0.956   0.359
 6061TIP3   OH242377   6.800   0.805   0.126
 6061TIP3    H142378   6.873   0.842   0.177
 6061TIP3    H242379   6.841   0.739   0.071
 6062TIP3   OH242380   7.410   0.917   1.234
 6062TIP3    H142381   7.341   0.981   1.219
 6062TIP3    H242382   7.475   0.934   1.166
 6063TIP3   OH242383   7.140   1.013   0.503
 6063TIP3    H142384   7.067   1.033   0.562
 6063TIP3    H242385   7.199   0.959   0.556
 6064TIP3   OH242386   7.031   0.756   1.459
 6064TIP3    H142387   7.026   0.829   1.520
 6064TIP3    H242388   6.967   0.778   1.391
 6065TIP3   OH242389   6.277   1.032   0.648
 6065TIP3    H142390   6.246   0.984   0.571
 6065TIP3    H242391   6.326   0.968   0.699
 6066TIP3   OH242392   6.477   1.397   0.949
 6066TIP3    H142393   6.488   1.395   0.854
 6066TIP3    H242394   6.545   1.338   0.982
 6067TIP3   OH242395   6.248   0.945   1.035
 6067TIP3    H142396   6.307   0.914   0.966
 6067TIP3    H242397   6.298   1.015   1.079
 6068TIP3   OH242398   6.885   1.517   1.220
 6068TIP3    H142399   6.883   1.562   1.305
 6068TIP3    H242400   6.846   1.432   1.237
 6069TIP3   OH242401   6.373   1.329   1.541
 6069TIP3    H142402   6.304   1.380   1.583
 6069TIP3    H242403   6.340   1.312   1.453
 6070TIP3   OH242404   7.014   0.913   0.279
 6070TIP3    H142405   7.061   0.953   0.352
 6070TIP3    H242406   7.064   0.938   0.201
 6071TIP3   OH242407   6.010   0.906   1.493
 6071TIP3    H142408   6.037   0.988   1.535
 6071TIP3    H242409   5.915   0.903   1.505
 6072TIP3   OH242410   6.744   1.561   0.555
 6072TIP3    H142411   6.787   1.576   0.639
 6072TIP3    H242412   6.704   1.646   0.533
 6073TIP3   OH242413   6.169   1.503   1.609
 6073TIP3    H142414   6.185   1.552   1.528
 6073TIP3    H242415   6.074   1.509   1.623
 6074TIP3   OH242416   7.358   0.127   0.233
 6074TIP3    H142417   7.281   0.149   0.286
 6074TIP3    H242418   7.431   0.173   0.276
 6075TIP3   OH242419   6.173   0.926   0.411
 6075TIP3    H142420   6.103   0.987   0.388
 6075TIP3    H242421   6.132   0.840   0.408
 6076TIP3   OH242422   7.568   1.528   0.179
 6076TIP3    H142423   7.560   1.623   0.172
 6076TIP3    H242424   7.625   1.514   0.254
 6077TIP3   OH242425   5.746   1.190   1.390
 6077TIP3    H142426   5.692   1.209   1.313
 6077TIP3    H242427   5.748   1.094   1.394
 6078TIP3   OH242428   5.712   1.503   1.096
 6078TIP3    H142429   5.788   1.513   1.152
 6078TIP3    H242430   5.659   1.581   1.111
 6079TIP3   OH242431   7.564   1.615   1.649
 6079TIP3    H142432   7.584   1.522   1.654
 6079TIP3    H242433   7.475   1.623   1.682
 6080TIP3   OH242434   6.602   1.484   1.532
 6080TIP3    H142435   6.587   1.566   1.579
 6080TIP3    H242436   6.521   1.434   1.544
 6081TIP3   OH242437   6.683   1.812   0.457
 6081TIP3    H142438   6.657   1.833   0.367
 6081TIP3    H242439   6.658   1.889   0.508
 6082TIP3   OH242440   6.074   1.694   0.666
 6082TIP3    H142441   6.101   1.669   0.755
 6082TIP3    H242442   6.013   1.626   0.639
 6083TIP3   OH242443   6.998   1.762   0.156
 6083TIP3    H142444   6.917   1.719   0.129
 6083TIP3    H242445   6.994   1.762   0.252
 6084TIP3   OH242446   6.957   1.777   0.425
 6084TIP3    H142447   6.864   1.777   0.445
 6084TIP3    H242448   7.000   1.760   0.509
 6085TIP3   OH242449   7.146   0.635   1.690
 6085TIP3    H142450   7.122   0.671   1.605
 6085TIP3    H242451   7.179   0.547   1.671
 6086TIP3   OH242452   5.987   1.327   1.409
 6086TIP3    H142453   6.021   1.284   1.488
 6086TIP3    H242454   5.901   1.288   1.396
 6087TIP3   OH242455   6.223   0.187   1.060
 6087TIP3    H142456   6.158   0.192   0.990
 6087TIP3    H242457   6.194   0.253   1.124
 6088TIP3   OH242458   6.612   0.145   1.475
 6088TIP3    H142459   6.659   0.061   1.475
 6088TIP3    H242460   6.544   0.135   1.408
 6089TIP3   OH242461   6.983   0.472   1.460
 6089TIP3    H142462   6.938   0.457   1.543
 6089TIP3    H242463   6.991   0.567   1.454
 6090TIP3   OH242464   7.153   0.972   0.054
 6090TIP3    H142465   7.097   0.975  -0.024
 6090TIP3    H242466   7.240   0.949   0.020
 6091TIP3   OH242467   6.582   0.493   0.054
 6091TIP3    H142468   6.550   0.450   0.133
 6091TIP3    H242469   6.614   0.422  -0.001
 6092TIP3   OH242470   6.240   0.706   1.180
 6092TIP3    H142471   6.178   0.700   1.253
 6092TIP3    H242472   6.230   0.795   1.147
 6093TIP3   OH242473   6.268   0.682   0.632
 6093TIP3    H142474   6.173   0.676   0.625
 6093TIP3    H242475   6.300   0.673   0.542
 6094TIP3   OH242476   6.790   0.719   0.551
 6094TIP3    H142477   6.771   0.806   0.515
 6094TIP3    H242478   6.868   0.690   0.503
 6095TIP3   OH242479   6.695   0.684   1.662
 6095TIP3    H142480   6.647   0.608   1.696
 6095TIP3    H242481   6.778   0.683   1.710
 6096TIP3   OH242482   6.858   0.635   0.803
 6096TIP3    H142483   6.823   0.680   0.727
 6096TIP3    H242484   6.907   0.561   0.767
 6097TIP3   OH242485   6.032   0.643   1.362
 6097TIP3    H142486   6.027   0.705   1.435
 6097TIP3    H242487   6.001   0.560   1.400
 6098TIP3   OH242488   6.238   0.413   0.027
 6098TIP3    H142489   6.236   0.474   0.101
 6098TIP3    H242490   6.190   0.458  -0.042
 6099TIP3   OH242491   5.672   0.464   0.785
 6099TIP3    H142492   5.743   0.463   0.849
 6099TIP3    H242493   5.693   0.537   0.727
 6100TIP3   OH242494   5.758   0.500   0.298
 6100TIP3    H142495   5.819   0.551   0.244
 6100TIP3    H242496   5.686   0.560   0.317
 6101TIP3   OH242497   6.832   0.796   1.270
 6101TIP3    H142498   6.860   0.737   1.201
 6101TIP3    H242499   6.760   0.750   1.313
 6102TIP3   OH242500   6.550   0.413   0.744
 6102TIP3    H142501   6.461   0.418   0.777
 6102TIP3    H242502   6.601   0.379   0.818
 6103TIP3   OH242503   5.997   0.622   0.612
 6103TIP3    H142504   5.905   0.629   0.586
 6103TIP3    H242505   6.018   0.529   0.600
 6104TIP3   OH242506   6.308   0.650   0.358
 6104TIP3    H142507   6.398   0.670   0.332
 6104TIP3    H242508   6.257   0.665   0.278
 6105TIP3   OH242509   6.883   0.348   1.112
 6105TIP3    H142510   6.837   0.348   1.196
 6105TIP3    H242511   6.818   0.314   1.050
 6106TIP3   OH242512   6.158   0.670   0.133
 6106TIP3    H142513   6.063   0.665   0.124
 6106TIP3    H242514   6.187   0.712   0.052
 6107TIP3   OH242515   7.269   1.899   1.716
 6107TIP3    H142516   7.291   1.922   1.626
 6107TIP3    H242517   7.343   1.930   1.768
 6108TIP3   OH242518   6.051   1.150   1.631
 6108TIP3    H142519   6.112   1.142   1.704
 6108TIP3    H242520   5.965   1.153   1.672
 6109TIP3   OH242521   6.621   0.741   0.937
 6109TIP3    H142522   6.692   0.688   0.900
 6109TIP3    H242523   6.587   0.688   1.009
 6110TIP3   OH242524   6.099   0.363   0.591
 6110TIP3    H142525   6.044   0.286   0.603
 6110TIP3    H242526   6.143   0.349   0.507
 6111TIP3   OH242527   6.502   0.619   1.157
 6111TIP3    H142528   6.416   0.660   1.171
 6111TIP3    H242529   6.549   0.635   1.239
 6112TIP3   OH242530   6.582   1.122   0.300
 6112TIP3    H142531   6.514   1.070   0.256
 6112TIP3    H242532   6.537   1.164   0.372
 6113TIP3   OH242533   7.223   1.107   1.179
 6113TIP3    H142534   7.273   1.168   1.126
 6113TIP3    H242535   7.150   1.081   1.123
 6114TIP3   OH242536   6.852   0.447   0.297
 6114TIP3    H142537   6.763   0.483   0.295
 6114TIP3    H242538   6.907   0.522   0.322
 6115TIP3   OH242539   6.643   1.155   1.510
 6115TIP3    H142540   6.691   1.106   1.577
 6115TIP3    H242541   6.609   1.231   1.556
 6116TIP3   OH242542   7.007   0.655   0.393
 6116TIP3    H142543   7.094   0.629   0.425
 6116TIP3    H242544   7.023   0.737   0.346
 6117TIP3   OH242545   6.097   1.092   0.851
 6117TIP3    H142546   6.153   1.077   0.775
 6117TIP3    H242547   6.135   1.038   0.921
 6118TIP3   OH242548   6.810   1.274   0.260
 6118TIP3    H142549   6.768   1.359   0.254
 6118TIP3    H242550   6.738   1.211   0.265
 6119TIP3   OH242551   5.731   0.917   1.489
 6119TIP3    H142552   5.689   0.877   1.565
 6119TIP3    H242553   5.666   0.911   1.419
 6120TIP3   OH242554   6.494   0.883   1.677
 6120TIP3    H142555   6.427   0.854   1.616
 6120TIP3    H242556   6.569   0.826   1.661
 6121TIP3   OH242557   6.873   1.432   1.570
 6121TIP3    H142558   6.781   1.444   1.545
 6121TIP3    H242559   6.873   1.443   1.665
 6122TIP3   OH242560   7.435   0.671   0.334
 6122TIP3    H142561   7.369   0.637   0.275
 6122TIP3    H242562   7.470   0.748   0.289
 6123TIP3   OH242563   7.551   1.341   1.653
 6123TIP3    H142564   7.466   1.323   1.693
 6123TIP3    H242565   7.548   1.295   1.569
 6124TIP3   OH242566   7.341   1.491   0.352
 6124TIP3    H142567   7.305   1.402   0.358
 6124TIP3    H242568   7.404   1.486   0.280
 6125TIP3   OH242569   7.025   1.036   0.999
 6125TIP3    H142570   6.931   1.023   1.012
 6125TIP3    H242571   7.053   0.960   0.946
 6126TIP3   OH242572   6.393   1.425   0.679
 6126TIP3    H142573   6.379   1.511   0.638
 6126TIP3    H242574   6.314   1.411   0.730
 6127TIP3   OH242575   5.818   0.940   0.168
 6127TIP3    H142576   5.875   0.993   0.224
 6127TIP3    H242577   5.735   0.934   0.215
 6128TIP3   OH242578   6.420   1.220   0.500
 6128TIP3    H142579   6.427   1.295   0.558
 6128TIP3    H242580   6.372   1.154   0.550
 6129TIP3   OH242581   6.530   1.618   1.298
 6129TIP3    H142582   6.597   1.686   1.289
 6129TIP3    H242583   6.566   1.559   1.365
 6130TIP3   OH242584   6.328   1.670   0.561
 6130TIP3    H142585   6.236   1.683   0.583
 6130TIP3    H242586   6.373   1.745   0.601
 6131TIP3   OH242587   6.794   1.263   1.302
 6131TIP3    H142588   6.728   1.230   1.364
 6131TIP3    H242589   6.877   1.228   1.334
 6132TIP3   OH242590   7.073   1.317   0.165
 6132TIP3    H142591   7.134   1.282   0.231
 6132TIP3    H242592   6.986   1.295   0.198
 6133TIP3   OH242593   7.103   1.569   1.512
 6133TIP3    H142594   7.031   1.511   1.538
 6133TIP3    H242595   7.060   1.648   1.480
 6134TIP3   OH242596   7.556   1.809   0.193
 6134TIP3    H142597   7.630   1.866   0.211
 6134TIP3    H242598   7.485   1.844   0.247
 6135TIP3   OH242599   5.960   0.386   1.457
 6135TIP3    H142600   5.890   0.324   1.435
 6135TIP3    H242601   5.965   0.383   1.552
 6136TIP3   OH242602   7.257   1.218   0.353
 6136TIP3    H142603   7.209   1.158   0.410
 6136TIP3    H242604   7.346   1.182   0.350
 6137TIP3   OH242605   5.921   1.582   1.267
 6137TIP3    H142606   5.949   1.507   1.319
 6137TIP3    H242607   5.934   1.657   1.325
 6138TIP3   OH242608   6.292   1.330   0.277
 6138TIP3    H142609   6.330   1.282   0.351
 6138TIP3    H242610   6.332   1.417   0.283
 6139TIP3   OH242611   5.973   1.100   0.330
 6139TIP3    H142612   5.922   1.158   0.386
 6139TIP3    H242613   6.012   1.158   0.264
 6140TIP3   OH242614   6.749   0.361   1.358
 6140TIP3    H142615   6.831   0.379   1.405
 6140TIP3    H242616   6.706   0.293   1.409
 6141TIP3   OH242617   6.913   0.281   0.511
 6141TIP3    H142618   6.889   0.333   0.434
 6141TIP3    H242619   6.950   0.344   0.572
 6142TIP3   OH242620   6.677   1.512   0.289
 6142TIP3    H142621   6.582   1.525   0.293
 6142TIP3    H242622   6.706   1.526   0.379
 6143TIP3   OH242623   6.567   0.565   0.513
 6143TIP3    H142624   6.639   0.626   0.527
 6143TIP3    H242625   6.555   0.521   0.597
 6144TIP3   OH242626   6.652   0.624   1.390
 6144TIP3    H142627   6.662   0.644   1.483
 6144TIP3    H242628   6.678   0.532   1.382
 6145TIP3   OH242629   6.628   0.250   0.530
 6145TIP3    H142630   6.608   0.311   0.601
 6145TIP3    H242631   6.722   0.236   0.537
 6146TIP3   OH242632   6.410   1.578   0.315
 6146TIP3    H142633   6.388   1.651   0.257
 6146TIP3    H242634   6.382   1.607   0.402
 6147TIP3   OH242635   6.239   0.380   0.347
 6147TIP3    H142636   6.247   0.474   0.362
 6147TIP3    H242637   6.328   0.351   0.327
 6148TIP3   OH242638   7.227   0.402   1.572
 6148TIP3    H142639   7.145   0.396   1.523
 6148TIP3    H242640   7.294   0.410   1.505
 6149TIP3   OH242641   7.097   0.789   0.878
 6149TIP3    H142642   7.014   0.745   0.863
 6149TIP3    H242643   7.143   0.732   0.940
 6150TIP3   OH242644   6.060   1.284   0.144
 6150TIP3    H142645   6.140   1.304   0.192
 6150TIP3    H242646   6.083   1.295   0.052
 6151TIP3   OH242647   5.878   0.678   0.115
 6151TIP3    H142648   5.867   0.770   0.139
 6151TIP3    H242649   5.813   0.664   0.046
 6152TIP3   OH242650   7.235   1.719   1.040
 6152TIP3    H142651   7.221   1.769   0.960
 6152TIP3    H242652   7.328   1.731   1.059
 6153TIP3   OH242653   5.999   0.172   0.898
 6153TIP3    H142654   5.982   0.174   0.804
 6153TIP3    H242655   5.965   0.087   0.926
 6154TIP3   OH242656   5.857   1.537   0.581
 6154TIP3    H142657   5.815   1.557   0.665
 6154TIP3    H242658   5.825   1.605   0.522
 6155TIP3   OH242659   5.748   1.752   1.725
 6155TIP3    H142660   5.804   1.675   1.717
 6155TIP3    H242661   5.661   1.720   1.701
 6156TIP3   OH242662   6.263   1.604   1.850
 6156TIP3    H142663   6.328   1.541   1.880
 6156TIP3    H242664   6.231   1.567   1.768
 6157TIP3   OH242665   6.754   1.651   0.065
 6157TIP3    H142666   6.678   1.636   0.009
 6157TIP3    H242667   6.740   1.594   0.140
 6158TIP3   OH242668   6.887   1.460   1.840
 6158TIP3    H142669   6.892   1.370   1.873
 6158TIP3    H242670   6.968   1.501   1.869
 6159TIP3   OH242671   7.158   1.525   9.995
 6159TIP3    H142672   7.127   1.477  10.072
 6159TIP3    H242673   7.182   1.457   9.932
 6160TIP3   OH242674   5.809   1.135   1.762
 6160TIP3    H142675   5.820   1.041   1.777
 6160TIP3    H242676   5.724   1.142   1.719
 6161TIP3   OH242677   6.307   1.051   9.966
 6161TIP3    H142678   6.316   1.035  10.060
 6161TIP3    H242679   6.391   1.090   9.941
 6162TIP3   OH242680   6.450   1.157   1.744
 6162TIP3    H142681   6.426   1.200   1.662
 6162TIP3    H242682   6.480   1.070   1.718
 6163TIP3   OH242683   6.998   1.199   1.484
 6163TIP3    H142684   7.092   1.217   1.472
 6163TIP3    H242685   6.963   1.281   1.520
 6164TIP3   OH242686   5.856   0.869   1.803
 6164TIP3    H142687   5.872   0.782   1.768
 6164TIP3    H242688   5.861   0.858   1.898
 6165TIP3   OH242689   6.374   0.957   0.217
 6165TIP3    H142690   6.311   0.945   0.288
 6165TIP3    H242691   6.421   0.874   0.213
 6166TIP3   OH242692   6.287   0.805   1.496
 6166TIP3    H142693   6.198   0.841   1.500
 6166TIP3    H242694   6.337   0.869   1.446
 6167TIP3   OH242695   6.536   0.730   0.197
 6167TIP3    H142696   6.540   0.653   0.141
 6167TIP3    H242697   6.624   0.769   0.190
 6168TIP3   OH242698   6.779   1.033   1.726
 6168TIP3    H142699   6.861   0.993   1.696
 6168TIP3    H242700   6.747   0.973   1.794
 6169TIP3   OH242701   7.403   0.921   9.945
 6169TIP3    H142702   7.412   0.852   9.879
 6169TIP3    H242703   7.459   0.992   9.914
 6170TIP3   OH242704   6.358   0.542   1.564
 6170TIP3    H142705   6.372   0.492   1.483
 6170TIP3    H242706   6.338   0.631   1.533
 6171TIP3   OH242707   6.385   0.411   1.316
 6171TIP3    H142708   6.433   0.463   1.252
 6171TIP3    H242709   6.295   0.411   1.284
 6172TIP3   OH242710   6.438   1.000   1.383
 6172TIP3    H142711   6.514   1.045   1.422
 6172TIP3    H242712   6.421   1.048   1.302
 6173TIP3   OH242713   6.916   0.668   1.841
 6173TIP3    H142714   6.944   0.638   1.927
 6173TIP3    H242715   6.993   0.654   1.785
 6174TIP3   OH242716   7.037   0.974   1.633
 6174TIP3    H142717   7.012   1.050   1.581
 6174TIP3    H242718   7.133   0.976   1.635
 6175TIP3   OH242719   6.207   0.534   1.795
 6175TIP3    H142720   6.123   0.495   1.773
 6175TIP3    H242721   6.254   0.539   1.712
 6176TIP3   OH242722   6.404   0.136   1.284
 6176TIP3    H142723   6.406   0.227   1.313
 6176TIP3    H242724   6.353   0.137   1.203
 6177TIP3   OH242725   6.559   0.462   1.747
 6177TIP3    H142726   6.515   0.437   1.828
 6177TIP3    H242727   6.489   0.474   1.683
 6178TIP3   OH242728   6.844   0.405   1.680
 6178TIP3    H142729   6.757   0.402   1.720
 6178TIP3    H242730   6.903   0.373   1.748
 6179TIP3   OH242731   7.041   0.314   1.864
 6179TIP3    H142732   7.070   0.225   1.844
 6179TIP3    H242733   7.013   0.310   1.955
 6180TIP3   OH242734   5.957   0.417   1.757
 6180TIP3    H142735   5.955   0.322   1.763
 6180TIP3    H242736   5.933   0.448   1.845
 6181TIP3   OH242737   6.480   0.123   1.727
 6181TIP3    H142738   6.455   0.034   1.701
 6181TIP3    H242739   6.531   0.156   1.653
 6182TIP3   OH242740   6.560   0.194   1.985
 6182TIP3    H142741   6.552   0.152   1.899
 6182TIP3    H242742   6.497   0.267   1.982
 6183TIP3   OH242743   6.390   1.789   0.139
 6183TIP3    H142744   6.471   1.833   0.165
 6183TIP3    H242745   6.345   1.854   0.084
 6184TIP3   OH242746   5.806   1.388   0.152
 6184TIP3    H142747   5.894   1.350   0.149
 6184TIP3    H242748   5.762   1.354   0.075
 6185TIP3   OH242749   5.704   1.837   0.688
 6185TIP3    H142750   5.635   1.811   0.627
 6185TIP3    H242751   5.718   1.761   0.743
 6186TIP3   OH242752   5.771   1.617   0.839
 6186TIP3    H142753   5.730   1.552   0.895
 6186TIP3    H242754   5.831   1.665   0.898
 6187TIP3   OH242755   7.490   1.786   1.141
 6187TIP3    H142756   7.495   1.739   1.225
 6187TIP3    H242757   7.518   1.875   1.162
 6188TIP3   OH242758   7.486   1.668   1.389
 6188TIP3    H142759   7.429   1.592   1.375
 6188TIP3    H242760   7.529   1.650   1.473
 6189TIP3   OH242761   7.354   1.302   1.844
 6189TIP3    H142762   7.273   1.286   1.892
 6189TIP3    H242763   7.403   1.363   1.899
 6190TIP3   OH242764   7.508   1.097   0.382
 6190TIP3    H142765   7.583   1.155   0.383
 6190TIP3    H242766   7.512   1.050   0.465
 6191TIP3   OH242767   7.526   0.940   0.613
 6191TIP3    H142768   7.441   0.909   0.642
 6191TIP3    H242769   7.583   0.929   0.689
 6192TIP3   OH242770   7.481   1.239   1.150
 6192TIP3    H142771   7.515   1.162   1.104
 6192TIP3    H242772   7.520   1.313   1.104
 6193TIP3   OH242773   7.299   1.473   1.345
 6193TIP3    H142774   7.229   1.505   1.402
 6193TIP3    H242775   7.256   1.461   1.260
 6194TIP3   OH242776   7.530   0.891   0.197
 6194TIP3    H142777   7.481   0.908   0.117
 6194TIP3    H242778   7.514   0.968   0.251
 6195TIP3   OH242779   7.244   0.573   0.168
 6195TIP3    H142780   7.194   0.608   0.094
 6195TIP3    H242781   7.281   0.491   0.134
 6196TIP3   OH242782   7.273   0.830   0.667
 6196TIP3    H142783   7.268   0.741   0.632
 6196TIP3    H242784   7.218   0.829   0.745
 6197TIP3   OH242785   5.747   1.025   1.085
 6197TIP3    H142786   5.765   1.017   0.992
 6197TIP3    H242787   5.808   0.965   1.127
 6198TIP3   OH242788   7.306   1.004   1.608
 6198TIP3    H142789   7.379   0.948   1.582
 6198TIP3    H242790   7.310   1.078   1.548
 6199TIP3   OH242791   7.486   0.755   1.615
 6199TIP3    H142792   7.437   0.762   1.697
 6199TIP3    H242793   7.523   0.667   1.618
 6200TIP3   OH242794   7.371   0.354   0.051
 6200TIP3    H142795   7.466   0.347   0.063
 6200TIP3    H242796   7.338   0.267   0.077
 6201TIP3   OH242797   7.256   0.580   0.527
 6201TIP3    H142798   7.280   0.487   0.529
 6201TIP3    H242799   7.320   0.621   0.470
 6202TIP3   OH242800   7.248   0.620   1.042
 6202TIP3    H142801   7.341   0.604   1.024
 6202TIP3    H242802   7.245   0.641   1.135
 6203TIP3   OH242803   7.267   0.695   1.310
 6203TIP3    H142804   7.190   0.724   1.359
 6203TIP3    H242805   7.316   0.776   1.292
 6204TIP3   OH242806   5.739   0.560   1.664
 6204TIP3    H142807   5.821   0.518   1.692
 6204TIP3    H242808   5.680   0.487   1.646
 6205TIP3   OH242809   7.632   0.123   1.879
 6205TIP3    H142810   7.720   0.124   1.843
 6205TIP3    H242811   7.579   0.168   1.814
 6206TIP3   OH242812   7.321   0.310   0.516
 6206TIP3    H142813   7.346   0.251   0.587
 6206TIP3    H242814   7.250   0.265   0.470
 6207TIP3   OH242815   5.875   0.409   0.973
 6207TIP3    H142816   5.910   0.323   0.951
 6207TIP3    H242817   5.952   0.465   0.983
 6208TIP3   OH242818   5.714   0.704   1.040
 6208TIP3    H142819   5.779   0.703   0.970
 6208TIP3    H242820   5.758   0.746   1.114
 6209TIP3   OH242821   7.470   0.271   1.707
 6209TIP3    H142822   7.404   0.318   1.759
 6209TIP3    H242823   7.420   0.231   1.636
 6210TIP3   OH242824   7.636   0.300   0.109
 6210TIP3    H142825   7.688   0.239   0.161
 6210TIP3    H242826   7.690   0.318   0.032
 6211TIP3   OH242827   5.738   0.278   0.466
 6211TIP3    H142828   5.649   0.289   0.500
 6211TIP3    H242829   5.755   0.358   0.417
 6212TIP3   OH242830   7.101   1.780   0.660
 6212TIP3    H142831   7.180   1.746   0.619
 6212TIP3    H242832   7.133   1.842   0.727
 6213TIP3   OH242833   5.754   0.207   1.378
 6213TIP3    H142834   5.672   0.200   1.427
 6213TIP3    H242835   5.729   0.250   1.296
 6214TIP3   OH242836   5.896   1.518   1.687
 6214TIP3    H142837   5.812   1.490   1.651
 6214TIP3    H242838   5.902   1.475   1.772
 6215TIP3   OH242839   6.265   1.618   1.370
 6215TIP3    H142840   6.238   1.709   1.356
 6215TIP3    H242841   6.359   1.617   1.351
 6216TIP3   OH242842   6.582   1.727   1.666
 6216TIP3    H142843   6.596   1.685   1.751
 6216TIP3    H242844   6.661   1.780   1.653
 6217TIP3   OH242845   6.812   1.874   1.626
 6217TIP3    H142846   6.869   1.836   1.560
 6217TIP3    H242847   6.870   1.896   1.699
 6218TIP3   OH242848   7.359   0.125   1.474
 6218TIP3    H142849   7.283   0.147   1.420
 6218TIP3    H242850   7.355   0.030   1.483
 6219TIP3   OH242851   5.951   1.835   1.398
 6219TIP3    H142852   5.879   1.883   1.358
 6219TIP3    H242853   5.954   1.866   1.488
 6220TIP3   OH242854   6.210   1.885   1.321
 6220TIP3    H142855   6.119   1.873   1.346
 6220TIP3    H242856   6.207   1.928   1.235
 6221TIP3   OH242857   6.723   1.810   1.264
 6221TIP3    H142858   6.744   1.816   1.171
 6221TIP3    H242859   6.700   1.899   1.290
 6222TIP3   OH242860   6.952   1.771   1.408
 6222TIP3    H142861   6.872   1.784   1.357
 6222TIP3    H242862   7.020   1.815   1.357
 6223TIP3   OH242863   7.157   1.870   1.256
 6223TIP3    H142864   7.170   1.953   1.210
 6223TIP3    H242865   7.175   1.803   1.190
 6224TIP3   OH242866   5.943   1.734   1.027
 6224TIP3    H142867   5.931   1.690   1.111
 6224TIP3    H242868   6.024   1.698   0.992
 6225TIP3   OH242869   6.166   1.621   0.918
 6225TIP3    H142870   6.169   1.526   0.907
 6225TIP3    H242871   6.248   1.642   0.963
 6226TIP3   OH242872   6.413   1.648   1.047
 6226TIP3    H142873   6.440   1.565   1.006
 6226TIP3    H242874   6.446   1.643   1.136
 6227TIP3   OH242875   6.693   0.262   0.931
 6227TIP3    H142876   6.618   0.205   0.947
 6227TIP3    H242877   6.746   0.215   0.867
 6228TIP3   OH242878   7.218   0.153   0.910
 6228TIP3    H142879   7.279   0.154   0.837
 6228TIP3    H242880   7.187   0.243   0.917
 6229TIP3   OH242881   7.395   0.114   0.700
 6229TIP3    H142882   7.416   0.021   0.702
 6229TIP3    H242883   7.479   0.158   0.709
 6230TIP3   OH242884   5.926   0.153   0.632
 6230TIP3    H142885   5.854   0.187   0.579
 6230TIP3    H242886   5.916   0.058   0.629
 6231TIP3   OH242887   5.856   0.080   0.307
 6231TIP3    H142888   5.927   0.130   0.269
 6231TIP3    H242889   5.807   0.144   0.360
 6232TIP3   OH242890   6.462   0.069   0.661
 6232TIP3    H142891   6.516   0.125   0.607
 6232TIP3    H242892   6.471   0.104   0.749
 6233TIP3   OH242893   6.832   0.125   0.743
 6233TIP3    H142894   6.884   0.147   0.666
 6233TIP3    H242895   6.859   0.036   0.766
 6234TIP3   OH242896   7.131   0.159   0.389
 6234TIP3    H142897   7.052   0.196   0.429
 6234TIP3    H242898   7.105   0.071   0.362
 6235TIP3   OH242899   5.762   1.725   0.396
 6235TIP3    H142900   5.672   1.730   0.430
 6235TIP3    H242901   5.775   1.809   0.351
 6236TIP3   OH242902   6.058   0.229   0.191
 6236TIP3    H142903   6.122   0.190   0.131
 6236TIP3    H242904   6.111   0.286   0.247
 6237TIP3   OH242905   6.524   0.389   0.310
 6237TIP3    H142906   6.558   0.315   0.359
 6237TIP3    H242907   6.527   0.462   0.371
 6238TIP3   OH242908   6.649   1.882   0.187
 6238TIP3    H142909   6.693   1.962   0.156
 6238TIP3    H242910   6.692   1.811   0.140
 6239TIP3   OH242911   7.326   1.712   0.514
 6239TIP3    H142912   7.326   1.628   0.468
 6239TIP3    H242913   7.334   1.778   0.444
 6240TIP3   OH242914   5.967   0.140   1.727
 6240TIP3    H142915   5.974   0.056   1.682
 6240TIP3    H242916   6.053   0.152   1.768
 6241TIP3   OH242917   6.219   0.168   1.839
 6241TIP3    H142918   6.309   0.190   1.815
 6241TIP3    H242919   6.210   0.076   1.817
 6242TIP3   OH242920   5.903   1.650   0.164
 6242TIP3    H142921   5.869   1.675   0.250
 6242TIP3    H242922   5.875   1.559   0.153
 6243TIP3   OH242923   7.123   0.050   1.823
 6243TIP3    H142924   7.072  -0.020   1.865
 6243TIP3    H242925   7.197   0.005   1.783
 6244TIP3   OH242926   7.295   1.626   1.705
 6244TIP3    H142927   7.232   1.597   1.638
 6244TIP3    H242928   7.277   1.720   1.715
 6245TIP3   OH242929   7.676   0.763   0.462
 6245TIP3    H142930   7.630   0.831   0.512
 6245TIP3    H242931   7.606   0.711   0.423
 6246TIP3   OH242932   7.579   1.209   1.411
 6246TIP3    H142933   7.539   1.225   1.325
 6246TIP3    H242934   7.580   1.114   1.420
 6247TIP3   OH242935   7.641   1.454   1.067
 6247TIP3    H142936   7.733   1.434   1.054
 6247TIP3    H242937   7.637   1.494   1.154
 6248TIP3   OH242938   7.612   0.274   0.697
 6248TIP3    H142939   7.656   0.334   0.757
 6248TIP3    H242940   7.623   0.314   0.611
 6249TIP3   OH242941   7.586   0.935   1.444
 6249TIP3    H142942   7.560   0.866   1.506
 6249TIP3    H242943   7.535   0.916   1.365
 6250TIP3   OH242944   7.687   1.244   1.874
 6250TIP3    H142945   7.629   1.172   1.896
 6250TIP3    H242946   7.648   1.284   1.796
 6251TIP3   OH242947   7.516   1.822   0.682
 6251TIP3    H142948   7.450   1.779   0.627
 6251TIP3    H242949   7.521   1.767   0.760
 6252TIP3   OH242950   7.545   1.665   0.902
 6252TIP3    H142951   7.569   1.577   0.931
 6252TIP3    H242952   7.533   1.714   0.983
 6253TIP3   OH242953   7.590   1.009   1.045
 6253TIP3    H142954   7.584   0.955   0.965
 6253TIP3    H242955   7.682   1.031   1.052
 6254TIP3   OH242956   7.598   0.501   1.602
 6254TIP3    H142957   7.693   0.498   1.615
 6254TIP3    H242958   7.566   0.421   1.644
 6255TIP3   OH242959   7.517   0.542   1.019
 6255TIP3    H142960   7.573   0.514   0.948
 6255TIP3    H242961   7.576   0.584   1.082
 6256TIP3   OH242962   7.577   0.374   0.427
 6256TIP3    H142963   7.486   0.362   0.455
 6256TIP3    H242964   7.571   0.427   0.348
 6257TIP3   OH242965   7.548   0.186   1.283
 6257TIP3    H142966   7.499   0.184   1.365
 6257TIP3    H242967   7.494   0.240   1.224
 6258TIP3   OH242968   1.292   2.950   0.691
 6258TIP3    H142969   1.269   3.040   0.666
 6258TIP3    H242970   1.223   2.896   0.651
 6259TIP3   OH242971   1.038   2.805   1.099
 6259TIP3    H142972   1.122   2.767   1.126
 6259TIP3    H242973   1.000   2.740   1.040
 6260TIP3   OH242974   0.388   2.804   1.165
 6260TIP3    H142975   0.348   2.720   1.189
 6260TIP3    H242976   0.425   2.838   1.247
 6261TIP3   OH242977   1.569   3.199   0.863
 6261TIP3    H142978   1.535   3.111   0.883
 6261TIP3    H242979   1.557   3.248   0.944
 6262TIP3   OH242980   0.457   3.213   1.007
 6262TIP3    H142981   0.423   3.128   0.982
 6262TIP3    H242982   0.550   3.199   1.022
 6263TIP3   OH242983   0.105   2.606   0.595
 6263TIP3    H142984   0.105   2.671   0.665
 6263TIP3    H242985   0.016   2.570   0.595
 6264TIP3   OH242986   0.150   2.761   0.828
 6264TIP3    H142987   0.199   2.686   0.861
 6264TIP3    H242988   0.207   2.836   0.844
 6265TIP3   OH242989   1.238   3.511   0.925
 6265TIP3    H142990   1.265   3.461   0.848
 6265TIP3    H242991   1.234   3.447   0.996
 6266TIP3   OH242992   0.961   3.078   1.088
 6266TIP3    H142993   0.985   2.987   1.069
 6266TIP3    H242994   1.029   3.109   1.148
 6267TIP3   OH242995   1.874   2.167   1.164
 6267TIP3    H142996   1.856   2.242   1.220
 6267TIP3    H242997   1.930   2.201   1.095
 6268TIP3   OH242998   1.228   2.522   1.047
 6268TIP3    H142999   1.235   2.427   1.059
 6268TIP3    H243000   1.238   2.534   0.953
 6269TIP3   OH243001   0.625   2.284   0.792
 6269TIP3    H143002   0.627   2.373   0.757
 6269TIP3    H243003   0.560   2.238   0.738
 6270TIP3   OH243004   1.398   2.332   0.640
 6270TIP3    H143005   1.426   2.300   0.725
 6270TIP3    H243006   1.476   2.371   0.602
 6271TIP3   OH243007   0.285   2.535   0.904
 6271TIP3    H143008   0.354   2.485   0.947
 6271TIP3    H243009   0.288   2.508   0.812
 6272TIP3   OH243010   0.704   2.711   0.876
 6272TIP3    H143011   0.793   2.678   0.890
 6272TIP3    H243012   0.664   2.647   0.817
 6273TIP3   OH243013   1.816   2.353   1.356
 6273TIP3    H143014   1.767   2.434   1.344
 6273TIP3    H243015   1.876   2.372   1.429
 6274TIP3   OH243016   0.477   2.215   1.247
 6274TIP3    H143017   0.450   2.265   1.170
 6274TIP3    H243018   0.407   2.229   1.311
 6275TIP3   OH243019   1.205   3.181   0.571
 6275TIP3    H143020   1.195   3.159   0.479
 6275TIP3    H243021   1.166   3.268   0.579
 6276TIP3   OH243022   0.728   3.027   1.245
 6276TIP3    H143023   0.668   3.093   1.279
 6276TIP3    H243024   0.785   3.076   1.185
 6277TIP3   OH243025   1.464   2.289   0.901
 6277TIP3    H143026   1.392   2.266   0.959
 6277TIP3    H243027   1.521   2.345   0.954
 6278TIP3   OH243028   0.469   2.360   1.010
 6278TIP3    H143029   0.521   2.419   1.064
 6278TIP3    H243030   0.531   2.326   0.945
 6279TIP3   OH243031   0.569   3.232   1.348
 6279TIP3    H143032   0.584   3.326   1.353
 6279TIP3    H243033   0.475   3.221   1.363
 6280TIP3   OH243034   0.059   3.155   0.381
 6280TIP3    H143035   0.089   3.149   0.290
 6280TIP3    H243036   0.043   3.248   0.395
 6281TIP3   OH243037   1.520   3.362   1.089
 6281TIP3    H143038   1.426   3.355   1.105
 6281TIP3    H243039   1.534   3.456   1.072
 6282TIP3   OH243040   1.649   2.013   1.231
 6282TIP3    H143041   1.600   2.006   1.150
 6282TIP3    H243042   1.722   2.071   1.210
 6283TIP3   OH243043   0.851   1.906   1.022
 6283TIP3    H143044   0.834   1.812   1.031
 6283TIP3    H243045   0.768   1.947   1.047
 6284TIP3   OH243046   1.362   3.500   0.655
 6284TIP3    H143047   1.427   3.430   0.640
 6284TIP3    H243048   1.412   3.569   0.698
 6285TIP3   OH243049   1.551   3.305   0.611
 6285TIP3    H143050   1.540   3.229   0.553
 6285TIP3    H243051   1.565   3.267   0.698
 6286TIP3   OH243052   1.638   3.077   1.405
 6286TIP3    H143053   1.627   3.039   1.317
 6286TIP3    H243054   1.660   3.169   1.389
 6287TIP3   OH243055   1.123   2.831   0.496
 6287TIP3    H143056   1.049   2.889   0.476
 6287TIP3    H243057   1.176   2.832   0.416
 6288TIP3   OH243058   1.077   2.697   0.122
 6288TIP3    H143059   1.153   2.726   0.173
 6288TIP3    H243060   1.110   2.627   0.066
 6289TIP3   OH243061   1.761   2.791   1.265
 6289TIP3    H143062   1.702   2.856   1.228
 6289TIP3    H243063   1.830   2.781   1.200
 6290TIP3   OH243064   1.472   2.853   0.503
 6290TIP3    H143065   1.415   2.883   0.574
 6290TIP3    H243066   1.535   2.795   0.545
 6291TIP3   OH243067   1.415   2.641   1.482
 6291TIP3    H143068   1.397   2.717   1.538
 6291TIP3    H243069   1.347   2.643   1.415
 6292TIP3   OH243070   0.560   2.908   0.742
 6292TIP3    H143071   0.532   2.864   0.661
 6292TIP3    H243072   0.616   2.845   0.786
 6293TIP3   OH243073   0.747   3.234   0.996
 6293TIP3    H143074   0.744   3.254   0.903
 6293TIP3    H243075   0.827   3.183   1.008
 6294TIP3   OH243076   0.703   2.766   1.160
 6294TIP3    H143077   0.702   2.763   1.064
 6294TIP3    H243078   0.702   2.859   1.181
 6295TIP3   OH243079   1.252   3.348   1.153
 6295TIP3    H143080   1.229   3.421   1.212
 6295TIP3    H243081   1.210   3.272   1.192
 6296TIP3   OH243082   0.731   3.236   1.580
 6296TIP3    H143083   0.667   3.289   1.626
 6296TIP3    H243084   0.685   3.206   1.501
 6297TIP3   OH243085   1.305   2.790   0.287
 6297TIP3    H143086   1.370   2.816   0.352
 6297TIP3    H243087   1.348   2.805   0.203
 6298TIP3   OH243088   0.454   2.842   1.437
 6298TIP3    H143089   0.474   2.901   1.510
 6298TIP3    H243090   0.366   2.810   1.456
 6299TIP3   OH243091   1.114   3.448   0.547
 6299TIP3    H143092   1.197   3.465   0.592
 6299TIP3    H243093   1.075   3.534   0.535
 6300TIP3   OH243094   0.522   3.393   1.658
 6300TIP3    H143095   0.526   3.439   1.575
 6300TIP3    H243096   0.434   3.356   1.661
 6301TIP3   OH243097   1.700   1.927   0.285
 6301TIP3    H143098   1.615   1.965   0.311
 6301TIP3    H243099   1.749   2.002   0.252
 6302TIP3   OH243100   0.468   2.794   0.498
 6302TIP3    H143101   0.399   2.853   0.468
 6302TIP3    H243102   0.427   2.708   0.501
 6303TIP3   OH243103   1.769   3.363   0.188
 6303TIP3    H143104   1.777   3.458   0.174
 6303TIP3    H243105   1.860   3.333   0.193
 6304TIP3   OH243106   0.174   3.025   1.358
 6304TIP3    H143107   0.085   3.045   1.385
 6304TIP3    H243108   0.193   2.941   1.400
 6305TIP3   OH243109   0.209   3.342   1.056
 6305TIP3    H143110   0.288   3.289   1.046
 6305TIP3    H243111   0.226   3.395   1.134
 6306TIP3   OH243112   1.888   3.448   1.673
 6306TIP3    H143113   1.891   3.352   1.668
 6306TIP3    H243114   1.800   3.467   1.706
 6307TIP3   OH243115   0.973   3.360   1.551
 6307TIP3    H143116   0.969   3.446   1.593
 6307TIP3    H243117   0.886   3.323   1.563
 6308TIP3   OH243118   1.046   3.702   0.460
 6308TIP3    H143119   1.019   3.714   0.369
 6308TIP3    H243120   1.014   3.780   0.505
 6309TIP3   OH243121   0.446   3.542   0.726
 6309TIP3    H143122   0.477   3.535   0.816
 6309TIP3    H243123   0.355   3.513   0.729
 6310TIP3   OH243124   1.299   3.739   0.178
 6310TIP3    H143125   1.331   3.660   0.135
 6310TIP3    H243126   1.321   3.727   0.270
 6311TIP3   OH243127   1.322   3.688   0.449
 6311TIP3    H143128   1.227   3.695   0.457
 6311TIP3    H243129   1.347   3.618   0.510
 6312TIP3   OH243130   1.600   2.536   1.671
 6312TIP3    H143131   1.547   2.574   1.601
 6312TIP3    H243132   1.615   2.446   1.643
 6313TIP3   OH243133   0.299   3.268   1.417
 6313TIP3    H143134   0.282   3.273   1.511
 6313TIP3    H243135   0.256   3.186   1.389
 6314TIP3   OH243136   0.604   2.014   1.098
 6314TIP3    H143137   0.535   1.999   1.033
 6314TIP3    H243138   0.571   2.086   1.152
 6315TIP3   OH243139   1.053   2.038   1.463
 6315TIP3    H143140   1.094   1.979   1.527
 6315TIP3    H243141   0.959   2.030   1.479
 6316TIP3   OH243142   1.350   2.348   1.514
 6316TIP3    H143143   1.302   2.314   1.590
 6316TIP3    H243144   1.345   2.444   1.524
 6317TIP3   OH243145   1.432   2.806   0.048
 6317TIP3    H143146   1.407   2.813  -0.044
 6317TIP3    H243147   1.522   2.839   0.052
 6318TIP3   OH243148   0.891   2.284   0.168
 6318TIP3    H143149   0.868   2.226   0.241
 6318TIP3    H243150   0.812   2.290   0.115
 6319TIP3   OH243151   0.569   2.532   1.198
 6319TIP3    H143152   0.486   2.543   1.246
 6319TIP3    H243153   0.602   2.621   1.187
 6320TIP3   OH243154   0.592   2.539   0.691
 6320TIP3    H143155   0.497   2.526   0.684
 6320TIP3    H243156   0.624   2.520   0.602
 6321TIP3   OH243157   1.121   2.558   0.532
 6321TIP3    H143158   1.112   2.653   0.523
 6321TIP3    H243159   1.182   2.533   0.463
 6322TIP3   OH243160   1.137   2.657   1.616
 6322TIP3    H143161   1.087   2.576   1.610
 6322TIP3    H243162   1.210   2.636   1.675
 6323TIP3   OH243163   1.252   2.526   0.775
 6323TIP3    H143164   1.194   2.553   0.703
 6323TIP3    H243165   1.300   2.451   0.740
 6324TIP3   OH243166   0.307   2.562   1.305
 6324TIP3    H143167   0.267   2.623   1.367
 6324TIP3    H243168   0.294   2.476   1.344
 6325TIP3   OH243169   0.605   2.279   0.106
 6325TIP3    H143170   0.570   2.234   0.183
 6325TIP3    H243171   0.598   2.372   0.127
 6326TIP3   OH243172   0.085   2.283   0.757
 6326TIP3    H143173   0.130   2.251   0.835
 6326TIP3    H243174   0.114   2.224   0.687
 6327TIP3   OH243175   0.122   2.392   0.324
 6327TIP3    H143176   0.193   2.438   0.280
 6327TIP3    H243177   0.045   2.447   0.309
 6328TIP3   OH243178   1.214   2.638   1.293
 6328TIP3    H143179   1.234   2.601   1.207
 6328TIP3    H243180   1.137   2.590   1.322
 6329TIP3   OH243181   0.903   2.233   0.755
 6329TIP3    H143182   0.811   2.239   0.783
 6329TIP3    H243183   0.949   2.197   0.831
 6330TIP3   OH243184   0.335   2.465   0.643
 6330TIP3    H143185   0.252   2.496   0.606
 6330TIP3    H243186   0.337   2.372   0.622
 6331TIP3   OH243187   0.646   2.446   0.437
 6331TIP3    H143188   0.741   2.438   0.444
 6331TIP3    H243189   0.631   2.485   0.351
 6332TIP3   OH243190   1.239   2.248   1.059
 6332TIP3    H143191   1.223   2.235   1.152
 6332TIP3    H243192   1.172   2.195   1.015
 6333TIP3   OH243193   0.568   2.535   0.188
 6333TIP3    H143194   0.477   2.558   0.171
 6333TIP3    H243195   0.619   2.604   0.145
 6334TIP3   OH243196   1.614   3.786   1.740
 6334TIP3    H143197   1.637   3.810   1.650
 6334TIP3    H243198   1.686   3.822   1.793
 6335TIP3   OH243199   0.479   2.983   1.670
 6335TIP3    H143200   0.528   2.989   1.752
 6335TIP3    H243201   0.388   2.996   1.695
 6336TIP3   OH243202   0.942   2.590   0.945
 6336TIP3    H143203   1.019   2.545   0.910
 6336TIP3    H243204   0.905   2.529   1.009
 6337TIP3   OH243205   0.418   2.192   0.621
 6337TIP3    H143206   0.378   2.108   0.645
 6337TIP3    H243207   0.447   2.179   0.530
 6338TIP3   OH243208   0.830   2.441   1.149
 6338TIP3    H143209   0.747   2.482   1.173
 6338TIP3    H243210   0.889   2.461   1.221
 6339TIP3   OH243211   0.917   3.000   0.420
 6339TIP3    H143212   0.847   2.950   0.378
 6339TIP3    H243213   0.874   3.047   0.491
 6340TIP3   OH243214   1.622   2.993   1.143
 6340TIP3    H143215   1.694   3.048   1.111
 6340TIP3    H243216   1.566   2.979   1.066
 6341TIP3   OH243217   1.161   2.286   0.233
 6341TIP3    H143218   1.069   2.297   0.208
 6341TIP3    H243219   1.192   2.375   0.250
 6342TIP3   OH243220   1.050   3.093   1.567
 6342TIP3    H143221   1.083   3.083   1.657
 6342TIP3    H243222   1.021   3.184   1.562
 6343TIP3   OH243223   1.295   2.517   0.315
 6343TIP3    H143224   1.379   2.486   0.279
 6343TIP3    H243225   1.298   2.612   0.305
 6344TIP3   OH243226   0.354   2.951   0.936
 6344TIP3    H143227   0.423   2.936   0.871
 6344TIP3    H243228   0.377   2.895   1.010
 6345TIP3   OH243229   1.137   3.136   0.304
 6345TIP3    H143230   1.094   3.220   0.287
 6345TIP3    H243231   1.066   3.077   0.329
 6346TIP3   OH243232   0.191   2.758   1.472
 6346TIP3    H143233   0.202   2.729   1.562
 6346TIP3    H243234   0.096   2.758   1.458
 6347TIP3   OH243235   0.839   2.820   1.663
 6347TIP3    H143236   0.775   2.777   1.606
 6347TIP3    H243237   0.833   2.772   1.745
 6348TIP3   OH243238   1.258   3.339   1.555
 6348TIP3    H143239   1.167   3.356   1.529
 6348TIP3    H243240   1.256   3.344   1.651
 6349TIP3   OH243241   1.761   2.543   0.325
 6349TIP3    H143242   1.683   2.519   0.276
 6349TIP3    H243243   1.770   2.638   0.312
 6350TIP3   OH243244   1.892   3.178   1.622
 6350TIP3    H143245   1.799   3.159   1.637
 6350TIP3    H243246   1.908   3.149   1.533
 6351TIP3   OH243247   1.698   3.461   0.439
 6351TIP3    H143248   1.650   3.406   0.501
 6351TIP3    H243249   1.698   3.411   0.358
 6352TIP3   OH243250   1.470   2.938   0.908
 6352TIP3    H143251   1.403   2.952   0.842
 6352TIP3    H243252   1.482   2.843   0.911
 6353TIP3   OH243253   0.684   3.330   0.741
 6353TIP3    H143254   0.718   3.402   0.688
 6353TIP3    H243255   0.591   3.349   0.749
 6354TIP3   OH243256   0.161   2.808   0.191
 6354TIP3    H143257   0.194   2.855   0.268
 6354TIP3    H243258   0.066   2.809   0.202
 6355TIP3   OH243259   0.726   3.099   0.599
 6355TIP3    H143260   0.721   3.177   0.654
 6355TIP3    H243261   0.672   3.034   0.643
 6356TIP3   OH243262   0.868   3.505   1.334
 6356TIP3    H143263   0.917   3.586   1.318
 6356TIP3    H243264   0.923   3.454   1.392
 6357TIP3   OH243265   0.687   3.565   0.584
 6357TIP3    H143266   0.599   3.570   0.622
 6357TIP3    H243267   0.736   3.633   0.630
 6358TIP3   OH243268   1.146   3.131   1.296
 6358TIP3    H143269   1.085   3.117   1.369
 6358TIP3    H243270   1.231   3.104   1.331
 6359TIP3   OH243271   1.401   3.228   0.227
 6359TIP3    H143272   1.455   3.193   0.298
 6359TIP3    H243273   1.314   3.191   0.244
 6360TIP3   OH243274   1.472   3.495   1.479
 6360TIP3    H143275   1.389   3.451   1.496
 6360TIP3    H243276   1.449   3.571   1.427
 6361TIP3   OH243277   1.788   3.644   0.169
 6361TIP3    H143278   1.876   3.680   0.174
 6361TIP3    H243279   1.733   3.709   0.214
 6362TIP3   OH243280   0.256   2.309   1.404
 6362TIP3    H143281   0.224   2.302   1.494
 6362TIP3    H243282   0.201   2.248   1.354
 6363TIP3   OH243283   1.560   3.101   0.420
 6363TIP3    H143284   1.523   3.016   0.442
 6363TIP3    H243285   1.655   3.087   0.423
 6364TIP3   OH243286   0.254   3.508   1.275
 6364TIP3    H143287   0.272   3.436   1.336
 6364TIP3    H243288   0.257   3.587   1.329
 6365TIP3   OH243289   0.625   3.225   0.364
 6365TIP3    H143290   0.666   3.180   0.438
 6365TIP3    H243291   0.675   3.305   0.353
 6366TIP3   OH243292   0.274   2.965   0.393
 6366TIP3    H143293   0.206   3.028   0.417
 6366TIP3    H243294   0.333   3.014   0.336
 6367TIP3   OH243295   1.182   2.236   1.326
 6367TIP3    H143296   1.251   2.266   1.384
 6367TIP3    H243297   1.140   2.164   1.373
 6368TIP3   OH243298   1.239   2.168   0.475
 6368TIP3    H143299   1.217   2.211   0.392
 6368TIP3    H243300   1.285   2.236   0.525
 6369TIP3   OH243301   1.014   3.379   0.297
 6369TIP3    H143302   0.921   3.403   0.304
 6369TIP3    H243303   1.051   3.403   0.382
 6370TIP3   OH243304   0.904   2.388   0.526
 6370TIP3    H143305   0.978   2.448   0.524
 6370TIP3    H243306   0.908   2.347   0.612
 6371TIP3   OH243307   1.013   2.454   1.353
 6371TIP3    H143308   0.998   2.442   1.447
 6371TIP3    H243309   1.066   2.378   1.328
 6372TIP3   OH243310   1.014   2.046   0.578
 6372TIP3    H143311   0.985   2.114   0.638
 6372TIP3    H243312   1.097   2.077   0.544
 6373TIP3   OH243313   0.756   3.473   0.335
 6373TIP3    H143314   0.747   3.546   0.275
 6373TIP3    H243315   0.735   3.509   0.421
 6374TIP3   OH243316   0.549   2.192   0.368
 6374TIP3    H143317   0.558   2.283   0.396
 6374TIP3    H243318   0.636   2.154   0.381
 6375TIP3   OH243319   1.617   2.287   1.544
 6375TIP3    H143320   1.524   2.291   1.522
 6375TIP3    H243321   1.662   2.296   1.461
 6376TIP3   OH243322   1.480   2.659   0.884
 6376TIP3    H143323   1.399   2.619   0.853
 6376TIP3    H243324   1.516   2.596   0.946
 6377TIP3   OH243325   0.438   3.098   0.214
 6377TIP3    H143326   0.495   3.151   0.269
 6377TIP3    H243327   0.497   3.055   0.152
 6378TIP3   OH243328   0.289   2.566   0.162
 6378TIP3    H143329   0.254   2.653   0.179
 6378TIP3    H243330   0.239   2.535   0.087
 6379TIP3   OH243331   1.584   3.636   1.086
 6379TIP3    H143332   1.570   3.713   1.030
 6379TIP3    H243333   1.678   3.639   1.107
 6380TIP3   OH243334   0.375   1.978   0.951
 6380TIP3    H143335   0.357   1.961   0.858
 6380TIP3    H243336   0.338   1.902   0.996
 6381TIP3   OH243337   0.019   3.436   0.373
 6381TIP3    H143338  -0.025   3.472   0.450
 6381TIP3    H243339   0.087   3.499   0.352
 6382TIP3   OH243340   0.066   3.672   1.718
 6382TIP3    H143341   0.121   3.639   1.789
 6382TIP3    H243342   0.011   3.598   1.693
 6383TIP3   OH243343   0.520   3.521   1.904
 6383TIP3    H143344   0.584   3.483   1.964
 6383TIP3    H243345   0.528   3.469   1.824
 6384TIP3   OH243346   1.109   3.484   0.059
 6384TIP3    H143347   1.078   3.435   0.135
 6384TIP3    H243348   1.204   3.479   0.065
 6385TIP3   OH243349   1.244   3.348   1.829
 6385TIP3    H143350   1.241   3.266   1.878
 6385TIP3    H243351   1.317   3.396   1.868
 6386TIP3   OH243352   1.385   3.483   0.092
 6386TIP3    H143353   1.403   3.401   0.137
 6386TIP3    H243354   1.462   3.499   0.038
 6387TIP3   OH243355   0.232   3.010   1.783
 6387TIP3    H143356   0.257   2.942   1.846
 6387TIP3    H243357   0.136   3.013   1.788
 6388TIP3   OH243358   0.661   2.987   0.086
 6388TIP3    H143359   0.681   2.960   0.175
 6388TIP3    H243360   0.736   3.040   0.059
 6389TIP3   OH243361   0.821   3.073   1.782
 6389TIP3    H143362   0.793   3.129   1.709
 6389TIP3    H243363   0.835   2.987   1.742
 6390TIP3   OH243364   1.365   3.093   1.474
 6390TIP3    H143365   1.457   3.103   1.452
 6390TIP3    H243366   1.338   3.180   1.503
 6391TIP3   OH243367   0.262   2.666   1.720
 6391TIP3    H143368   0.336   2.605   1.723
 6391TIP3    H243369   0.272   2.721   1.797
 6392TIP3   OH243370   0.694   2.863   0.334
 6392TIP3    H143371   0.622   2.836   0.391
 6392TIP3    H243372   0.714   2.785   0.281
 6393TIP3   OH243373   0.693   2.706   1.444
 6393TIP3    H143374   0.608   2.751   1.445
 6393TIP3    H243375   0.728   2.724   1.357
 6394TIP3   OH243376   0.792   2.699   0.132
 6394TIP3    H143377   0.801   2.760   0.059
 6394TIP3    H243378   0.881   2.671   0.152
 6395TIP3   OH243379   1.155   2.919   1.764
 6395TIP3    H143380   1.247   2.905   1.739
 6395TIP3    H243381   1.138   2.850   1.829
 6396TIP3   OH243382   1.682   2.919   0.052
 6396TIP3    H143383   1.761   2.909  -0.002
 6396TIP3    H243384   1.661   3.012   0.047
 6397TIP3   OH243385   0.674   2.451   1.550
 6397TIP3    H143386   0.696   2.385   1.484
 6397TIP3    H243387   0.683   2.535   1.504
 6398TIP3   OH243388   0.725   2.263   1.346
 6398TIP3    H143389   0.773   2.298   1.270
 6398TIP3    H243390   0.636   2.249   1.314
 6399TIP3   OH243391   0.943   2.880   1.349
 6399TIP3    H143392   0.975   2.849   1.264
 6399TIP3    H243393   0.865   2.930   1.328
 6400TIP3   OH243394   1.332   2.558   1.790
 6400TIP3    H143395   1.316   2.481   1.846
 6400TIP3    H243396   1.427   2.560   1.780
 6401TIP3   OH243397   1.405   2.882   1.645
 6401TIP3    H143398   1.380   2.953   1.587
 6401TIP3    H243399   1.501   2.879   1.640
 6402TIP3   OH243400   0.466   2.472   1.730
 6402TIP3    H143401   0.440   2.381   1.747
 6402TIP3    H243402   0.534   2.465   1.662
 6403TIP3   OH243403   0.777   2.014   1.452
 6403TIP3    H143404   0.759   2.102   1.420
 6403TIP3    H243405   0.710   1.959   1.412
 6404TIP3   OH243406   0.804   2.460   1.791
 6404TIP3    H143407   0.759   2.398   1.848
 6404TIP3    H243408   0.753   2.461   1.710
 6405TIP3   OH243409   1.018   2.412   1.624
 6405TIP3    H143410   0.947   2.418   1.688
 6405TIP3    H243411   1.073   2.341   1.657
 6406TIP3   OH243412   1.209   2.237   1.723
 6406TIP3    H143413   1.171   2.151   1.739
 6406TIP3    H243414   1.235   2.269   1.809
 6407TIP3   OH243415   0.418   2.204   1.795
 6407TIP3    H143416   0.388   2.141   1.729
 6407TIP3    H243417   0.389   2.166   1.879
 6408TIP3   OH243418   0.759   1.935   1.712
 6408TIP3    H143419   0.810   1.854   1.710
 6408TIP3    H243420   0.758   1.964   1.621
 6409TIP3   OH243421   0.901   2.140   1.829
 6409TIP3    H143422   0.861   2.063   1.789
 6409TIP3    H243423   0.826   2.193   1.858
 6410TIP3   OH243424   0.742   3.684   0.149
 6410TIP3    H143425   0.834   3.711   0.158
 6410TIP3    H243426   0.699   3.758   0.106
 6411TIP3   OH243427   0.180   3.145   0.135
 6411TIP3    H143428   0.273   3.137   0.159
 6411TIP3    H243429   0.166   3.074   0.072
 6412TIP3   OH243430   0.108   3.670   0.619
 6412TIP3    H143431   0.020   3.706   0.634
 6412TIP3    H243432   0.121   3.608   0.690
 6413TIP3   OH243433   0.187   3.511   0.829
 6413TIP3    H143434   0.173   3.429   0.877
 6413TIP3    H243435   0.208   3.575   0.897
 6414TIP3   OH243436   1.843   3.654   1.179
 6414TIP3    H143437   1.835   3.619   1.268
 6414TIP3    H243438   1.901   3.729   1.188
 6415TIP3   OH243439   1.804   3.549   1.427
 6415TIP3    H143440   1.760   3.470   1.397
 6415TIP3    H243441   1.847   3.524   1.508
 6416TIP3   OH243442   1.703   3.204   1.847
 6416TIP3    H143443   1.619   3.198   1.893
 6416TIP3    H243444   1.751   3.272   1.895
 6417TIP3   OH243445   1.824   3.022   0.454
 6417TIP3    H143446   1.897   3.083   0.456
 6417TIP3    H243447   1.846   2.957   0.521
 6418TIP3   OH243448   1.880   2.812   0.623
 6418TIP3    H143449   1.797   2.772   0.647
 6418TIP3    H243450   1.926   2.824   0.706
 6419TIP3   OH243451   1.865   3.132   1.110
 6419TIP3    H143452   1.913   3.103   1.033
 6419TIP3    H243453   1.876   3.228   1.111
 6420TIP3   OH243454   1.647   3.341   1.335
 6420TIP3    H143455   1.581   3.390   1.384
 6420TIP3    H243456   1.615   3.341   1.245
 6421TIP3   OH243457   1.789   2.811   0.280
 6421TIP3    H143458   1.741   2.844   0.204
 6421TIP3    H243459   1.790   2.884   0.342
 6422TIP3   OH243460   1.537   2.475   0.177
 6422TIP3    H143461   1.538   2.533   0.102
 6422TIP3    H243462   1.563   2.390   0.142
 6423TIP3   OH243463   1.635   2.685   0.658
 6423TIP3    H143464   1.639   2.594   0.629
 6423TIP3    H243465   1.588   2.682   0.741
 6424TIP3   OH243466   0.104   2.983   1.088
 6424TIP3    H143467   0.182   2.983   1.031
 6424TIP3    H243468   0.139   2.996   1.176
 6425TIP3   OH243469   1.675   2.894   1.610
 6425TIP3    H143470   1.739   2.824   1.594
 6425TIP3    H243471   1.678   2.947   1.531
 6426TIP3   OH243472   1.851   2.680   1.642
 6426TIP3    H143473   1.781   2.621   1.670
 6426TIP3    H243474   1.926   2.656   1.696
 6427TIP3   OH243475   1.658   2.263   0.043
 6427TIP3    H143476   1.723   2.205   0.082
 6427TIP3    H243477   1.623   2.214  -0.031
 6428TIP3   OH243478   1.644   2.427   0.551
 6428TIP3    H143479   1.671   2.335   0.551
 6428TIP3    H243480   1.687   2.464   0.473
 6429TIP3   OH243481   1.608   2.476   1.053
 6429TIP3    H143482   1.700   2.486   1.028
 6429TIP3    H243483   1.607   2.490   1.147
 6430TIP3   OH243484   1.633   2.557   1.326
 6430TIP3    H143485   1.554   2.582   1.373
 6430TIP3    H243486   1.677   2.640   1.307
 6431TIP3   OH243487   0.147   2.267   1.661
 6431TIP3    H143488   0.168   2.316   1.740
 6431TIP3    H243489   0.173   2.177   1.680
 6432TIP3   OH243490   1.812   1.976   1.885
 6432TIP3    H143491   1.893   1.926   1.888
 6432TIP3    H243492   1.824   2.038   1.814
 6433TIP3   OH243493   1.685   2.153   0.527
 6433TIP3    H143494   1.687   2.109   0.612
 6433TIP3    H243495   1.611   2.113   0.481
 6434TIP3   OH243496   0.232   2.205   0.991
 6434TIP3    H143497   0.279   2.123   0.979
 6434TIP3    H243498   0.300   2.272   0.995
 6435TIP3   OH243499   0.103   2.507   1.112
 6435TIP3    H143500   0.155   2.510   1.032
 6435TIP3    H243501   0.166   2.525   1.182
 6436TIP3   OH243502   1.809   2.122   1.649
 6436TIP3    H143503   1.735   2.180   1.629
 6436TIP3    H243504   1.801   2.050   1.587
 6437TIP3   OH243505   1.862   2.119   0.168
 6437TIP3    H143506   1.939   2.064   0.153
 6437TIP3    H243507   1.898   2.200   0.203
 6438TIP3   OH243508   0.079   2.171   0.485
 6438TIP3    H143509  -0.016   2.169   0.475
 6438TIP3    H243510   0.107   2.248   0.435
 6439TIP3   OH243511   1.497   3.726   0.738
 6439TIP3    H143512   1.566   3.732   0.673
 6439TIP3    H243513   1.529   3.779   0.812
 6440TIP3   OH243514   0.132   2.117   1.250
 6440TIP3    H143515   0.043   2.083   1.250
 6440TIP3    H243516   0.146   2.146   1.160
 6441TIP3   OH243517   0.270   3.274   1.692
 6441TIP3    H143518   0.228   3.323   1.763
 6441TIP3    H243519   0.264   3.183   1.720
 6442TIP3   OH243520   0.601   3.500   1.405
 6442TIP3    H143521   0.571   3.587   1.379
 6442TIP3    H243522   0.696   3.502   1.391
 6443TIP3   OH243523   0.969   3.612   1.658
 6443TIP3    H143524   0.977   3.581   1.748
 6443TIP3    H243525   1.046   3.668   1.645
 6444TIP3   OH243526   1.195   3.766   1.629
 6444TIP3    H143527   1.266   3.741   1.570
 6444TIP3    H243528   1.237   3.779   1.714
 6445TIP3   OH243529   1.754   1.916   1.471
 6445TIP3    H143530   1.704   1.945   1.395
 6445TIP3    H243531   1.771   1.823   1.455
 6446TIP3   OH243532   0.276   3.778   1.367
 6446TIP3    H143533   0.224   3.846   1.326
 6446TIP3    H243534   0.275   3.799   1.460
 6447TIP3   OH243535   0.547   3.756   1.316
 6447TIP3    H143536   0.454   3.766   1.336
 6447TIP3    H243537   0.557   3.797   1.230
 6448TIP3   OH243538   0.996   3.734   1.251
 6448TIP3    H143539   0.946   3.766   1.176
 6448TIP3    H243540   1.007   3.811   1.307
 6449TIP3   OH243541   1.205   3.568   1.309
 6449TIP3    H143542   1.131   3.623   1.284
 6449TIP3    H243543   1.281   3.626   1.303
 6450TIP3   OH243544   1.439   3.713   1.306
 6450TIP3    H143545   1.463   3.806   1.309
 6450TIP3    H243546   1.483   3.679   1.228
 6451TIP3   OH243547   0.295   3.653   1.040
 6451TIP3    H143548   0.263   3.627   1.126
 6451TIP3    H243549   0.374   3.600   1.027
 6452TIP3   OH243550   0.505   3.487   0.986
 6452TIP3    H143551   0.487   3.395   1.002
 6452TIP3    H243552   0.591   3.502   1.025
 6453TIP3   OH243553   0.761   3.502   1.082
 6453TIP3    H143554   0.770   3.411   1.052
 6453TIP3    H243555   0.795   3.501   1.171
 6454TIP3   OH243556   1.049   2.082   0.938
 6454TIP3    H143557   0.988   2.018   0.972
 6454TIP3    H243558   1.125   2.031   0.909
 6455TIP3   OH243559   1.530   1.976   0.985
 6455TIP3    H143560   1.582   2.015   0.916
 6455TIP3    H243561   1.440   1.983   0.955
 6456TIP3   OH243562   1.712   2.016   0.774
 6456TIP3    H143563   1.777   1.947   0.762
 6456TIP3    H243564   1.764   2.095   0.789
 6457TIP3   OH243565   0.322   1.940   0.681
 6457TIP3    H143566   0.237   1.907   0.652
 6457TIP3    H243567   0.379   1.862   0.682
 6458TIP3   OH243568   0.085   1.993   0.264
 6458TIP3    H143569   0.172   2.017   0.234
 6458TIP3    H243570   0.073   2.043   0.345
 6459TIP3   OH243571   0.825   1.890   0.733
 6459TIP3    H143572   0.898   1.933   0.688
 6459TIP3    H243573   0.844   1.901   0.826
 6460TIP3   OH243574   1.275   1.939   0.865
 6460TIP3    H143575   1.300   1.915   0.776
 6460TIP3    H243576   1.256   1.855   0.908
 6461TIP3   OH243577   1.469   2.021   0.412
 6461TIP3    H143578   1.391   2.075   0.424
 6461TIP3    H243579   1.437   1.931   0.416
 6462TIP3   OH243580   0.189   3.658   0.357
 6462TIP3    H143581   0.172   3.662   0.451
 6462TIP3    H243582   0.159   3.743   0.324
 6463TIP3   OH243583   0.348   2.049   0.223
 6463TIP3    H143584   0.390   1.967   0.197
 6463TIP3    H243585   0.414   2.094   0.276
 6464TIP3   OH243586   0.820   2.155   0.403
 6464TIP3    H143587   0.873   2.089   0.448
 6464TIP3    H243588   0.847   2.238   0.443
 6465TIP3   OH243589   1.020   3.720   0.178
 6465TIP3    H143590   1.106   3.762   0.175
 6465TIP3    H243591   1.031   3.639   0.128
 6466TIP3   OH243592   1.696   3.714   0.537
 6466TIP3    H143593   1.689   3.624   0.506
 6466TIP3    H243594   1.690   3.767   0.458
 6467TIP3   OH243595   0.274   1.983   1.682
 6467TIP3    H143596   0.195   1.931   1.699
 6467TIP3    H243597   0.345   1.934   1.723
 6468TIP3   OH243598   0.511   1.871   1.816
 6468TIP3    H143599   0.592   1.906   1.779
 6468TIP3    H243600   0.534   1.780   1.839
 6469TIP3   OH243601   0.417   3.657   0.193
 6469TIP3    H143602   0.343   3.646   0.253
 6469TIP3    H243603   0.490   3.615   0.238
 6470TIP3   OH243604   1.388   1.780   1.796
 6470TIP3    H143605   1.409   1.722   1.869
 6470TIP3    H243606   1.473   1.805   1.759
 6471TIP3   OH243607   1.624   3.514   1.713
 6471TIP3    H143608   1.572   3.500   1.634
 6471TIP3    H243609   1.618   3.608   1.730
 6472TIP3   OH243610   3.098   2.897   0.647
 6472TIP3    H143611   3.079   2.991   0.657
 6472TIP3    H243612   3.040   2.869   0.577
 6473TIP3   OH243613   3.009   2.862   1.037
 6473TIP3    H143614   3.017   2.797   1.106
 6473TIP3    H243615   2.982   2.812   0.960
 6474TIP3   OH243616   2.226   2.813   1.198
 6474TIP3    H143617   2.248   2.824   1.291
 6474TIP3    H243618   2.307   2.835   1.152
 6475TIP3   OH243619   3.391   3.149   0.867
 6475TIP3    H143620   3.353   3.069   0.903
 6475TIP3    H243621   3.389   3.212   0.939
 6476TIP3   OH243622   2.395   3.229   0.889
 6476TIP3    H143623   2.346   3.147   0.882
 6476TIP3    H243624   2.476   3.205   0.933
 6477TIP3   OH243625   2.001   2.602   0.482
 6477TIP3    H143626   1.970   2.680   0.528
 6477TIP3    H243627   1.926   2.573   0.430
 6478TIP3   OH243628   2.049   2.833   0.844
 6478TIP3    H143629   2.082   2.743   0.843
 6478TIP3    H243630   2.127   2.888   0.844
 6479TIP3   OH243631   3.125   3.594   0.968
 6479TIP3    H143632   3.141   3.552   0.883
 6479TIP3    H243633   3.110   3.522   1.029
 6480TIP3   OH243634   2.844   3.067   1.129
 6480TIP3    H143635   2.898   3.001   1.086
 6480TIP3    H243636   2.903   3.113   1.188
 6481TIP3   OH243637   3.701   2.183   1.195
 6481TIP3    H143638   3.687   2.252   1.259
 6481TIP3    H243639   3.774   2.214   1.141
 6482TIP3   OH243640   3.101   2.497   1.054
 6482TIP3    H143641   3.098   2.403   1.069
 6482TIP3    H243642   3.098   2.506   0.958
 6483TIP3   OH243643   2.488   2.296   0.781
 6483TIP3    H143644   2.499   2.377   0.731
 6483TIP3    H243645   2.425   2.245   0.731
 6484TIP3   OH243646   3.272   2.357   0.681
 6484TIP3    H143647   3.300   2.320   0.765
 6484TIP3    H243648   3.352   2.391   0.642
 6485TIP3   OH243649   2.123   2.567   0.853
 6485TIP3    H143650   2.181   2.514   0.909
 6485TIP3    H243651   2.144   2.539   0.764
 6486TIP3   OH243652   2.591   2.693   0.846
 6486TIP3    H143653   2.677   2.658   0.868
 6486TIP3    H243654   2.555   2.630   0.783
 6487TIP3   OH243655   3.652   2.362   1.398
 6487TIP3    H143656   3.610   2.445   1.377
 6487TIP3    H243657   3.721   2.386   1.461
 6488TIP3   OH243658   2.377   2.245   1.193
 6488TIP3    H143659   2.345   2.297   1.119
 6488TIP3    H243660   2.312   2.261   1.262
 6489TIP3   OH243661   3.056   3.169   0.627
 6489TIP3    H143662   3.146   3.200   0.626
 6489TIP3    H243663   3.004   3.245   0.601
 6490TIP3   OH243664   2.599   2.981   1.242
 6490TIP3    H143665   2.551   3.060   1.267
 6490TIP3    H243666   2.683   3.013   1.209
 6491TIP3   OH243667   3.334   2.273   0.937
 6491TIP3    H143668   3.380   2.190   0.948
 6491TIP3    H243669   3.388   2.337   0.983
 6492TIP3   OH243670   2.314   2.397   0.972
 6492TIP3    H143671   2.365   2.463   1.020
 6492TIP3    H243672   2.375   2.362   0.907
 6493TIP3   OH243673   2.460   3.205   1.337
 6493TIP3    H143674   2.480   3.298   1.323
 6493TIP3    H243675   2.367   3.203   1.359
 6494TIP3   OH243676   2.047   3.186   0.453
 6494TIP3    H143677   2.043   3.237   0.372
 6494TIP3    H243678   2.076   3.249   0.519
 6495TIP3   OH243679   3.359   3.338   1.068
 6495TIP3    H143680   3.271   3.355   1.100
 6495TIP3    H243681   3.392   3.424   1.042
 6496TIP3   OH243682   3.463   2.051   1.297
 6496TIP3    H143683   3.424   2.128   1.337
 6496TIP3    H243684   3.530   2.085   1.238
 6497TIP3   OH243685   2.704   1.898   0.968
 6497TIP3    H143686   2.681   1.806   0.977
 6497TIP3    H243687   2.627   1.945   0.998
 6498TIP3   OH243688   3.219   3.498   0.708
 6498TIP3    H143689   3.255   3.414   0.682
 6498TIP3    H243690   3.295   3.550   0.735
 6499TIP3   OH243691   3.320   3.256   0.627
 6499TIP3    H143692   3.372   3.217   0.557
 6499TIP3    H243693   3.353   3.216   0.707
 6500TIP3   OH243694   3.516   3.118   1.412
 6500TIP3    H143695   3.504   3.063   1.334
 6500TIP3    H243696   3.537   3.204   1.378
 6501TIP3   OH243697   2.965   2.825   0.415
 6501TIP3    H143698   2.896   2.885   0.385
 6501TIP3    H243699   3.033   2.832   0.348
 6502TIP3   OH243700   2.985   2.665   0.125
 6502TIP3    H143701   3.063   2.707   0.162
 6502TIP3    H243702   3.019   2.592   0.073
 6503TIP3   OH243703   3.628   2.805   1.311
 6503TIP3    H143704   3.575   2.869   1.262
 6503TIP3    H243705   3.710   2.801   1.263
 6504TIP3   OH243706   3.334   2.874   0.502
 6504TIP3    H143707   3.258   2.883   0.560
 6504TIP3    H243708   3.396   2.821   0.552
 6505TIP3   OH243709   3.253   2.686   1.425
 6505TIP3    H143710   3.252   2.759   1.487
 6505TIP3    H243711   3.189   2.710   1.358
 6506TIP3   OH243712   2.460   2.875   0.668
 6506TIP3    H143713   2.430   2.833   0.587
 6506TIP3    H243714   2.513   2.808   0.711
 6507TIP3   OH243715   2.662   3.213   0.971
 6507TIP3    H143716   2.692   3.216   0.880
 6507TIP3    H243717   2.730   3.164   1.017
 6508TIP3   OH243718   2.463   2.833   1.050
 6508TIP3    H143719   2.519   2.797   0.981
 6508TIP3    H243720   2.523   2.884   1.105
 6509TIP3   OH243721   3.113   3.398   1.180
 6509TIP3    H143722   3.106   3.465   1.248
 6509TIP3    H243723   3.073   3.320   1.220
 6510TIP3   OH243724   2.633   3.220   1.558
 6510TIP3    H143725   2.574   3.285   1.596
 6510TIP3    H243726   2.588   3.190   1.479
 6511TIP3   OH243727   3.202   2.795   0.264
 6511TIP3    H143728   3.255   2.828   0.337
 6511TIP3    H243729   3.238   2.839   0.187
 6512TIP3   OH243730   2.251   2.807   1.480
 6512TIP3    H143731   2.265   2.848   1.565
 6512TIP3    H243732   2.156   2.812   1.465
 6513TIP3   OH243733   2.986   3.436   0.557
 6513TIP3    H143734   3.055   3.458   0.619
 6513TIP3    H243735   2.945   3.519   0.535
 6514TIP3   OH243736   2.443   3.411   1.615
 6514TIP3    H143737   2.459   3.446   1.528
 6514TIP3    H243738   2.348   3.405   1.622
 6515TIP3   OH243739   3.627   1.979   0.298
 6515TIP3    H143740   3.544   2.020   0.320
 6515TIP3    H243741   3.671   2.042   0.241
 6516TIP3   OH243742   2.350   2.773   0.430
 6516TIP3    H143743   2.301   2.849   0.399
 6516TIP3    H243744   2.286   2.703   0.433
 6517TIP3   OH243745   3.702   3.447   0.115
 6517TIP3    H143746   3.717   3.535   0.149
 6517TIP3    H243747   3.771   3.394   0.155
 6518TIP3   OH243748   1.973   3.092   1.372
 6518TIP3    H143749   1.933   3.098   1.285
 6518TIP3    H243750   1.983   2.998   1.387
 6519TIP3   OH243751   1.934   3.401   1.105
 6519TIP3    H143752   2.014   3.413   1.157
 6519TIP3    H243753   1.885   3.482   1.117
 6520TIP3   OH243754   3.749   3.359   1.619
 6520TIP3    H143755   3.745   3.264   1.615
 6520TIP3    H243756   3.669   3.386   1.663
 6521TIP3   OH243757   2.857   3.378   1.509
 6521TIP3    H143758   2.845   3.454   1.565
 6521TIP3    H243759   2.780   3.323   1.528
 6522TIP3   OH243760   2.920   3.688   0.460
 6522TIP3    H143761   2.898   3.696   0.367
 6522TIP3    H243762   2.886   3.769   0.498
 6523TIP3   OH243763   2.311   3.589   0.667
 6523TIP3    H143764   2.337   3.564   0.755
 6523TIP3    H243765   2.251   3.520   0.639
 6524TIP3   OH243766   3.175   3.726   0.221
 6524TIP3    H143767   3.210   3.648   0.179
 6524TIP3    H243768   3.200   3.718   0.313
 6525TIP3   OH243769   3.193   3.686   0.498
 6525TIP3    H143770   3.098   3.686   0.488
 6525TIP3    H243771   3.210   3.619   0.564
 6526TIP3   OH243772   3.330   2.569   1.806
 6526TIP3    H143773   3.343   2.657   1.842
 6526TIP3    H243774   3.403   2.518   1.842
 6527TIP3   OH243775   2.195   3.259   1.417
 6527TIP3    H143776   2.186   3.288   1.508
 6527TIP3    H243777   2.122   3.199   1.403
 6528TIP3   OH243778   2.466   2.020   1.054
 6528TIP3    H143779   2.386   2.005   1.003
 6528TIP3    H243780   2.450   2.103   1.099
 6529TIP3   OH243781   2.897   2.037   1.376
 6529TIP3    H143782   2.938   1.952   1.392
 6529TIP3    H243783   2.805   2.024   1.402
 6530TIP3   OH243784   3.235   2.457   1.571
 6530TIP3    H143785   3.267   2.487   1.656
 6530TIP3    H243786   3.235   2.535   1.516
 6531TIP3   OH243787   3.311   2.911   0.045
 6531TIP3    H143788   3.281   2.908  -0.046
 6531TIP3    H243789   3.406   2.923   0.039
 6532TIP3   OH243790   2.775   2.315   0.196
 6532TIP3    H143791   2.768   2.257   0.272
 6532TIP3    H243792   2.699   2.294   0.142
 6533TIP3   OH243793   2.446   2.569   1.140
 6533TIP3    H143794   2.399   2.566   1.223
 6533TIP3    H243795   2.436   2.659   1.110
 6534TIP3   OH243796   2.474   2.537   0.648
 6534TIP3    H143797   2.379   2.530   0.639
 6534TIP3    H243798   2.508   2.528   0.559
 6535TIP3   OH243799   3.011   2.575   0.520
 6535TIP3    H143800   2.983   2.660   0.486
 6535TIP3    H243801   3.077   2.546   0.458
 6536TIP3   OH243802   2.832   2.591   1.679
 6536TIP3    H143803   2.779   2.519   1.712
 6536TIP3    H243804   2.910   2.591   1.734
 6537TIP3   OH243805   3.089   2.536   0.782
 6537TIP3    H143806   3.057   2.579   0.703
 6537TIP3    H243807   3.145   2.465   0.750
 6538TIP3   OH243808   2.328   2.549   1.387
 6538TIP3    H143809   2.280   2.622   1.427
 6538TIP3    H243810   2.269   2.474   1.395
 6539TIP3   OH243811   2.506   2.269   0.119
 6539TIP3    H143812   2.487   2.244   0.209
 6539TIP3    H243813   2.462   2.352   0.107
 6540TIP3   OH243814   1.908   2.202   0.764
 6540TIP3    H143815   1.969   2.222   0.836
 6540TIP3    H243816   1.963   2.195   0.687
 6541TIP3   OH243817   1.958   2.355   0.274
 6541TIP3    H143818   2.024   2.407   0.228
 6541TIP3    H243819   1.886   2.415   0.289
 6542TIP3   OH243820   3.038   2.674   1.244
 6542TIP3    H143821   3.070   2.616   1.175
 6542TIP3    H243822   3.001   2.615   1.310
 6543TIP3   OH243823   2.767   2.305   0.843
 6543TIP3    H143824   2.675   2.281   0.830
 6543TIP3    H243825   2.811   2.222   0.860
 6544TIP3   OH243826   2.210   2.473   0.609
 6544TIP3    H143827   2.137   2.503   0.554
 6544TIP3    H243828   2.212   2.379   0.596
 6545TIP3   OH243829   2.520   2.485   0.380
 6545TIP3    H143830   2.607   2.517   0.354
 6545TIP3    H243831   2.464   2.503   0.304
 6546TIP3   OH243832   3.089   2.222   1.063
 6546TIP3    H143833   3.032   2.168   1.009
 6546TIP3    H243834   3.173   2.222   1.016
 6547TIP3   OH243835   2.377   2.514   0.146
 6547TIP3    H143836   2.282   2.519   0.138
 6547TIP3    H243837   2.410   2.573   0.077
 6548TIP3   OH243838   3.534   3.756   1.713
 6548TIP3    H143839   3.559   3.791   1.628
 6548TIP3    H243840   3.604   3.783   1.772
 6549TIP3   OH243841   2.255   2.932   1.725
 6549TIP3    H143842   2.325   2.950   1.789
 6549TIP3    H243843   2.177   2.969   1.765
 6550TIP3   OH243844   2.827   2.562   0.914
 6550TIP3    H143845   2.915   2.568   0.877
 6550TIP3    H243846   2.802   2.471   0.899
 6551TIP3   OH243847   2.284   2.196   0.613
 6551TIP3    H143848   2.233   2.116   0.630
 6551TIP3    H243849   2.331   2.177   0.532
 6552TIP3   OH243850   2.705   2.532   1.226
 6552TIP3    H143851   2.617   2.543   1.189
 6552TIP3    H243852   2.764   2.542   1.151
 6553TIP3   OH243853   2.759   2.996   0.332
 6553TIP3    H143854   2.693   2.934   0.301
 6553TIP3    H243855   2.730   3.019   0.421
 6554TIP3   OH243856   3.486   2.990   1.172
 6554TIP3    H143857   3.550   3.039   1.120
 6554TIP3    H243858   3.415   2.972   1.110
 6555TIP3   OH243859   3.045   2.299   0.284
 6555TIP3    H143860   2.963   2.313   0.237
 6555TIP3    H243861   3.090   2.383   0.279
 6556TIP3   OH243862   2.894   3.054   1.543
 6556TIP3    H143863   2.940   3.029   1.623
 6556TIP3    H243864   2.823   3.110   1.573
 6557TIP3   OH243865   3.204   2.524   0.315
 6557TIP3    H143866   3.285   2.489   0.277
 6557TIP3    H243867   3.209   2.618   0.298
 6558TIP3   OH243868   2.296   2.963   0.867
 6558TIP3    H143869   2.345   2.943   0.788
 6558TIP3    H243870   2.344   2.918   0.937
 6559TIP3   OH243871   2.954   3.120   0.183
 6559TIP3    H143872   2.952   3.209   0.217
 6559TIP3    H243873   2.892   3.071   0.238
 6560TIP3   OH243874   1.974   2.820   1.441
 6560TIP3    H143875   1.946   2.771   1.518
 6560TIP3    H243876   1.907   2.802   1.375
 6561TIP3   OH243877   2.690   2.834   1.691
 6561TIP3    H143878   2.640   2.827   1.609
 6561TIP3    H243879   2.754   2.764   1.686
 6562TIP3   OH243880   3.129   3.359   1.560
 6562TIP3    H143881   3.038   3.361   1.529
 6562TIP3    H243882   3.121   3.366   1.655
 6563TIP3   OH243883   3.635   2.550   0.338
 6563TIP3    H143884   3.565   2.516   0.282
 6563TIP3    H243885   3.648   2.640   0.308
 6564TIP3   OH243886   3.739   3.083   1.573
 6564TIP3    H143887   3.653   3.086   1.531
 6564TIP3    H243888   3.799   3.056   1.503
 6565TIP3   OH243889   3.561   3.420   0.368
 6565TIP3    H143890   3.521   3.334   0.382
 6565TIP3    H243891   3.584   3.420   0.275
 6566TIP3   OH243892   3.285   2.923   0.990
 6566TIP3    H143893   3.190   2.922   1.003
 6566TIP3    H243894   3.305   2.838   0.951
 6567TIP3   OH243895   2.600   3.291   0.698
 6567TIP3    H143896   2.603   3.375   0.653
 6567TIP3    H243897   2.514   3.289   0.741
 6568TIP3   OH243898   2.048   2.810   0.180
 6568TIP3    H143899   2.102   2.869   0.232
 6568TIP3    H243900   1.963   2.808   0.225
 6569TIP3   OH243901   2.652   3.053   0.572
 6569TIP3    H143902   2.643   3.139   0.612
 6569TIP3    H243903   2.581   3.001   0.610
 6570TIP3   OH243904   2.776   3.493   1.272
 6570TIP3    H143905   2.825   3.575   1.261
 6570TIP3    H243906   2.822   3.447   1.343
 6571TIP3   OH243907   2.574   3.545   0.581
 6571TIP3    H143908   2.483   3.572   0.597
 6571TIP3    H243909   2.626   3.611   0.627
 6572TIP3   OH243910   3.026   3.160   1.319
 6572TIP3    H143911   2.970   3.139   1.394
 6572TIP3    H243912   3.114   3.137   1.348
 6573TIP3   OH243913   3.314   3.213   0.189
 6573TIP3    H143914   3.358   3.178   0.267
 6573TIP3    H243915   3.244   3.150   0.171
 6574TIP3   OH243916   3.347   3.489   1.453
 6574TIP3    H143917   3.264   3.453   1.483
 6574TIP3    H243918   3.323   3.563   1.398
 6575TIP3   OH243919   3.727   3.688   0.227
 6575TIP3    H143920   3.806   3.739   0.247
 6575TIP3    H243921   3.654   3.743   0.256
 6576TIP3   OH243922   2.196   2.304   1.401
 6576TIP3    H143923   2.118   2.322   1.453
 6576TIP3    H243924   2.210   2.210   1.410
 6577TIP3   OH243925   3.453   3.113   0.419
 6577TIP3    H143926   3.404   3.034   0.442
 6577TIP3    H243927   3.544   3.087   0.426
 6578TIP3   OH243928   2.148   3.492   1.266
 6578TIP3    H143929   2.176   3.415   1.315
 6578TIP3    H243930   2.165   3.566   1.325
 6579TIP3   OH243931   2.568   3.207   0.257
 6579TIP3    H143932   2.642   3.150   0.279
 6579TIP3    H243933   2.597   3.295   0.283
 6580TIP3   OH243934   2.198   2.984   0.334
 6580TIP3    H143935   2.148   3.042   0.390
 6580TIP3    H243936   2.245   3.042   0.275
 6581TIP3   OH243937   3.060   2.248   1.342
 6581TIP3    H143938   3.082   2.243   1.249
 6581TIP3    H243939   2.997   2.176   1.355
 6582TIP3   OH243940   3.146   2.178   0.506
 6582TIP3    H143941   3.112   2.221   0.428
 6582TIP3    H243942   3.180   2.250   0.560
 6583TIP3   OH243943   2.908   3.367   0.295
 6583TIP3    H143944   2.818   3.398   0.305
 6583TIP3    H243945   2.948   3.380   0.381
 6584TIP3   OH243946   2.804   2.397   0.576
 6584TIP3    H143947   2.872   2.462   0.558
 6584TIP3    H243948   2.806   2.386   0.671
 6585TIP3   OH243949   2.945   2.487   1.428
 6585TIP3    H143950   2.974   2.483   1.519
 6585TIP3    H243951   2.976   2.405   1.390
 6586TIP3   OH243952   2.926   2.040   0.598
 6586TIP3    H143953   2.931   2.058   0.692
 6586TIP3    H243954   3.004   2.083   0.562
 6587TIP3   OH243955   2.652   3.462   0.329
 6587TIP3    H143956   2.632   3.536   0.271
 6587TIP3    H243957   2.625   3.491   0.416
 6588TIP3   OH243958   2.470   2.212   0.392
 6588TIP3    H143959   2.476   2.307   0.404
 6588TIP3    H243960   2.558   2.180   0.414
 6589TIP3   OH243961   3.396   2.270   1.452
 6589TIP3    H143962   3.359   2.353   1.482
 6589TIP3    H243963   3.489   2.288   1.441
 6590TIP3   OH243964   3.329   2.663   0.893
 6590TIP3    H143965   3.248   2.622   0.865
 6590TIP3    H243966   3.369   2.600   0.953
 6591TIP3   OH243967   2.311   3.177   0.171
 6591TIP3    H143968   2.398   3.188   0.210
 6591TIP3    H243969   2.327   3.189   0.077
 6592TIP3   OH243970   2.101   2.545   0.125
 6592TIP3    H143971   2.092   2.636   0.154
 6592TIP3    H243972   2.050   2.541   0.045
 6593TIP3   OH243973   3.474   3.583   1.022
 6593TIP3    H143974   3.469   3.610   0.930
 6593TIP3    H243975   3.565   3.597   1.046
 6594TIP3   OH243976   2.213   1.986   0.947
 6594TIP3    H143977   2.195   1.978   0.854
 6594TIP3    H243978   2.184   1.903   0.985
 6595TIP3   OH243979   2.107   3.407   0.616
 6595TIP3    H143980   2.060   3.430   0.696
 6595TIP3    H243981   2.061   3.454   0.546
 6596TIP3   OH243982   2.032   3.666   1.774
 6596TIP3    H143983   2.086   3.621   1.839
 6596TIP3    H243984   1.974   3.598   1.740
 6597TIP3   OH243985   2.472   3.492   1.879
 6597TIP3    H143986   2.547   3.448   1.919
 6597TIP3    H243987   2.474   3.463   1.788
 6598TIP3   OH243988   2.991   3.483   0.054
 6598TIP3    H143989   2.955   3.430   0.125
 6598TIP3    H243990   3.085   3.484   0.070
 6599TIP3   OH243991   3.110   3.375   1.835
 6599TIP3    H143992   3.112   3.288   1.876
 6599TIP3    H243993   3.191   3.417   1.863
 6600TIP3   OH243994   3.258   3.479   0.117
 6600TIP3    H143995   3.276   3.392   0.153
 6600TIP3    H243996   3.330   3.494   0.056
 6601TIP3   OH243997   2.016   3.046   1.833
 6601TIP3    H143998   1.944   2.987   1.855
 6601TIP3    H243999   1.983   3.098   1.760
 6602TIP3   OH244000   2.545   2.918   0.003
 6602TIP3    H144001   2.548   2.895   0.096
 6602TIP3    H244002   2.625   2.970  -0.011
 6603TIP3   OH244003   2.684   3.090   1.794
 6603TIP3    H144004   2.661   3.135   1.712
 6603TIP3    H244005   2.702   3.000   1.767
 6604TIP3   OH244006   3.251   3.118   1.487
 6604TIP3    H144007   3.344   3.129   1.468
 6604TIP3    H244008   3.223   3.203   1.519
 6605TIP3   OH244009   2.087   2.635   1.784
 6605TIP3    H144010   2.177   2.612   1.759
 6605TIP3    H244011   2.098   2.687   1.864
 6606TIP3   OH244012   2.573   2.807   0.257
 6606TIP3    H144013   2.502   2.788   0.318
 6606TIP3    H244014   2.624   2.726   0.254
 6607TIP3   OH244015   2.561   2.784   1.443
 6607TIP3    H144016   2.466   2.786   1.455
 6607TIP3    H244017   2.579   2.851   1.376
 6608TIP3   OH244018   2.744   2.585   0.245
 6608TIP3    H144019   2.760   2.493   0.224
 6608TIP3    H244020   2.823   2.630   0.214
 6609TIP3   OH244021   3.027   2.946   1.766
 6609TIP3    H144022   3.106   2.907   1.727
 6609TIP3    H244023   2.993   2.878   1.825
 6610TIP3   OH244024   3.585   2.949   0.030
 6610TIP3    H144025   3.659   2.917  -0.021
 6610TIP3    H244026   3.586   3.044   0.016
 6611TIP3   OH244027   2.557   2.481   1.520
 6611TIP3    H144028   2.571   2.392   1.489
 6611TIP3    H244029   2.477   2.510   1.476
 6612TIP3   OH244030   2.606   2.276   1.339
 6612TIP3    H144031   2.661   2.338   1.292
 6612TIP3    H244032   2.529   2.265   1.284
 6613TIP3   OH244033   2.865   2.806   1.422
 6613TIP3    H144034   2.931   2.805   1.353
 6613TIP3    H244035   2.873   2.893   1.461
 6614TIP3   OH244036   3.063   2.522   1.860
 6614TIP3    H144037   3.071   2.446   1.917
 6614TIP3    H244038   3.153   2.544   1.836
 6615TIP3   OH244039   3.276   2.884   1.629
 6615TIP3    H144040   3.264   2.967   1.584
 6615TIP3    H244041   3.369   2.863   1.616
 6616TIP3   OH244042   2.340   2.510   1.751
 6616TIP3    H144043   2.294   2.426   1.756
 6616TIP3    H244044   2.415   2.493   1.694
 6617TIP3   OH244045   2.629   2.016   1.437
 6617TIP3    H144046   2.618   2.108   1.411
 6617TIP3    H244047   2.562   1.970   1.387
 6618TIP3   OH244048   2.720   2.363   1.777
 6618TIP3    H144049   2.783   2.320   1.835
 6618TIP3    H244050   2.635   2.336   1.810
 6619TIP3   OH244051   2.962   2.266   1.656
 6619TIP3    H144052   2.870   2.288   1.646
 6619TIP3    H244053   2.971   2.239   1.747
 6620TIP3   OH244054   3.232   2.199   1.781
 6620TIP3    H144055   3.237   2.106   1.801
 6620TIP3    H244056   3.202   2.239   1.863
 6621TIP3   OH244057   2.184   2.280   1.778
 6621TIP3    H144058   2.188   2.191   1.744
 6621TIP3    H244059   2.181   2.269   1.873
 6622TIP3   OH244060   2.612   1.870   1.668
 6622TIP3    H144061   2.680   1.805   1.653
 6622TIP3    H244062   2.612   1.924   1.589
 6623TIP3   OH244063   2.667   2.041   1.876
 6623TIP3    H144064   2.645   1.982   1.804
 6623TIP3    H244065   2.598   2.107   1.875
 6624TIP3   OH244066   2.628   3.674   0.148
 6624TIP3    H144067   2.717   3.708   0.159
 6624TIP3    H244068   2.579   3.747   0.109
 6625TIP3   OH244069   2.057   3.282   0.189
 6625TIP3    H144070   2.148   3.252   0.190
 6625TIP3    H244071   2.018   3.238   0.114
 6626TIP3   OH244072   1.932   3.733   0.687
 6626TIP3    H144073   1.858   3.718   0.629
 6626TIP3    H244074   1.942   3.650   0.735
 6627TIP3   OH244075   1.987   3.510   0.845
 6627TIP3    H144076   1.945   3.449   0.906
 6627TIP3    H244077   2.049   3.559   0.899
 6628TIP3   OH244078   3.722   3.617   1.146
 6628TIP3    H144079   3.712   3.593   1.239
 6628TIP3    H244080   3.782   3.692   1.147
 6629TIP3   OH244081   3.691   3.541   1.411
 6629TIP3    H144082   3.637   3.474   1.369
 6629TIP3    H244083   3.734   3.495   1.483
 6630TIP3   OH244084   3.596   3.223   1.869
 6630TIP3    H144085   3.518   3.224   1.924
 6630TIP3    H244086   3.656   3.285   1.911
 6631TIP3   OH244087   3.705   2.998   0.457
 6631TIP3    H144088   3.780   3.058   0.458
 6631TIP3    H244089   3.723   2.937   0.529
 6632TIP3   OH244090   3.752   2.810   0.657
 6632TIP3    H144091   3.663   2.784   0.682
 6632TIP3    H244092   3.797   2.824   0.741
 6633TIP3   OH244093   3.685   3.123   1.042
 6633TIP3    H144094   3.701   3.117   0.948
 6633TIP3    H244095   3.729   3.204   1.069
 6634TIP3   OH244096   3.524   3.361   1.291
 6634TIP3    H144097   3.455   3.404   1.342
 6634TIP3    H244098   3.484   3.342   1.206
 6635TIP3   OH244099   3.680   2.811   0.254
 6635TIP3    H144100   3.637   2.854   0.181
 6635TIP3    H244101   3.683   2.877   0.323
 6636TIP3   OH244102   3.435   2.434   0.179
 6636TIP3    H144103   3.447   2.475   0.094
 6636TIP3    H244104   3.437   2.340   0.161
 6637TIP3   OH244105   3.491   2.706   0.673
 6637TIP3    H144106   3.499   2.615   0.645
 6637TIP3    H244107   3.438   2.703   0.753
 6638TIP3   OH244108   1.974   2.776   1.101
 6638TIP3    H144109   1.987   2.808   1.011
 6638TIP3    H244110   2.060   2.785   1.142
 6639TIP3   OH244111   3.541   2.817   1.577
 6639TIP3    H144112   3.589   2.741   1.608
 6639TIP3    H244113   3.571   2.829   1.487
 6640TIP3   OH244114   3.711   2.606   1.647
 6640TIP3    H144115   3.683   2.607   1.738
 6640TIP3    H244116   3.761   2.525   1.638
 6641TIP3   OH244117   3.514   2.201   0.005
 6641TIP3    H144118   3.602   2.191   0.040
 6641TIP3    H244119   3.493   2.117  -0.035
 6642TIP3   OH244120   3.516   2.442   0.571
 6642TIP3    H144121   3.554   2.354   0.571
 6642TIP3    H244122   3.551   2.483   0.492
 6643TIP3   OH244123   3.477   2.482   1.055
 6643TIP3    H144124   3.568   2.504   1.032
 6643TIP3    H244125   3.471   2.502   1.148
 6644TIP3   OH244126   3.486   2.572   1.324
 6644TIP3    H144127   3.404   2.604   1.360
 6644TIP3    H244128   3.542   2.650   1.319
 6645TIP3   OH244129   1.988   2.326   1.582
 6645TIP3    H144130   2.051   2.335   1.654
 6645TIP3    H244131   1.931   2.254   1.608
 6646TIP3   OH244132   3.762   1.977   1.869
 6646TIP3    H144133   3.822   1.918   1.824
 6646TIP3    H244134   3.751   2.051   1.809
 6647TIP3   OH244135   3.604   2.177   0.556
 6647TIP3    H144136   3.614   2.129   0.638
 6647TIP3    H244137   3.530   2.135   0.512
 6648TIP3   OH244138   2.085   2.230   0.978
 6648TIP3    H144139   2.129   2.144   0.978
 6648TIP3    H244140   2.157   2.293   0.978
 6649TIP3   OH244141   1.874   2.535   1.005
 6649TIP3    H144142   1.940   2.517   0.938
 6649TIP3    H244143   1.905   2.614   1.050
 6650TIP3   OH244144   3.695   2.155   1.671
 6650TIP3    H144145   3.621   2.203   1.710
 6650TIP3    H244146   3.654   2.095   1.608
 6651TIP3   OH244147   3.761   2.157   0.126
 6651TIP3    H144148   3.833   2.151   0.062
 6651TIP3    H244149   3.786   2.231   0.182
 6652TIP3   OH244150   1.961   2.160   0.474
 6652TIP3    H144151   1.867   2.154   0.491
 6652TIP3    H244152   1.970   2.232   0.412
 6653TIP3   OH244153   3.434   3.663   0.758
 6653TIP3    H144154   3.490   3.662   0.680
 6653TIP3    H244155   3.419   3.755   0.775
 6654TIP3   OH244156   1.982   1.958   1.305
 6654TIP3    H144157   1.913   1.946   1.370
 6654TIP3    H244158   1.949   2.029   1.249
 6655TIP3   OH244159   2.168   3.395   1.663
 6655TIP3    H144160   2.076   3.419   1.650
 6655TIP3    H244161   2.185   3.415   1.755
 6656TIP3   OH244162   2.516   3.479   1.356
 6656TIP3    H144163   2.484   3.568   1.337
 6656TIP3    H244164   2.607   3.479   1.328
 6657TIP3   OH244165   2.842   3.599   1.666
 6657TIP3    H144166   2.852   3.578   1.759
 6657TIP3    H244167   2.921   3.650   1.645
 6658TIP3   OH244168   3.071   3.735   1.604
 6658TIP3    H144169   3.108   3.692   1.527
 6658TIP3    H244170   3.142   3.736   1.668
 6659TIP3   OH244171   3.605   1.946   1.507
 6659TIP3    H144172   3.549   1.978   1.437
 6659TIP3    H244173   3.639   1.863   1.475
 6660TIP3   OH244174   2.194   3.733   1.409
 6660TIP3    H144175   2.114   3.777   1.381
 6660TIP3    H244176   2.210   3.766   1.498
 6661TIP3   OH244177   2.450   3.742   1.307
 6661TIP3    H144178   2.360   3.744   1.339
 6661TIP3    H244179   2.446   3.784   1.221
 6662TIP3   OH244180   2.889   3.740   1.226
 6662TIP3    H144181   2.832   3.762   1.153
 6662TIP3    H244182   2.892   3.819   1.280
 6663TIP3   OH244183   3.115   3.632   1.340
 6663TIP3    H144184   3.040   3.672   1.297
 6663TIP3    H244185   3.191   3.670   1.296
 6664TIP3   OH244186   3.362   3.698   1.246
 6664TIP3    H144187   3.415   3.777   1.248
 6664TIP3    H244188   3.389   3.652   1.166
 6665TIP3   OH244189   2.170   3.622   1.021
 6665TIP3    H144190   2.159   3.584   1.108
 6665TIP3    H244191   2.250   3.582   0.987
 6666TIP3   OH244192   2.388   3.499   0.917
 6666TIP3    H144193   2.377   3.404   0.909
 6666TIP3    H244194   2.474   3.510   0.957
 6667TIP3   OH244195   2.639   3.486   1.035
 6667TIP3    H144196   2.647   3.396   1.003
 6667TIP3    H244197   2.687   3.487   1.118
 6668TIP3   OH244198   2.914   2.061   0.884
 6668TIP3    H144199   2.844   2.007   0.921
 6668TIP3    H244200   2.990   2.002   0.880
 6669TIP3   OH244201   3.443   2.019   0.927
 6669TIP3    H144202   3.530   2.036   0.891
 6669TIP3    H244203   3.399   1.966   0.860
 6670TIP3   OH244204   3.675   2.048   0.789
 6670TIP3    H144205   3.715   1.962   0.773
 6670TIP3    H244206   3.749   2.107   0.800
 6671TIP3   OH244207   2.151   1.954   0.680
 6671TIP3    H144208   2.060   1.926   0.678
 6671TIP3    H244209   2.201   1.875   0.658
 6672TIP3   OH244210   2.069   1.937   0.339
 6672TIP3    H144211   2.156   1.967   0.314
 6672TIP3    H244212   2.034   2.008   0.393
 6673TIP3   OH244213   2.690   1.893   0.678
 6673TIP3    H144214   2.769   1.938   0.646
 6673TIP3    H244215   2.698   1.898   0.774
 6674TIP3   OH244216   3.122   1.886   0.868
 6674TIP3    H144217   3.200   1.870   0.815
 6674TIP3    H244218   3.110   1.804   0.917
 6675TIP3   OH244219   3.388   2.054   0.434
 6675TIP3    H144220   3.309   2.105   0.453
 6675TIP3    H244221   3.358   1.964   0.427
 6676TIP3   OH244222   1.969   3.536   0.423
 6676TIP3    H144223   1.874   3.522   0.420
 6676TIP3    H244224   1.982   3.619   0.378
 6677TIP3   OH244225   2.314   2.024   0.256
 6677TIP3    H144226   2.365   2.002   0.179
 6677TIP3    H244227   2.369   2.084   0.306
 6678TIP3   OH244228   2.738   2.178   0.435
 6678TIP3    H144229   2.795   2.113   0.476
 6678TIP3    H244230   2.758   2.259   0.481
 6679TIP3   OH244231   2.902   3.717   0.177
 6679TIP3    H144232   2.990   3.752   0.189
 6679TIP3    H244233   2.915   3.639   0.122
 6680TIP3   OH244234   3.584   3.651   0.521
 6680TIP3    H144235   3.571   3.568   0.475
 6680TIP3    H244236   3.566   3.718   0.454
 6681TIP3   OH244237   2.183   2.017   1.687
 6681TIP3    H144238   2.117   1.961   1.727
 6681TIP3    H244239   2.265   1.990   1.727
 6682TIP3   OH244240   2.389   1.920   1.835
 6682TIP3    H144241   2.462   1.884   1.784
 6682TIP3    H244242   2.359   1.846   1.888
 6683TIP3   OH244243   2.058   3.540   0.088
 6683TIP3    H144244   2.068   3.607   0.156
 6683TIP3    H244245   2.067   3.457   0.134
 6684TIP3   OH244246   3.259   1.927   1.818
 6684TIP3    H144247   3.234   1.892   1.903
 6684TIP3    H244248   3.351   1.903   1.809
 6685TIP3   OH244249   3.505   3.485   1.680
 6685TIP3    H144250   3.456   3.478   1.598
 6685TIP3    H244251   3.524   3.578   1.689
 6686TIP3   OH244252   5.009   2.929   0.652
 6686TIP3    H144253   4.988   3.021   0.641
 6686TIP3    H244254   4.944   2.882   0.600
 6687TIP3   OH244255   4.893   2.818   1.064
 6687TIP3    H144256   4.922   2.773   1.143
 6687TIP3    H244257   4.836   2.754   1.020
 6688TIP3   OH244258   4.097   2.700   1.202
 6688TIP3    H144259   4.120   2.646   1.277
 6688TIP3    H244260   4.178   2.746   1.179
 6689TIP3   OH244261   5.284   3.130   0.891
 6689TIP3    H144262   5.234   3.055   0.924
 6689TIP3    H244263   5.283   3.192   0.964
 6690TIP3   OH244264   4.299   3.209   0.892
 6690TIP3    H144265   4.251   3.126   0.894
 6690TIP3    H244266   4.382   3.189   0.934
 6691TIP3   OH244267   3.837   2.572   0.541
 6691TIP3    H144268   3.820   2.658   0.579
 6691TIP3    H244269   3.771   2.563   0.472
 6692TIP3   OH244270   3.931   2.820   0.880
 6692TIP3    H144271   3.959   2.728   0.873
 6692TIP3    H244272   4.012   2.870   0.875
 6693TIP3   OH244273   5.017   3.577   0.964
 6693TIP3    H144274   5.034   3.536   0.880
 6693TIP3    H244275   5.010   3.504   1.026
 6694TIP3   OH244276   4.760   3.065   1.089
 6694TIP3    H144277   4.803   2.983   1.065
 6694TIP3    H244278   4.817   3.104   1.155
 6695TIP3   OH244279   5.623   2.183   1.141
 6695TIP3    H144280   5.621   2.259   1.200
 6695TIP3    H244281   5.684   2.208   1.072
 6696TIP3   OH244282   5.039   2.469   1.059
 6696TIP3    H144283   5.050   2.378   1.086
 6696TIP3    H244284   4.993   2.464   0.975
 6697TIP3   OH244285   4.334   2.416   0.793
 6697TIP3    H144286   4.313   2.461   0.712
 6697TIP3    H244287   4.372   2.333   0.766
 6698TIP3   OH244288   5.136   2.327   0.689
 6698TIP3    H144289   5.185   2.294   0.765
 6698TIP3    H244290   5.201   2.377   0.639
 6699TIP3   OH244291   3.983   2.539   0.873
 6699TIP3    H144292   4.047   2.506   0.936
 6699TIP3    H244293   4.010   2.502   0.789
 6700TIP3   OH244294   4.475   2.667   0.861
 6700TIP3    H144295   4.567   2.653   0.884
 6700TIP3    H244296   4.441   2.579   0.844
 6701TIP3   OH244297   5.601   2.378   1.336
 6701TIP3    H144298   5.549   2.456   1.315
 6701TIP3    H244299   5.547   2.330   1.398
 6702TIP3   OH244300   4.241   2.225   1.236
 6702TIP3    H144301   4.214   2.296   1.178
 6702TIP3    H244302   4.177   2.227   1.308
 6703TIP3   OH244303   4.916   3.167   0.551
 6703TIP3    H144304   4.929   3.163   0.457
 6703TIP3    H244305   4.892   3.259   0.568
 6704TIP3   OH244306   4.498   3.001   1.175
 6704TIP3    H144307   4.451   3.077   1.211
 6704TIP3    H244308   4.578   3.039   1.138
 6705TIP3   OH244309   5.269   2.263   0.924
 6705TIP3    H144310   5.206   2.255   0.995
 6705TIP3    H244311   5.333   2.327   0.955
 6706TIP3   OH244312   4.184   2.409   1.027
 6706TIP3    H144313   4.235   2.467   1.084
 6706TIP3    H244314   4.236   2.402   0.947
 6707TIP3   OH244315   4.356   3.202   1.305
 6707TIP3    H144316   4.363   3.298   1.310
 6707TIP3    H244317   4.265   3.184   1.328
 6708TIP3   OH244318   3.924   3.166   0.453
 6708TIP3    H144319   3.914   3.220   0.375
 6708TIP3    H244320   3.954   3.226   0.521
 6709TIP3   OH244321   5.275   3.321   1.098
 6709TIP3    H144322   5.183   3.337   1.122
 6709TIP3    H244323   5.304   3.404   1.061
 6710TIP3   OH244324   5.358   2.105   1.231
 6710TIP3    H144325   5.288   2.147   1.181
 6710TIP3    H244326   5.438   2.125   1.182
 6711TIP3   OH244327   4.537   1.900   0.954
 6711TIP3    H144328   4.529   1.807   0.976
 6711TIP3    H244329   4.463   1.942   0.998
 6712TIP3   OH244330   5.112   3.494   0.703
 6712TIP3    H144331   5.150   3.408   0.683
 6712TIP3    H244332   5.186   3.547   0.729
 6713TIP3   OH244333   5.238   3.260   0.651
 6713TIP3    H144334   5.260   3.202   0.578
 6713TIP3    H244335   5.258   3.208   0.729
 6714TIP3   OH244336   5.410   3.104   1.440
 6714TIP3    H144337   5.386   3.057   1.360
 6714TIP3    H244338   5.432   3.192   1.410
 6715TIP3   OH244339   4.859   2.810   0.448
 6715TIP3    H144340   4.802   2.878   0.413
 6715TIP3    H244341   4.929   2.801   0.383
 6716TIP3   OH244342   4.888   2.669   0.133
 6716TIP3    H144343   4.966   2.688   0.185
 6716TIP3    H244344   4.916   2.604   0.069
 6717TIP3   OH244345   5.546   2.804   1.252
 6717TIP3    H144346   5.475   2.868   1.241
 6717TIP3    H244347   5.606   2.823   1.181
 6718TIP3   OH244348   5.214   2.787   0.539
 6718TIP3    H144349   5.154   2.842   0.589
 6718TIP3    H244350   5.284   2.765   0.601
 6719TIP3   OH244351   5.186   2.641   1.461
 6719TIP3    H144352   5.173   2.717   1.518
 6719TIP3    H244353   5.120   2.650   1.393
 6720TIP3   OH244354   4.377   2.872   0.681
 6720TIP3    H144355   4.346   2.837   0.598
 6720TIP3    H244356   4.422   2.799   0.723
 6721TIP3   OH244357   4.575   3.228   0.957
 6721TIP3    H144358   4.589   3.238   0.863
 6721TIP3    H244359   4.650   3.176   0.987
 6722TIP3   OH244360   4.349   2.790   1.081
 6722TIP3    H144361   4.401   2.759   1.007
 6722TIP3    H244362   4.401   2.862   1.117
 6723TIP3   OH244363   5.016   3.380   1.178
 6723TIP3    H144364   5.002   3.447   1.244
 6723TIP3    H244365   4.973   3.302   1.213
 6724TIP3   OH244366   4.485   3.194   1.556
 6724TIP3    H144367   4.415   3.247   1.594
 6724TIP3    H244368   4.454   3.172   1.468
 6725TIP3   OH244369   5.095   2.758   0.300
 6725TIP3    H144370   5.139   2.763   0.384
 6725TIP3    H244371   5.128   2.833   0.251
 6726TIP3   OH244372   4.205   2.813   1.496
 6726TIP3    H144373   4.206   2.894   1.548
 6726TIP3    H244374   4.113   2.788   1.493
 6727TIP3   OH244375   4.875   3.444   0.557
 6727TIP3    H144376   4.947   3.458   0.617
 6727TIP3    H244377   4.837   3.531   0.544
 6728TIP3   OH244378   4.281   3.372   1.614
 6728TIP3    H144379   4.302   3.417   1.532
 6728TIP3    H244380   4.187   3.386   1.625
 6729TIP3   OH244381   5.421   1.941   0.310
 6729TIP3    H144382   5.340   1.969   0.354
 6729TIP3    H244383   5.447   2.017   0.258
 6730TIP3   OH244384   4.267   2.790   0.429
 6730TIP3    H144385   4.205   2.860   0.408
 6730TIP3    H244386   4.261   2.729   0.356
 6731TIP3   OH244387   5.572   3.403   0.175
 6731TIP3    H144388   5.592   3.497   0.175
 6731TIP3    H244389   5.657   3.360   0.188
 6732TIP3   OH244390   3.907   2.983   1.374
 6732TIP3    H144391   3.885   2.949   1.287
 6732TIP3    H244392   3.917   2.904   1.428
 6733TIP3   OH244393   3.817   3.363   1.088
 6733TIP3    H144394   3.893   3.366   1.147
 6733TIP3    H244395   3.770   3.444   1.105
 6734TIP3   OH244396   5.661   3.404   1.740
 6734TIP3    H144397   5.656   3.315   1.705
 6734TIP3    H244398   5.570   3.433   1.744
 6735TIP3   OH244399   4.716   3.346   1.542
 6735TIP3    H144400   4.699   3.428   1.589
 6735TIP3    H244401   4.634   3.297   1.549
 6736TIP3   OH244402   4.812   3.697   0.468
 6736TIP3    H144403   4.785   3.712   0.378
 6736TIP3    H244404   4.783   3.775   0.515
 6737TIP3   OH244405   4.186   3.571   0.683
 6737TIP3    H144406   4.215   3.544   0.771
 6737TIP3    H244407   4.131   3.499   0.653
 6738TIP3   OH244408   5.051   3.761   0.222
 6738TIP3    H144409   5.083   3.688   0.170
 6738TIP3    H244410   5.079   3.742   0.311
 6739TIP3   OH244411   5.088   3.679   0.489
 6739TIP3    H144412   4.992   3.685   0.484
 6739TIP3    H244413   5.104   3.608   0.551
 6740TIP3   OH244414   5.404   2.510   1.606
 6740TIP3    H144415   5.336   2.563   1.564
 6740TIP3    H244416   5.400   2.426   1.561
 6741TIP3   OH244417   4.100   3.182   1.414
 6741TIP3    H144418   4.129   3.155   1.501
 6741TIP3    H244419   4.031   3.120   1.391
 6742TIP3   OH244420   4.315   2.013   1.078
 6742TIP3    H144421   4.231   2.000   1.034
 6742TIP3    H244422   4.302   2.091   1.132
 6743TIP3   OH244423   4.804   2.035   1.470
 6743TIP3    H144424   4.859   2.002   1.542
 6743TIP3    H244425   4.714   2.028   1.503
 6744TIP3   OH244426   5.121   2.367   1.505
 6744TIP3    H144427   5.060   2.343   1.575
 6744TIP3    H244428   5.126   2.462   1.509
 6745TIP3   OH244429   5.215   2.980   0.202
 6745TIP3    H144430   5.171   3.052   0.155
 6745TIP3    H244431   5.287   2.955   0.144
 6746TIP3   OH244432   4.710   2.293   0.170
 6746TIP3    H144433   4.674   2.236   0.238
 6746TIP3    H244434   4.638   2.302   0.107
 6747TIP3   OH244435   4.365   2.538   1.199
 6747TIP3    H144436   4.317   2.535   1.282
 6747TIP3    H244437   4.364   2.631   1.175
 6748TIP3   OH244438   4.281   2.538   0.550
 6748TIP3    H144439   4.263   2.629   0.524
 6748TIP3    H244440   4.348   2.509   0.487
 6749TIP3   OH244441   4.873   2.561   0.560
 6749TIP3    H144442   4.855   2.650   0.532
 6749TIP3    H244443   4.949   2.534   0.509
 6750TIP3   OH244444   4.804   2.540   1.664
 6750TIP3    H144445   4.756   2.467   1.702
 6750TIP3    H244446   4.889   2.539   1.709
 6751TIP3   OH244447   4.925   2.460   0.810
 6751TIP3    H144448   4.898   2.513   0.734
 6751TIP3    H244449   4.992   2.402   0.775
 6752TIP3   OH244450   4.176   2.510   1.401
 6752TIP3    H144451   4.191   2.545   1.489
 6752TIP3    H244452   4.138   2.424   1.415
 6753TIP3   OH244453   4.486   2.336   9.991
 6753TIP3    H144454   4.414   2.395  10.013
 6753TIP3    H244455   4.550   2.393   9.946
 6754TIP3   OH244456   3.874   2.240   0.796
 6754TIP3    H144457   3.892   2.243   0.890
 6754TIP3    H244458   3.837   2.326   0.776
 6755TIP3   OH244459   3.841   2.367   0.283
 6755TIP3    H144460   3.907   2.415   0.233
 6755TIP3    H244461   3.773   2.432   0.302
 6756TIP3   OH244462   4.985   2.640   1.267
 6756TIP3    H144463   5.009   2.580   1.196
 6756TIP3    H244464   4.909   2.599   1.309
 6757TIP3   OH244465   4.632   2.275   0.818
 6757TIP3    H144466   4.617   2.311   0.906
 6757TIP3    H244467   4.685   2.197   0.833
 6758TIP3   OH244468   4.045   2.412   0.617
 6758TIP3    H144469   3.974   2.464   0.581
 6758TIP3    H244470   4.125   2.455   0.585
 6759TIP3   OH244471   4.486   2.472   0.378
 6759TIP3    H144472   4.559   2.449   0.436
 6759TIP3    H244473   4.527   2.519   0.306
 6760TIP3   OH244474   5.091   2.194   1.121
 6760TIP3    H144475   5.035   2.203   1.197
 6760TIP3    H244476   5.059   2.116   1.076
 6761TIP3   OH244477   4.250   2.617   0.222
 6761TIP3    H144478   4.166   2.573   0.206
 6761TIP3    H244479   4.292   2.621   0.136
 6762TIP3   OH244480   5.380   3.763   1.707
 6762TIP3    H144481   5.398   3.798   1.619
 6762TIP3    H244482   5.462   3.776   1.754
 6763TIP3   OH244483   4.167   3.041   1.660
 6763TIP3    H144484   4.227   3.035   1.735
 6763TIP3    H244485   4.080   3.040   1.699
 6764TIP3   OH244486   4.729   2.595   0.961
 6764TIP3    H144487   4.793   2.545   0.911
 6764TIP3    H244488   4.703   2.537   1.032
 6765TIP3   OH244489   4.269   2.147   0.620
 6765TIP3    H144490   4.335   2.085   0.650
 6765TIP3    H244491   4.300   2.176   0.534
 6766TIP3   OH244492   4.622   2.440   1.168
 6766TIP3    H144493   4.536   2.481   1.182
 6766TIP3    H244494   4.674   2.466   1.243
 6767TIP3   OH244495   4.702   3.008   0.337
 6767TIP3    H144496   4.634   2.963   0.287
 6767TIP3    H244497   4.656   3.047   0.412
 6768TIP3   OH244498   5.352   2.989   1.199
 6768TIP3    H144499   5.409   3.048   1.150
 6768TIP3    H244500   5.281   2.968   1.138
 6769TIP3   OH244501   4.969   2.289   0.259
 6769TIP3    H144502   4.880   2.307   0.229
 6769TIP3    H244503   5.000   2.373   0.294
 6770TIP3   OH244504   4.777   3.050   1.527
 6770TIP3    H144505   4.816   3.007   1.602
 6770TIP3    H244506   4.757   3.139   1.558
 6771TIP3   OH244507   5.091   2.496   0.402
 6771TIP3    H144508   5.176   2.477   0.441
 6771TIP3    H244509   5.105   2.576   0.350
 6772TIP3   OH244510   4.195   2.932   0.885
 6772TIP3    H144511   4.253   2.919   0.809
 6772TIP3    H244512   4.238   2.886   0.956
 6773TIP3   OH244513   4.920   3.170   0.268
 6773TIP3    H144514   4.870   3.251   0.262
 6773TIP3    H244515   4.853   3.101   0.275
 6774TIP3   OH244516   3.922   2.765   1.539
 6774TIP3    H144517   3.966   2.758   1.624
 6774TIP3    H244518   3.841   2.715   1.551
 6775TIP3   OH244519   4.617   2.753   1.703
 6775TIP3    H144520   4.552   2.728   1.637
 6775TIP3    H244521   4.691   2.694   1.686
 6776TIP3   OH244522   4.998   3.345   1.562
 6776TIP3    H144523   4.906   3.348   1.537
 6776TIP3    H244524   4.997   3.347   1.658
 6777TIP3   OH244525   5.518   2.556   0.350
 6777TIP3    H144526   5.442   2.543   0.294
 6777TIP3    H244527   5.544   2.647   0.334
 6778TIP3   OH244528   5.635   3.159   1.615
 6778TIP3    H144529   5.542   3.151   1.591
 6778TIP3    H244530   5.682   3.136   1.535
 6779TIP3   OH244531   5.416   3.414   0.402
 6779TIP3    H144532   5.383   3.328   0.427
 6779TIP3    H244533   5.459   3.400   0.318
 6780TIP3   OH244534   5.164   2.906   1.012
 6780TIP3    H144535   5.069   2.897   1.017
 6780TIP3    H244536   5.194   2.821   0.980
 6781TIP3   OH244537   4.490   3.297   0.695
 6781TIP3    H144538   4.486   3.384   0.655
 6781TIP3    H244539   4.407   3.288   0.742
 6782TIP3   OH244540   3.943   2.785   0.155
 6782TIP3    H144541   3.997   2.844   0.208
 6782TIP3    H244542   3.855   2.792   0.194
 6783TIP3   OH244543   4.518   3.079   0.534
 6783TIP3    H144544   4.522   3.156   0.590
 6783TIP3    H244545   4.474   3.013   0.587
 6784TIP3   OH244546   4.648   3.477   1.301
 6784TIP3    H144547   4.699   3.557   1.288
 6784TIP3    H244548   4.694   3.430   1.370
 6785TIP3   OH244549   4.448   3.552   0.587
 6785TIP3    H144550   4.357   3.574   0.608
 6785TIP3    H244551   4.500   3.619   0.632
 6786TIP3   OH244552   4.921   3.142   1.304
 6786TIP3    H144553   4.859   3.111   1.370
 6786TIP3    H244554   5.007   3.119   1.341
 6787TIP3   OH244555   5.172   3.269   0.200
 6787TIP3    H144556   5.223   3.251   0.279
 6787TIP3    H244557   5.084   3.238   0.220
 6788TIP3   OH244558   5.228   3.477   1.473
 6788TIP3    H144559   5.143   3.442   1.497
 6788TIP3    H244560   5.209   3.553   1.417
 6789TIP3   OH244561   5.582   3.678   0.158
 6789TIP3    H144562   5.665   3.721   0.178
 6789TIP3    H244563   5.517   3.726   0.209
 6790TIP3   OH244564   4.065   2.250   1.451
 6790TIP3    H144565   3.986   2.291   1.486
 6790TIP3    H244566   4.073   2.167   1.498
 6791TIP3   OH244567   5.331   3.136   0.409
 6791TIP3    H144568   5.284   3.069   0.359
 6791TIP3    H244569   5.414   3.095   0.431
 6792TIP3   OH244570   4.025   3.430   1.267
 6792TIP3    H144571   4.053   3.354   1.318
 6792TIP3    H244572   4.044   3.505   1.323
 6793TIP3   OH244573   4.399   3.219   0.318
 6793TIP3    H144574   4.442   3.168   0.387
 6793TIP3    H244575   4.444   3.303   0.319
 6794TIP3   OH244576   4.079   2.970   0.322
 6794TIP3    H144577   4.026   3.023   0.382
 6794TIP3    H244578   4.119   3.033   0.263
 6795TIP3   OH244579   4.937   2.239   1.343
 6795TIP3    H144580   5.004   2.269   1.404
 6795TIP3    H244581   4.891   2.170   1.391
 6796TIP3   OH244582   4.986   2.170   0.511
 6796TIP3    H144583   4.982   2.210   0.424
 6796TIP3    H244584   5.029   2.236   0.566
 6797TIP3   OH244585   4.782   3.403   0.293
 6797TIP3    H144586   4.688   3.420   0.300
 6797TIP3    H244587   4.816   3.420   0.381
 6798TIP3   OH244588   4.669   2.378   0.562
 6798TIP3    H144589   4.741   2.440   0.566
 6798TIP3    H244590   4.659   2.348   0.653
 6799TIP3   OH244591   4.790   2.481   1.385
 6799TIP3    H144592   4.787   2.504   1.478
 6799TIP3    H244593   4.831   2.395   1.383
 6800TIP3   OH244594   4.768   2.028   0.597
 6800TIP3    H144595   4.777   2.026   0.692
 6800TIP3    H244596   4.845   2.076   0.567
 6801TIP3   OH244597   4.518   3.472   0.331
 6801TIP3    H144598   4.500   3.545   0.272
 6801TIP3    H244599   4.493   3.504   0.418
 6802TIP3   OH244600   4.363   2.224   0.372
 6802TIP3    H144601   4.379   2.317   0.360
 6802TIP3    H244602   4.450   2.184   0.373
 6803TIP3   OH244603   5.372   2.274   1.458
 6803TIP3    H144604   5.281   2.295   1.478
 6803TIP3    H244605   5.366   2.208   1.389
 6804TIP3   OH244606   5.239   2.638   0.953
 6804TIP3    H144607   5.160   2.596   0.986
 6804TIP3    H244608   5.311   2.582   0.985
 6805TIP3   OH244609   4.171   3.188   0.175
 6805TIP3    H144610   4.251   3.201   0.226
 6805TIP3    H244611   4.196   3.207   0.085
 6806TIP3   OH244612   4.008   2.518   0.129
 6806TIP3    H144613   3.980   2.610   0.124
 6806TIP3    H244614   4.038   2.498   0.040
 6807TIP3   OH244615   5.363   3.569   1.020
 6807TIP3    H144616   5.354   3.597   0.929
 6807TIP3    H244617   5.453   3.591   1.043
 6808TIP3   OH244618   4.056   1.990   0.978
 6808TIP3    H144619   4.045   1.978   0.884
 6808TIP3    H244620   4.026   1.908   1.017
 6809TIP3   OH244621   3.985   3.385   0.618
 6809TIP3    H144622   3.940   3.414   0.697
 6809TIP3    H244623   3.950   3.441   0.549
 6810TIP3   OH244624   3.974   3.664   1.786
 6810TIP3    H144625   4.034   3.656   1.860
 6810TIP3    H244626   3.980   3.579   1.742
 6811TIP3   OH244627   4.340   3.423   1.879
 6811TIP3    H144628   4.422   3.378   1.900
 6811TIP3    H244629   4.325   3.404   1.787
 6812TIP3   OH244630   4.860   3.522   0.052
 6812TIP3    H144631   4.831   3.470   0.127
 6812TIP3    H244632   4.956   3.525   0.060
 6813TIP3   OH244633   4.986   3.337   1.835
 6813TIP3    H144634   4.979   3.255   1.884
 6813TIP3    H244635   5.066   3.379   1.869
 6814TIP3   OH244636   5.135   3.526   0.099
 6814TIP3    H144637   5.150   3.441   0.140
 6814TIP3    H244638   5.216   3.545   0.052
 6815TIP3   OH244639   3.919   3.032   1.783
 6815TIP3    H144640   3.911   2.939   1.804
 6815TIP3    H244641   3.847   3.049   1.722
 6816TIP3   OH244642   4.399   2.903  -0.001
 6816TIP3    H144643   4.425   2.904   0.092
 6816TIP3    H244644   4.473   2.943  -0.046
 6817TIP3   OH244645   4.558   3.026   1.767
 6817TIP3    H144646   4.544   3.072   1.684
 6817TIP3    H244647   4.593   2.940   1.742
 6818TIP3   OH244648   5.132   3.111   1.493
 6818TIP3    H144649   5.225   3.132   1.482
 6818TIP3    H244650   5.092   3.193   1.522
 6819TIP3   OH244651   4.042   2.730   1.778
 6819TIP3    H144652   4.113   2.670   1.756
 6819TIP3    H244653   4.029   2.718   1.872
 6820TIP3   OH244654   4.492   2.849   0.253
 6820TIP3    H144655   4.429   2.833   0.323
 6820TIP3    H244656   4.529   2.763   0.233
 6821TIP3   OH244657   4.444   2.671   1.497
 6821TIP3    H144658   4.359   2.716   1.500
 6821TIP3    H244659   4.502   2.732   1.451
 6822TIP3   OH244660   4.618   2.615   0.176
 6822TIP3    H144661   4.607   2.586   0.085
 6822TIP3    H244662   4.710   2.639   0.183
 6823TIP3   OH244663   4.903   2.927   1.749
 6823TIP3    H144664   4.989   2.902   1.715
 6823TIP3    H244665   4.878   2.855   1.807
 6824TIP3   OH244666   5.422   2.910   0.037
 6824TIP3    H144667   5.365   2.900  -0.039
 6824TIP3    H244668   5.484   2.978   0.011
 6825TIP3   OH244669   4.464   2.413   1.599
 6825TIP3    H144670   4.472   2.357   1.523
 6825TIP3    H244671   4.467   2.502   1.564
 6826TIP3   OH244672   4.486   2.264   1.360
 6826TIP3    H144673   4.541   2.304   1.293
 6826TIP3    H244674   4.401   2.253   1.317
 6827TIP3   OH244675   4.604   2.865   1.395
 6827TIP3    H144676   4.666   2.925   1.437
 6827TIP3    H244677   4.572   2.913   1.319
 6828TIP3   OH244678   5.041   2.528   1.826
 6828TIP3    H144679   5.071   2.442   1.856
 6828TIP3    H244680   5.113   2.588   1.848
 6829TIP3   OH244681   5.174   2.871   1.623
 6829TIP3    H144682   5.146   2.950   1.578
 6829TIP3    H244683   5.269   2.873   1.619
 6830TIP3   OH244684   4.212   2.521   1.681
 6830TIP3    H144685   4.159   2.451   1.720
 6830TIP3    H244686   4.300   2.484   1.674
 6831TIP3   OH244687   4.523   2.017   1.481
 6831TIP3    H144688   4.511   2.107   1.449
 6831TIP3    H244689   4.461   1.965   1.430
 6832TIP3   OH244690   4.677   2.308   1.762
 6832TIP3    H144691   4.658   2.249   1.834
 6832TIP3    H244692   4.591   2.329   1.724
 6833TIP3   OH244693   4.934   2.266   1.672
 6833TIP3    H144694   4.842   2.270   1.696
 6833TIP3    H244695   4.980   2.247   1.754
 6834TIP3   OH244696   5.078   2.231   1.904
 6834TIP3    H144697   5.081   2.136   1.905
 6834TIP3    H244698   5.048   2.255   1.992
 6835TIP3   OH244699   4.051   2.333   1.797
 6835TIP3    H144700   4.088   2.247   1.817
 6835TIP3    H244701   4.026   2.369   1.881
 6836TIP3   OH244702   4.531   1.872   1.715
 6836TIP3    H144703   4.598   1.808   1.690
 6836TIP3    H244704   4.520   1.927   1.638
 6837TIP3   OH244705   4.422   2.007   1.929
 6837TIP3    H144706   4.447   1.952   1.855
 6837TIP3    H244707   4.502   2.052   1.954
 6838TIP3   OH244708   4.506   3.688   0.151
 6838TIP3    H144709   4.592   3.724   0.169
 6838TIP3    H244710   4.458   3.759   0.108
 6839TIP3   OH244711   3.917   3.284   0.199
 6839TIP3    H144712   4.009   3.258   0.195
 6839TIP3    H244713   3.873   3.225   0.138
 6840TIP3   OH244714   3.803   3.715   0.685
 6840TIP3    H144715   3.737   3.687   0.622
 6840TIP3    H244716   3.820   3.637   0.739
 6841TIP3   OH244717   3.876   3.499   0.847
 6841TIP3    H144718   3.838   3.433   0.906
 6841TIP3    H244719   3.937   3.548   0.902
 6842TIP3   OH244720   5.611   3.617   1.136
 6842TIP3    H144721   5.589   3.603   1.228
 6842TIP3    H244722   5.671   3.692   1.137
 6843TIP3   OH244723   5.570   3.579   1.403
 6843TIP3    H144724   5.543   3.487   1.402
 6843TIP3    H244725   5.641   3.583   1.468
 6844TIP3   OH244726   5.454   3.160   1.894
 6844TIP3    H144727   5.367   3.163   1.933
 6844TIP3    H244728   5.503   3.228   1.939
 6845TIP3   OH244729   5.572   3.002   0.456
 6845TIP3    H144730   5.650   3.057   0.459
 6845TIP3    H244731   5.588   2.932   0.519
 6846TIP3   OH244732   5.626   2.787   0.625
 6846TIP3    H144733   5.548   2.758   0.672
 6846TIP3    H244734   5.688   2.810   0.694
 6847TIP3   OH244735   5.605   3.105   1.144
 6847TIP3    H144736   5.651   3.047   1.084
 6847TIP3    H244737   5.631   3.193   1.118
 6848TIP3   OH244738   5.426   3.350   1.334
 6848TIP3    H144739   5.357   3.399   1.379
 6848TIP3    H244740   5.391   3.337   1.245
 6849TIP3   OH244741   5.558   2.812   0.256
 6849TIP3    H144742   5.503   2.841   0.183
 6849TIP3    H244743   5.552   2.882   0.320
 6850TIP3   OH244744   5.308   2.531   0.184
 6850TIP3    H144745   5.279   2.593   0.116
 6850TIP3    H244746   5.293   2.445   0.145
 6851TIP3   OH244747   5.391   2.670   0.721
 6851TIP3    H144748   5.374   2.586   0.679
 6851TIP3    H244749   5.339   2.669   0.800
 6852TIP3   OH244750   3.850   2.799   1.148
 6852TIP3    H144751   3.863   2.832   1.059
 6852TIP3    H244752   3.935   2.761   1.172
 6853TIP3   OH244753   5.454   2.880   1.588
 6853TIP3    H144754   5.542   2.849   1.565
 6853TIP3    H244755   5.443   2.961   1.537
 6854TIP3   OH244756   5.671   2.577   1.640
 6854TIP3    H144757   5.578   2.554   1.638
 6854TIP3    H244758   5.716   2.493   1.647
 6855TIP3   OH244759   5.294   2.289   0.056
 6855TIP3    H144760   5.354   2.219   0.084
 6855TIP3    H244761   5.211   2.244   0.042
 6856TIP3   OH244762   5.343   2.445   0.541
 6856TIP3    H144763   5.378   2.356   0.541
 6856TIP3    H244764   5.401   2.494   0.483
 6857TIP3   OH244765   5.426   2.456   1.043
 6857TIP3    H144766   5.513   2.486   1.016
 6857TIP3    H244767   5.419   2.484   1.134
 6858TIP3   OH244768   5.408   2.573   1.291
 6858TIP3    H144769   5.330   2.594   1.344
 6858TIP3    H244770   5.452   2.656   1.279
 6859TIP3   OH244771   3.854   2.365   1.606
 6859TIP3    H144772   3.924   2.368   1.671
 6859TIP3    H244773   3.801   2.290   1.631
 6860TIP3   OH244774   5.666   1.977   1.863
 6860TIP3    H144775   5.706   1.901   1.821
 6860TIP3    H244776   5.657   2.041   1.792
 6861TIP3   OH244777   5.426   2.183   0.539
 6861TIP3    H144778   5.466   2.144   0.617
 6861TIP3    H244779   5.354   2.124   0.517
 6862TIP3   OH244780   3.949   2.237   1.058
 6862TIP3    H144781   3.991   2.151   1.053
 6862TIP3    H244782   4.022   2.299   1.065
 6863TIP3   OH244783   3.739   2.567   1.016
 6863TIP3    H144784   3.816   2.553   0.961
 6863TIP3    H244785   3.761   2.642   1.071
 6864TIP3   OH244786   5.577   2.139   1.654
 6864TIP3    H144787   5.494   2.173   1.688
 6864TIP3    H244788   5.552   2.086   1.578
 6865TIP3   OH244789   5.513   2.136   0.133
 6865TIP3    H144790   5.573   2.087   0.078
 6865TIP3    H244791   5.565   2.211   0.163
 6866TIP3   OH244792   3.873   2.168   0.469
 6866TIP3    H144793   3.781   2.162   0.496
 6866TIP3    H244794   3.874   2.238   0.403
 6867TIP3   OH244795   5.328   3.658   0.756
 6867TIP3    H144796   5.385   3.663   0.679
 6867TIP3    H244797   5.307   3.750   0.776
 6868TIP3   OH244798   3.844   1.984   1.325
 6868TIP3    H144799   3.790   1.979   1.404
 6868TIP3    H244800   3.798   2.046   1.268
 6869TIP3   OH244801   4.012   3.408   1.688
 6869TIP3    H144802   3.925   3.389   1.652
 6869TIP3    H244803   4.014   3.361   1.771
 6870TIP3   OH244804   4.383   3.472   1.372
 6870TIP3    H144805   4.358   3.562   1.354
 6870TIP3    H244806   4.477   3.469   1.355
 6871TIP3   OH244807   4.684   3.592   1.669
 6871TIP3    H144808   4.701   3.556   1.756
 6871TIP3    H244809   4.763   3.640   1.647
 6872TIP3   OH244810   4.916   3.718   1.595
 6872TIP3    H144811   4.963   3.673   1.524
 6872TIP3    H244812   4.985   3.745   1.656
 6873TIP3   OH244813   5.505   1.976   1.436
 6873TIP3    H144814   5.444   2.009   1.370
 6873TIP3    H244815   5.492   1.881   1.436
 6874TIP3   OH244816   4.071   3.688   1.378
 6874TIP3    H144817   4.001   3.733   1.330
 6874TIP3    H244818   4.076   3.735   1.462
 6875TIP3   OH244819   4.332   3.736   1.312
 6875TIP3    H144820   4.240   3.724   1.332
 6875TIP3    H244821   4.333   3.776   1.225
 6876TIP3   OH244822   4.764   3.720   1.234
 6876TIP3    H144823   4.709   3.744   1.160
 6876TIP3    H244824   4.764   3.798   1.290
 6877TIP3   OH244825   4.994   3.611   1.339
 6877TIP3    H144826   4.920   3.651   1.295
 6877TIP3    H244827   5.071   3.649   1.296
 6878TIP3   OH244828   5.239   3.683   1.242
 6878TIP3    H144829   5.283   3.768   1.239
 6878TIP3    H244830   5.270   3.637   1.164
 6879TIP3   OH244831   4.053   3.602   1.035
 6879TIP3    H144832   4.038   3.555   1.117
 6879TIP3    H244833   4.134   3.564   1.001
 6880TIP3   OH244834   4.273   3.479   0.930
 6880TIP3    H144835   4.268   3.383   0.921
 6880TIP3    H244836   4.356   3.494   0.974
 6881TIP3   OH244837   4.522   3.483   1.054
 6881TIP3    H144838   4.543   3.398   1.015
 6881TIP3    H244839   4.561   3.479   1.142
 6882TIP3   OH244840   4.770   2.037   0.872
 6882TIP3    H144841   4.708   1.976   0.911
 6882TIP3    H244842   4.855   2.012   0.909
 6883TIP3   OH244843   5.332   1.998   0.881
 6883TIP3    H144844   5.419   2.009   0.842
 6883TIP3    H244845   5.301   2.088   0.896
 6884TIP3   OH244846   5.559   2.062   0.749
 6884TIP3    H144847   5.624   1.993   0.731
 6884TIP3    H244848   5.610   2.143   0.753
 6885TIP3   OH244849   4.021   1.950   0.701
 6885TIP3    H144850   3.936   1.904   0.699
 6885TIP3    H244851   4.085   1.882   0.682
 6886TIP3   OH244852   3.984   1.941   0.330
 6886TIP3    H144853   4.063   1.979   0.293
 6886TIP3    H244854   3.937   2.015   0.369
 6887TIP3   OH244855   4.489   1.975   0.684
 6887TIP3    H144856   4.574   2.004   0.651
 6887TIP3    H244857   4.505   1.952   0.776
 6888TIP3   OH244858   5.037   1.970   0.962
 6888TIP3    H144859   5.123   1.969   0.920
 6888TIP3    H244860   5.007   1.879   0.958
 6889TIP3   OH244861   5.215   2.016   0.480
 6889TIP3    H144862   5.136   2.070   0.488
 6889TIP3    H244863   5.182   1.926   0.482
 6890TIP3   OH244864   3.887   3.550   0.428
 6890TIP3    H144865   3.799   3.554   0.390
 6890TIP3    H244866   3.925   3.636   0.409
 6891TIP3   OH244867   4.208   2.052   0.221
 6891TIP3    H144868   4.258   2.044   0.140
 6891TIP3    H244869   4.257   2.115   0.274
 6892TIP3   OH244870   4.626   2.162   0.400
 6892TIP3    H144871   4.672   2.094   0.449
 6892TIP3    H244872   4.643   2.242   0.450
 6893TIP3   OH244873   4.774   3.747   0.192
 6893TIP3    H144874   4.859   3.792   0.199
 6893TIP3    H244875   4.791   3.675   0.132
 6894TIP3   OH244876   5.491   3.650   0.515
 6894TIP3    H144877   5.452   3.569   0.484
 6894TIP3    H244878   5.465   3.716   0.450
 6895TIP3   OH244879   4.067   2.014   1.616
 6895TIP3    H144880   4.009   1.946   1.652
 6895TIP3    H244881   4.115   2.046   1.692
 6896TIP3   OH244882   4.160   2.090   1.868
 6896TIP3    H144883   4.245   2.055   1.896
 6896TIP3    H244884   4.101   2.073   1.941
 6897TIP3   OH244885   4.004   3.560   0.132
 6897TIP3    H144886   4.005   3.632   0.195
 6897TIP3    H244887   3.994   3.482   0.185
 6898TIP3   OH244888   5.122   1.961   1.886
 6898TIP3    H144889   5.095   1.910   1.963
 6898TIP3    H244890   5.216   1.942   1.878
 6899TIP3   OH244891   5.392   3.486   1.704
 6899TIP3    H144892   5.341   3.470   1.625
 6899TIP3    H244893   5.390   3.582   1.714
 6900TIP3   OH244894   6.885   2.971   0.605
 6900TIP3    H144895   6.876   3.057   0.564
 6900TIP3    H244896   6.816   2.918   0.565
 6901TIP3   OH244897   6.755   2.813   1.051
 6901TIP3    H144898   6.781   2.769   1.132
 6901TIP3    H244899   6.702   2.748   1.004
 6902TIP3   OH244900   5.973   2.792   1.130
 6902TIP3    H144901   5.988   2.729   1.201
 6902TIP3    H244902   6.061   2.810   1.096
 6903TIP3   OH244903   7.158   3.137   0.900
 6903TIP3    H144904   7.097   3.069   0.927
 6903TIP3    H244905   7.153   3.203   0.970
 6904TIP3   OH244906   6.186   3.212   0.908
 6904TIP3    H144907   6.135   3.138   0.873
 6904TIP3    H244908   6.188   3.196   1.002
 6905TIP3   OH244909   5.708   2.525   0.561
 6905TIP3    H144910   5.694   2.616   0.587
 6905TIP3    H244911   5.649   2.512   0.487
 6906TIP3   OH244912   5.835   2.828   0.803
 6906TIP3    H144913   5.870   2.741   0.820
 6906TIP3    H244914   5.912   2.885   0.802
 6907TIP3   OH244915   6.916   3.540   0.982
 6907TIP3    H144916   6.913   3.489   0.901
 6907TIP3    H244917   6.894   3.477   1.051
 6908TIP3   OH244918   6.642   3.067   1.075
 6908TIP3    H144919   6.680   2.982   1.054
 6908TIP3    H244920   6.695   3.099   1.148
 6909TIP3   OH244921   7.430   2.255   1.127
 6909TIP3    H144922   7.423   2.301   1.211
 6909TIP3    H244923   7.466   2.319   1.067
 6910TIP3   OH244924   6.874   2.474   1.068
 6910TIP3    H144925   6.898   2.382   1.074
 6910TIP3    H244926   6.854   2.488   0.976
 6911TIP3   OH244927   6.243   2.308   0.781
 6911TIP3    H144928   6.255   2.385   0.726
 6911TIP3    H244929   6.190   2.249   0.728
 6912TIP3   OH244930   7.008   2.345   0.634
 6912TIP3    H144931   7.050   2.322   0.717
 6912TIP3    H244932   7.074   2.395   0.587
 6913TIP3   OH244933   5.910   2.565   0.855
 6913TIP3    H144934   5.970   2.520   0.915
 6913TIP3    H244935   5.933   2.531   0.769
 6914TIP3   OH244936   6.367   2.694   0.809
 6914TIP3    H144937   6.448   2.659   0.847
 6914TIP3    H244938   6.337   2.624   0.750
 6915TIP3   OH244939   7.406   2.379   1.366
 6915TIP3    H144940   7.363   2.464   1.356
 6915TIP3    H244941   7.472   2.392   1.434
 6916TIP3   OH244942   6.090   2.262   1.238
 6916TIP3    H144943   6.074   2.313   1.158
 6916TIP3    H244944   6.017   2.285   1.296
 6917TIP3   OH244945   6.922   3.210   0.455
 6917TIP3    H144946   6.992   3.221   0.520
 6917TIP3    H244947   6.861   3.281   0.474
 6918TIP3   OH244948   6.391   2.989   1.163
 6918TIP3    H144949   6.330   3.063   1.169
 6918TIP3    H244950   6.471   3.027   1.128
 6919TIP3   OH244951   7.114   2.330   0.882
 6919TIP3    H144952   7.058   2.286   0.946
 6919TIP3    H244953   7.170   2.388   0.934
 6920TIP3   OH244954   6.090   2.398   0.994
 6920TIP3    H144955   6.147   2.458   1.042
 6920TIP3    H244956   6.147   2.360   0.926
 6921TIP3   OH244957   6.192   3.180   1.184
 6921TIP3    H144958   6.225   3.263   1.219
 6921TIP3    H244959   6.121   3.155   1.243
 6922TIP3   OH244960   5.806   3.157   0.440
 6922TIP3    H144961   5.796   3.204   0.357
 6922TIP3    H244962   5.833   3.224   0.503
 6923TIP3   OH244963   7.152   3.330   1.104
 6923TIP3    H144964   7.063   3.344   1.135
 6923TIP3    H244965   7.181   3.417   1.075
 6924TIP3   OH244966   7.211   2.090   1.100
 6924TIP3    H144967   7.136   2.149   1.099
 6924TIP3    H244968   7.287   2.148   1.103
 6925TIP3   OH244969   6.429   1.920   0.967
 6925TIP3    H144970   6.425   1.828   0.996
 6925TIP3    H244971   6.355   1.962   1.012
 6926TIP3   OH244972   6.960   3.435   0.726
 6926TIP3    H144973   7.012   3.357   0.706
 6926TIP3    H244974   7.022   3.507   0.717
 6927TIP3   OH244975   7.121   3.227   0.644
 6927TIP3    H144976   7.190   3.194   0.586
 6927TIP3    H244977   7.142   3.190   0.730
 6928TIP3   OH244978   7.275   3.062   1.407
 6928TIP3    H144979   7.263   3.024   1.320
 6928TIP3    H244980   7.307   3.150   1.391
 6929TIP3   OH244981   6.742   2.823   0.418
 6929TIP3    H144982   6.677   2.885   0.383
 6929TIP3    H244983   6.811   2.821   0.352
 6930TIP3   OH244984   6.752   2.674   0.130
 6930TIP3    H144985   6.835   2.700   0.169
 6930TIP3    H244986   6.777   2.619   0.055
 6931TIP3   OH244987   7.425   2.786   1.205
 6931TIP3    H144988   7.366   2.859   1.185
 6931TIP3    H244989   7.479   2.778   1.127
 6932TIP3   OH244990   7.114   2.885   0.489
 6932TIP3    H144991   7.040   2.918   0.540
 6932TIP3    H244992   7.162   2.828   0.550
 6933TIP3   OH244993   7.012   2.654   1.475
 6933TIP3    H144994   6.998   2.730   1.531
 6933TIP3    H244995   6.951   2.666   1.402
 6934TIP3   OH244996   6.270   2.890   0.634
 6934TIP3    H144997   6.238   2.845   0.556
 6934TIP3    H244998   6.314   2.822   0.686
 6935TIP3   OH244999   6.562   3.297   0.936
 6935TIP3    H145000   6.523   3.273   0.852
 6935TIP3    H245001   6.593   3.215   0.973
 6936TIP3   OH245002   6.234   2.815   1.020
 6936TIP3    H145003   6.287   2.780   0.949
 6936TIP3    H245004   6.293   2.872   1.068
 6937TIP3   OH245005   6.901   3.374   1.209
 6937TIP3    H145006   6.880   3.442   1.273
 6937TIP3    H245007   6.849   3.299   1.236
 6938TIP3   OH245008   6.360   3.257   1.535
 6938TIP3    H145009   6.290   3.287   1.592
 6938TIP3    H245010   6.332   3.284   1.447
 6939TIP3   OH245011   6.981   2.789   0.267
 6939TIP3    H145012   7.025   2.819   0.347
 6939TIP3    H245013   7.023   2.836   0.196
 6940TIP3   OH245014   5.993   2.806   1.519
 6940TIP3    H145015   6.012   2.888   1.566
 6940TIP3    H245016   5.898   2.805   1.512
 6941TIP3   OH245017   6.763   3.425   0.529
 6941TIP3    H145018   6.811   3.426   0.612
 6941TIP3    H245019   6.736   3.516   0.516
 6942TIP3   OH245020   6.153   3.371   1.671
 6942TIP3    H145021   6.131   3.435   1.603
 6942TIP3    H245022   6.074   3.365   1.724
 6943TIP3   OH245023   7.351   1.927   0.339
 6943TIP3    H145024   7.261   1.960   0.344
 6943TIP3    H245025   7.405   2.002   0.363
 6944TIP3   OH245026   6.164   2.787   0.398
 6944TIP3    H145027   6.084   2.835   0.378
 6944TIP3    H245028   6.141   2.695   0.387
 6945TIP3   OH245029   7.525   3.382   0.161
 6945TIP3    H145030   7.489   3.469   0.142
 6945TIP3    H245031   7.591   3.398   0.229
 6946TIP3   OH245032   5.742   3.056   1.383
 6946TIP3    H145033   5.689   3.069   1.305
 6946TIP3    H245034   5.734   2.963   1.403
 6947TIP3   OH245035   5.706   3.360   1.090
 6947TIP3    H145036   5.783   3.365   1.146
 6947TIP3    H245037   5.660   3.443   1.103
 6948TIP3   OH245038   7.571   3.465   1.650
 6948TIP3    H145039   7.585   3.371   1.660
 6948TIP3    H245040   7.485   3.481   1.689
 6949TIP3   OH245041   6.613   3.365   1.549
 6949TIP3    H145042   6.605   3.444   1.603
 6949TIP3    H245043   6.524   3.330   1.545
 6950TIP3   OH245044   6.714   3.686   0.464
 6950TIP3    H145045   6.685   3.706   0.375
 6950TIP3    H245046   6.686   3.762   0.515
 6951TIP3   OH245047   6.073   3.568   0.684
 6951TIP3    H145048   6.105   3.541   0.770
 6951TIP3    H245049   6.016   3.497   0.655
 6952TIP3   OH245050   6.941   3.742   0.192
 6952TIP3    H145051   6.958   3.658   0.149
 6952TIP3    H245052   6.969   3.729   0.282
 6953TIP3   OH245053   6.992   3.681   0.456
 6953TIP3    H145054   6.898   3.673   0.472
 6953TIP3    H245055   7.033   3.650   0.537
 6954TIP3   OH245056   7.195   2.525   1.647
 6954TIP3    H145057   7.128   2.571   1.595
 6954TIP3    H245058   7.192   2.435   1.616
 6955TIP3   OH245059   5.998   3.160   1.386
 6955TIP3    H145060   6.027   3.142   1.475
 6955TIP3    H245061   5.909   3.123   1.382
 6956TIP3   OH245062   6.195   2.039   1.093
 6956TIP3    H145063   6.121   2.026   1.033
 6956TIP3    H245064   6.170   2.116   1.145
 6957TIP3   OH245065   6.675   2.028   1.433
 6957TIP3    H145066   6.708   1.983   1.511
 6957TIP3    H245067   6.580   2.033   1.447
 6958TIP3   OH245068   6.926   2.383   1.501
 6958TIP3    H145069   6.888   2.375   1.588
 6958TIP3    H245070   6.946   2.476   1.491
 6959TIP3   OH245071   7.112   2.954   0.095
 6959TIP3    H145072   7.115   3.046   0.123
 6959TIP3    H245073   7.202   2.933   0.070
 6960TIP3   OH245074   6.555   2.320   0.206
 6960TIP3    H145075   6.527   2.274   0.285
 6960TIP3    H245076   6.495   2.289   0.138
 6961TIP3   OH245077   6.231   2.573   1.156
 6961TIP3    H145078   6.167   2.582   1.227
 6961TIP3    H245079   6.233   2.659   1.114
 6962TIP3   OH245080   6.238   2.531   0.618
 6962TIP3    H145081   6.143   2.520   0.613
 6962TIP3    H245082   6.267   2.524   0.527
 6963TIP3   OH245083   6.759   2.579   0.540
 6963TIP3    H145084   6.740   2.667   0.507
 6963TIP3    H245085   6.833   2.549   0.486
 6964TIP3   OH245086   6.637   2.618   1.680
 6964TIP3    H145087   6.601   2.540   1.721
 6964TIP3    H245088   6.722   2.631   1.721
 6965TIP3   OH245089   6.849   2.510   0.795
 6965TIP3    H145090   6.802   2.556   0.725
 6965TIP3    H245091   6.896   2.440   0.750
 6966TIP3   OH245092   6.024   2.606   1.330
 6966TIP3    H145093   6.016   2.666   1.404
 6966TIP3    H245094   5.973   2.529   1.355
 6967TIP3   OH245095   6.326   2.238   0.069
 6967TIP3    H145096   6.269   2.241   0.146
 6967TIP3    H245097   6.286   2.300   0.008
 6968TIP3   OH245098   5.689   2.299   0.745
 6968TIP3    H145099   5.743   2.310   0.823
 6968TIP3    H245100   5.697   2.383   0.699
 6969TIP3   OH245101   5.664   2.356   0.221
 6969TIP3    H145102   5.731   2.401   0.169
 6969TIP3    H245103   5.614   2.426   0.262
 6970TIP3   OH245104   6.827   2.650   1.270
 6970TIP3    H145105   6.849   2.586   1.202
 6970TIP3    H245106   6.751   2.613   1.314
 6971TIP3   OH245107   6.527   2.323   0.816
 6971TIP3    H145108   6.434   2.305   0.827
 6971TIP3    H245109   6.570   2.241   0.842
 6972TIP3   OH245110   5.973   2.454   0.611
 6972TIP3    H145111   5.884   2.468   0.577
 6972TIP3    H245112   5.987   2.359   0.602
 6973TIP3   OH245113   6.248   2.511   0.327
 6973TIP3    H145114   6.336   2.541   0.306
 6973TIP3    H245115   6.198   2.528   0.247
 6974TIP3   OH245116   6.958   2.205   1.068
 6974TIP3    H145117   6.924   2.197   1.158
 6974TIP3    H245118   6.924   2.128   1.023
 6975TIP3   OH245119   6.110   2.547   0.092
 6975TIP3    H145120   6.015   2.535   0.084
 6975TIP3    H245121   6.147   2.496   0.020
 6976TIP3   OH245122   7.296   3.782   1.694
 6976TIP3    H145123   7.315   3.811   1.605
 6976TIP3    H245124   7.372   3.810   1.745
 6977TIP3   OH245125   6.024   3.043   1.660
 6977TIP3    H145126   6.091   3.041   1.728
 6977TIP3    H245127   5.942   3.063   1.707
 6978TIP3   OH245128   6.588   2.589   0.950
 6978TIP3    H145129   6.626   2.520   0.897
 6978TIP3    H245130   6.557   2.545   1.029
 6979TIP3   OH245131   6.066   2.191   0.591
 6979TIP3    H145132   6.025   2.109   0.620
 6979TIP3    H245133   6.092   2.174   0.501
 6980TIP3   OH245134   6.484   2.471   1.183
 6980TIP3    H145135   6.399   2.514   1.181
 6980TIP3    H245136   6.526   2.505   1.262
 6981TIP3   OH245137   6.567   3.006   0.314
 6981TIP3    H145138   6.500   2.952   0.271
 6981TIP3    H245139   6.520   3.050   0.385
 6982TIP3   OH245140   7.243   2.981   1.146
 6982TIP3    H145141   7.285   3.043   1.087
 6982TIP3    H245142   7.161   2.957   1.102
 6983TIP3   OH245143   6.834   2.318   0.234
 6983TIP3    H145144   6.740   2.335   0.226
 6983TIP3    H245145   6.870   2.399   0.270
 6984TIP3   OH245146   6.653   3.073   1.543
 6984TIP3    H145147   6.696   3.040   1.621
 6984TIP3    H245148   6.638   3.166   1.562
 6985TIP3   OH245149   6.974   2.528   0.363
 6985TIP3    H145150   7.061   2.507   0.398
 6985TIP3    H245151   6.983   2.614   0.324
 6986TIP3   OH245152   6.084   2.958   0.827
 6986TIP3    H145153   6.143   2.946   0.753
 6986TIP3    H245154   6.126   2.910   0.899
 6987TIP3   OH245155   6.731   3.165   0.159
 6987TIP3    H145156   6.701   3.246   0.200
 6987TIP3    H245157   6.684   3.096   0.206
 6988TIP3   OH245158   5.709   2.791   1.473
 6988TIP3    H145159   5.703   2.712   1.528
 6988TIP3    H245160   5.656   2.771   1.396
 6989TIP3   OH245161   6.436   2.800   1.736
 6989TIP3    H145162   6.368   2.771   1.676
 6989TIP3    H245163   6.512   2.746   1.713
 6990TIP3   OH245164   6.896   3.346   1.555
 6990TIP3    H145165   6.803   3.354   1.536
 6990TIP3    H245166   6.902   3.350   1.651
 6991TIP3   OH245167   7.573   2.547   0.265
 6991TIP3    H145168   7.531   2.506   0.190
 6991TIP3    H245169   7.578   2.640   0.243
 6992TIP3   OH245170   7.529   3.191   1.630
 6992TIP3    H145171   7.433   3.193   1.635
 6992TIP3    H245172   7.548   3.147   1.547
 6993TIP3   OH245173   7.338   3.374   0.374
 6993TIP3    H145174   7.305   3.288   0.399
 6993TIP3    H245175   7.390   3.358   0.294
 6994TIP3   OH245176   7.018   2.913   0.996
 6994TIP3    H145177   6.925   2.902   1.014
 6994TIP3    H245178   7.044   2.833   0.949
 6995TIP3   OH245179   6.384   3.281   0.716
 6995TIP3    H145180   6.370   3.371   0.684
 6995TIP3    H245181   6.313   3.266   0.777
 6996TIP3   OH245182   5.805   2.785   0.141
 6996TIP3    H145183   5.861   2.831   0.204
 6996TIP3    H245184   5.717   2.791   0.179
 6997TIP3   OH245185   6.396   3.103   0.509
 6997TIP3    H145186   6.407   3.169   0.577
 6997TIP3    H245187   6.353   3.029   0.553
 6998TIP3   OH245188   6.533   3.502   1.305
 6998TIP3    H145189   6.572   3.589   1.301
 6998TIP3    H245190   6.578   3.459   1.378
 6999TIP3   OH245191   6.338   3.539   0.604
 6999TIP3    H145192   6.248   3.564   0.624
 6999TIP3    H245193   6.392   3.607   0.645
 7000TIP3   OH245194   6.785   3.133   1.305
 7000TIP3    H145195   6.723   3.112   1.374
 7000TIP3    H245196   6.870   3.107   1.340
 7001TIP3   OH245197   7.003   3.216   0.186
 7001TIP3    H145198   7.003   3.213   0.282
 7001TIP3    H245199   6.913   3.191   0.161
 7002TIP3   OH245200   7.123   3.484   1.470
 7002TIP3    H145201   7.040   3.443   1.494
 7002TIP3    H245202   7.099   3.559   1.416
 7003TIP3   OH245203   7.418   3.631   0.102
 7003TIP3    H145204   7.466   3.673   0.030
 7003TIP3    H245205   7.395   3.702   0.161
 7004TIP3   OH245206   5.875   2.377   1.388
 7004TIP3    H145207   5.787   2.381   1.352
 7004TIP3    H245208   5.863   2.356   1.480
 7005TIP3   OH245209   7.273   3.109   0.439
 7005TIP3    H145210   7.213   3.034   0.443
 7005TIP3    H245211   7.360   3.069   0.430
 7006TIP3   OH245212   5.928   3.405   1.255
 7006TIP3    H145213   5.954   3.321   1.293
 7006TIP3    H245214   5.959   3.471   1.318
 7007TIP3   OH245215   6.282   3.222   0.286
 7007TIP3    H145216   6.315   3.179   0.365
 7007TIP3    H245217   6.308   3.314   0.297
 7008TIP3   OH245218   5.947   2.943   0.322
 7008TIP3    H145219   5.896   2.997   0.383
 7008TIP3    H245220   5.986   3.006   0.262
 7009TIP3   OH245221   6.867   2.185   1.319
 7009TIP3    H145222   6.884   2.254   1.383
 7009TIP3    H245223   6.798   2.132   1.360
 7010TIP3   OH245224   6.865   2.173   0.471
 7010TIP3    H145225   6.855   2.222   0.389
 7010TIP3    H245226   6.908   2.235   0.530
 7011TIP3   OH245227   6.632   3.387   0.285
 7011TIP3    H145228   6.541   3.411   0.304
 7011TIP3    H245229   6.676   3.393   0.370
 7012TIP3   OH245230   6.538   2.414   0.558
 7012TIP3    H145231   6.611   2.476   0.549
 7012TIP3    H245232   6.538   2.391   0.651
 7013TIP3   OH245233   6.625   2.528   1.416
 7013TIP3    H145234   6.617   2.577   1.498
 7013TIP3    H245235   6.648   2.439   1.444
 7014TIP3   OH245236   6.639   2.057   0.585
 7014TIP3    H145237   6.650   2.074   0.679
 7014TIP3    H245238   6.717   2.096   0.545
 7015TIP3   OH245239   6.377   3.479   0.336
 7015TIP3    H145240   6.366   3.562   0.290
 7015TIP3    H245241   6.363   3.500   0.428
 7016TIP3   OH245242   6.194   2.232   0.318
 7016TIP3    H145243   6.192   2.326   0.335
 7016TIP3    H245244   6.275   2.202   0.358
 7017TIP3   OH245245   7.192   2.279   1.518
 7017TIP3    H145246   7.101   2.284   1.490
 7017TIP3    H245247   7.243   2.297   1.439
 7018TIP3   OH245248   7.075   2.663   0.886
 7018TIP3    H145249   6.994   2.614   0.869
 7018TIP3    H245250   7.123   2.608   0.948
 7019TIP3   OH245251   6.056   3.131   0.148
 7019TIP3    H145252   6.122   3.174   0.203
 7019TIP3    H245253   6.106   3.079   0.086
 7020TIP3   OH245254   5.826   2.522   0.063
 7020TIP3    H145255   5.818   2.614   0.088
 7020TIP3    H245256   5.771   2.512  -0.014
 7021TIP3   OH245257   7.261   3.585   1.063
 7021TIP3    H145258   7.242   3.642   0.989
 7021TIP3    H245259   7.355   3.592   1.076
 7022TIP3   OH245260   5.965   2.000   0.942
 7022TIP3    H145261   5.967   1.987   0.848
 7022TIP3    H245262   5.944   1.914   0.978
 7023TIP3   OH245263   5.866   3.388   0.597
 7023TIP3    H145264   5.825   3.410   0.680
 7023TIP3    H245265   5.827   3.448   0.534
 7024TIP3   OH245266   5.773   3.614   1.592
 7024TIP3    H145267   5.863   3.605   1.561
 7024TIP3    H245268   5.759   3.538   1.648
 7025TIP3   OH245269   6.282   3.479   1.891
 7025TIP3    H145270   6.364   3.429   1.897
 7025TIP3    H245271   6.239   3.446   1.812
 7026TIP3   OH245272   6.705   3.502   0.047
 7026TIP3    H145273   6.673   3.454   0.123
 7026TIP3    H245274   6.801   3.499   0.055
 7027TIP3   OH245275   6.915   3.359   1.829
 7027TIP3    H145276   6.916   3.279   1.882
 7027TIP3    H245277   6.993   3.407   1.855
 7028TIP3   OH245278   6.973   3.484   0.094
 7028TIP3    H145279   6.992   3.402   0.140
 7028TIP3    H245280   7.051   3.500   0.041
 7029TIP3   OH245281   5.792   3.053   1.816
 7029TIP3    H145282   5.779   2.959   1.817
 7029TIP3    H245283   5.725   3.087   1.757
 7030TIP3   OH245284   6.321   3.075   0.054
 7030TIP3    H145285   6.342   2.984   0.076
 7030TIP3    H245286   6.331   3.122   0.137
 7031TIP3   OH245287   6.424   3.081   1.739
 7031TIP3    H145288   6.408   3.120   1.653
 7031TIP3    H245289   6.443   2.989   1.719
 7032TIP3   OH245290   7.005   3.101   1.472
 7032TIP3    H145291   7.098   3.106   1.452
 7032TIP3    H245292   6.982   3.189   1.501
 7033TIP3   OH245293   5.758   2.778   1.817
 7033TIP3    H145294   5.732   2.706   1.759
 7033TIP3    H245295   5.706   2.765   1.896
 7034TIP3   OH245296   6.372   2.841   0.220
 7034TIP3    H145297   6.298   2.831   0.280
 7034TIP3    H245298   6.409   2.754   0.211
 7035TIP3   OH245299   6.265   2.714   1.534
 7035TIP3    H145300   6.175   2.747   1.527
 7035TIP3    H245301   6.318   2.778   1.487
 7036TIP3   OH245302   6.500   2.591   0.224
 7036TIP3    H145303   6.518   2.497   0.219
 7036TIP3    H245304   6.585   2.632   0.205
 7037TIP3   OH245305   6.800   2.979   1.785
 7037TIP3    H145306   6.870   2.931   1.742
 7037TIP3    H245307   6.761   2.917   1.846
 7038TIP3   OH245308   7.370   2.869  10.012
 7038TIP3    H145309   7.366   2.786   9.965
 7038TIP3    H245310   7.434   2.921   9.963
 7039TIP3   OH245311   6.315   2.445   1.603
 7039TIP3    H145312   6.321   2.395   1.522
 7039TIP3    H245313   6.300   2.535   1.574
 7040TIP3   OH245314   6.335   2.298   1.361
 7040TIP3    H145315   6.390   2.334   1.292
 7040TIP3    H245316   6.249   2.287   1.320
 7041TIP3   OH245317   6.433   2.907   1.430
 7041TIP3    H145318   6.508   2.958   1.460
 7041TIP3    H245319   6.421   2.933   1.338
 7042TIP3   OH245320   6.870   2.623   1.830
 7042TIP3    H145321   6.875   2.529   1.814
 7042TIP3    H245322   6.957   2.646   1.863
 7043TIP3   OH245323   7.020   2.882   1.635
 7043TIP3    H145324   7.000   2.957   1.579
 7043TIP3    H245325   7.115   2.879   1.639
 7044TIP3   OH245326   6.140   2.400   1.818
 7044TIP3    H145327   6.081   2.330   1.790
 7044TIP3    H245328   6.191   2.420   1.740
 7045TIP3   OH245329   6.399   2.041   1.454
 7045TIP3    H145330   6.375   2.130   1.429
 7045TIP3    H245331   6.336   1.985   1.409
 7046TIP3   OH245332   6.524   2.387   1.783
 7046TIP3    H145333   6.484   2.355   1.863
 7046TIP3    H245334   6.452   2.396   1.721
 7047TIP3   OH245335   6.812   2.363   1.750
 7047TIP3    H145336   6.719   2.349   1.771
 7047TIP3    H245337   6.857   2.294   1.798
 7048TIP3   OH245338   6.955   2.177   1.891
 7048TIP3    H145339   6.955   2.082   1.876
 7048TIP3    H245340   6.932   2.185   1.984
 7049TIP3   OH245341   5.978   2.176   1.776
 7049TIP3    H145342   5.976   2.095   1.726
 7049TIP3    H245343   6.002   2.149   1.865
 7050TIP3   OH245344   6.395   1.929   1.706
 7050TIP3    H145345   6.448   1.850   1.691
 7050TIP3    H245346   6.393   1.972   1.620
 7051TIP3   OH245347   6.463   2.053   1.941
 7051TIP3    H145348   6.442   2.012   1.857
 7051TIP3    H245349   6.411   2.134   1.942
 7052TIP3   OH245350   6.391   3.715   0.180
 7052TIP3    H145351   6.480   3.746   0.198
 7052TIP3    H245352   6.348   3.788   0.136
 7053TIP3   OH245353   5.796   3.237   0.165
 7053TIP3    H145354   5.882   3.198   0.148
 7053TIP3    H245355   5.735   3.182   0.115
 7054TIP3   OH245356   5.696   3.718   0.697
 7054TIP3    H145357   5.626   3.694   0.636
 7054TIP3    H245358   5.711   3.638   0.748
 7055TIP3   OH245359   5.769   3.487   0.840
 7055TIP3    H145360   5.723   3.425   0.896
 7055TIP3    H245361   5.834   3.528   0.897
 7056TIP3   OH245362   7.534   3.631   1.145
 7056TIP3    H145363   7.526   3.594   1.233
 7056TIP3    H245364   7.550   3.724   1.159
 7057TIP3   OH245365   7.489   3.526   1.393
 7057TIP3    H145366   7.438   3.446   1.377
 7057TIP3    H245367   7.533   3.510   1.476
 7058TIP3   OH245368   7.352   3.217   1.907
 7058TIP3    H145369   7.298   3.235   1.985
 7058TIP3    H245370   7.432   3.267   1.923
 7059TIP3   OH245371   7.521   2.985   0.432
 7059TIP3    H145372   7.598   3.041   0.432
 7059TIP3    H245373   7.528   2.934   0.512
 7060TIP3   OH245374   7.488   2.808   0.651
 7060TIP3    H145375   7.396   2.786   0.660
 7060TIP3    H245376   7.517   2.828   0.741
 7061TIP3   OH245377   7.537   3.101   1.132
 7061TIP3    H145378   7.620   3.063   1.103
 7061TIP3    H245379   7.541   3.193   1.104
 7062TIP3   OH245380   7.304   3.326   1.338
 7062TIP3    H145381   7.241   3.379   1.387
 7062TIP3    H245382   7.267   3.319   1.250
 7063TIP3   OH245383   7.562   2.820   0.216
 7063TIP3    H145384   7.495   2.840   0.150
 7063TIP3    H245385   7.542   2.879   0.289
 7064TIP3   OH245386   7.452   2.445   0.037
 7064TIP3    H145387   7.487   2.466  -0.049
 7064TIP3    H245388   7.406   2.362   0.025
 7065TIP3   OH245389   7.230   2.708   0.665
 7065TIP3    H145390   7.218   2.623   0.624
 7065TIP3    H245391   7.179   2.703   0.746
 7066TIP3   OH245392   5.724   2.858   1.050
 7066TIP3    H145393   5.742   2.864   0.956
 7066TIP3    H245394   5.810   2.843   1.090
 7067TIP3   OH245395   7.296   2.881   1.618
 7067TIP3    H145396   7.356   2.809   1.599
 7067TIP3    H245397   7.303   2.939   1.541
 7068TIP3   OH245398   7.442   2.633   1.589
 7068TIP3    H145399   7.356   2.600   1.617
 7068TIP3    H245400   7.501   2.559   1.605
 7069TIP3   OH245401   7.343   2.183   9.987
 7069TIP3    H145402   7.429   2.163  10.024
 7069TIP3    H245403   7.298   2.098   9.983
 7070TIP3   OH245404   7.225   2.474   0.501
 7070TIP3    H145405   7.236   2.379   0.491
 7070TIP3    H245406   7.315   2.508   0.503
 7071TIP3   OH245407   7.243   2.508   1.049
 7071TIP3    H145408   7.338   2.508   1.037
 7071TIP3    H245409   7.230   2.529   1.141
 7072TIP3   OH245410   7.248   2.598   1.313
 7072TIP3    H145411   7.175   2.635   1.363
 7072TIP3    H245412   7.300   2.674   1.288
 7073TIP3   OH245413   5.784   2.322   1.645
 7073TIP3    H145414   5.852   2.281   1.699
 7073TIP3    H245415   5.711   2.260   1.648
 7074TIP3   OH245416   7.521   1.989   1.820
 7074TIP3    H145417   7.596   1.939   1.787
 7074TIP3    H245418   7.507   2.057   1.754
 7075TIP3   OH245419   7.256   2.206   0.488
 7075TIP3    H145420   7.288   2.165   0.568
 7075TIP3    H245421   7.193   2.143   0.453
 7076TIP3   OH245422   5.847   2.250   0.976
 7076TIP3    H145423   5.882   2.162   0.966
 7076TIP3    H245424   5.924   2.306   0.986
 7077TIP3   OH245425   5.666   2.580   0.994
 7077TIP3    H145426   5.747   2.564   0.945
 7077TIP3    H245427   5.674   2.672   1.022
 7078TIP3   OH245428   7.398   2.199   1.684
 7078TIP3    H145429   7.348   2.203   1.765
 7078TIP3    H245430   7.333   2.210   1.614
 7079TIP3   OH245431   7.596   2.162   0.105
 7079TIP3    H145432   7.652   2.096   0.146
 7079TIP3    H245433   7.658   2.226   0.069
 7080TIP3   OH245434   5.675   2.149   0.404
 7080TIP3    H145435   5.595   2.161   0.455
 7080TIP3    H245436   5.681   2.228   0.350
 7081TIP3   OH245437   7.146   3.632   0.681
 7081TIP3    H145438   7.224   3.627   0.626
 7081TIP3    H245439   7.172   3.690   0.753
 7082TIP3   OH245440   5.735   1.968   1.283
 7082TIP3    H145441   5.669   1.975   1.352
 7082TIP3    H245442   5.715   2.041   1.224
 7083TIP3   OH245443   5.929   3.414   1.818
 7083TIP3    H145444   5.834   3.410   1.812
 7083TIP3    H245445   5.947   3.476   1.889
 7084TIP3   OH245446   6.275   3.403   1.315
 7084TIP3    H145447   6.212   3.463   1.355
 7084TIP3    H245448   6.356   3.454   1.308
 7085TIP3   OH245449   6.606   3.597   1.700
 7085TIP3    H145450   6.623   3.573   1.791
 7085TIP3    H245451   6.682   3.648   1.673
 7086TIP3   OH245452   6.838   3.721   1.624
 7086TIP3    H145453   6.872   3.678   1.545
 7086TIP3    H245454   6.913   3.725   1.683
 7087TIP3   OH245455   7.358   1.910   1.445
 7087TIP3    H145456   7.281   1.901   1.388
 7087TIP3    H245457   7.407   1.829   1.432
 7088TIP3   OH245458   5.981   3.866   1.368
 7088TIP3    H145459   5.892   3.855   1.335
 7088TIP3    H245460   6.009   3.777   1.392
 7089TIP3   OH245461   6.309   3.751   1.329
 7089TIP3    H145462   6.236   3.703   1.370
 7089TIP3    H245463   6.274   3.780   1.245
 7090TIP3   OH245464   6.656   3.746   1.259
 7090TIP3    H145465   6.603   3.778   1.186
 7090TIP3    H245466   6.663   3.822   1.318
 7091TIP3   OH245467   6.880   3.619   1.358
 7091TIP3    H145468   6.802   3.659   1.319
 7091TIP3    H245469   6.954   3.662   1.314
 7092TIP3   OH245470   7.128   3.707   1.269
 7092TIP3    H145471   7.121   3.794   1.229
 7092TIP3    H245472   7.164   3.651   1.200
 7093TIP3   OH245473   5.954   3.577   1.027
 7093TIP3    H145474   5.940   3.529   1.109
 7093TIP3    H245475   6.041   3.549   0.998
 7094TIP3   OH245476   6.190   3.486   0.923
 7094TIP3    H145477   6.189   3.390   0.921
 7094TIP3    H245478   6.274   3.508   0.964
 7095TIP3   OH245479   6.442   3.517   1.042
 7095TIP3    H145480   6.489   3.447   0.997
 7095TIP3    H245481   6.467   3.507   1.134
 7096TIP3   OH245482   6.641   2.069   0.861
 7096TIP3    H145483   6.577   2.017   0.909
 7096TIP3    H245484   6.726   2.037   0.892
 7097TIP3   OH245485   7.184   1.951   0.864
 7097TIP3    H145486   7.244   1.996   0.805
 7097TIP3    H245487   7.196   1.994   0.948
 7098TIP3   OH245488   7.373   2.066   0.699
 7098TIP3    H145489   7.437   1.995   0.691
 7098TIP3    H245490   7.426   2.145   0.702
 7099TIP3   OH245491   5.960   1.947   0.669
 7099TIP3    H145492   5.868   1.919   0.661
 7099TIP3    H245493   6.010   1.866   0.658
 7100TIP3   OH245494   5.771   1.955   0.240
 7100TIP3    H145495   5.847   1.998   0.201
 7100TIP3    H245496   5.736   2.018   0.302
 7101TIP3   OH245497   6.432   1.888   0.687
 7101TIP3    H145498   6.498   1.951   0.658
 7101TIP3    H245499   6.426   1.900   0.781
 7102TIP3   OH245500   6.897   1.971   0.936
 7102TIP3    H145501   6.982   1.962   0.892
 7102TIP3    H245502   6.878   1.883   0.969
 7103TIP3   OH245503   7.084   2.017   0.393
 7103TIP3    H145504   7.007   2.070   0.414
 7103TIP3    H245505   7.052   1.927   0.396
 7104TIP3   OH245506   5.747   3.560   0.421
 7104TIP3    H145507   5.656   3.575   0.448
 7104TIP3    H245508   5.776   3.646   0.388
 7105TIP3   OH245509   6.001   2.096   0.144
 7105TIP3    H145510   6.055   2.023   0.114
 7105TIP3    H245511   6.055   2.141   0.209
 7106TIP3   OH245512   6.445   2.196   0.430
 7106TIP3    H145513   6.494   2.128   0.475
 7106TIP3    H245514   6.467   2.277   0.476
 7107TIP3   OH245515   6.666   3.743   0.191
 7107TIP3    H145516   6.755   3.779   0.191
 7107TIP3    H245517   6.671   3.666   0.134
 7108TIP3   OH245518   7.351   3.625   0.487
 7108TIP3    H145519   7.341   3.536   0.453
 7108TIP3    H245520   7.347   3.681   0.409
 7109TIP3   OH245521   5.966   1.916   1.670
 7109TIP3    H145522   5.891   1.861   1.694
 7109TIP3    H245523   6.035   1.891   1.731
 7110TIP3   OH245524   6.171   1.865   1.854
 7110TIP3    H145525   6.246   1.896   1.805
 7110TIP3    H245526   6.191   1.774   1.874
 7111TIP3   OH245527   5.886   3.548   0.150
 7111TIP3    H145528   5.866   3.630   0.195
 7111TIP3    H245529   5.880   3.481   0.219
 7112TIP3   OH245530   7.006   1.913   1.822
 7112TIP3    H145531   7.005   1.856   1.898
 7112TIP3    H245532   7.095   1.908   1.788
 7113TIP3   OH245533   7.296   3.509   1.688
 7113TIP3    H145534   7.239   3.491   1.613
 7113TIP3    H245535   7.300   3.604   1.693
 7114TIP3   OH245536   7.497   2.552   0.530
 7114TIP3    H145537   7.501   2.644   0.555
 7114TIP3    H245538   7.529   2.550   0.440
 7115TIP3   OH245539   7.584   3.051   1.400
 7115TIP3    H145540   7.552   3.070   1.312
 7115TIP3    H245541   7.579   2.956   1.407
 7116TIP3   OH245542   7.614   3.358   1.060
 7116TIP3    H145543   7.709   3.344   1.058
 7116TIP3    H245544   7.603   3.440   1.109
 7117TIP3   OH245545   7.507   2.305   0.671
 7117TIP3    H145546   7.595   2.304   0.709
 7117TIP3    H245547   7.500   2.391   0.629
 7118TIP3   OH245548   7.599   2.775   1.418
 7118TIP3    H145549   7.551   2.725   1.484
 7118TIP3    H245550   7.547   2.764   1.338
 7119TIP3   OH245551   7.647   3.031   1.822
 7119TIP3    H145552   7.570   2.986   1.859
 7119TIP3    H245553   7.610   3.098   1.764
 7120TIP3   OH245554   7.523   3.736   0.670
 7120TIP3    H145555   7.465   3.699   0.605
 7120TIP3    H245556   7.520   3.675   0.743
 7121TIP3   OH245557   7.528   3.562   0.877
 7121TIP3    H145558   7.538   3.468   0.890
 7121TIP3    H245559   7.540   3.600   0.964
 7122TIP3   OH245560   7.605   2.788   0.984
 7122TIP3    H145561   7.671   2.760   0.921
 7122TIP3    H245562   7.647   2.859   1.033
 7123TIP3   OH245563   7.577   2.387   1.591
 7123TIP3    H145564   7.666   2.356   1.607
 7123TIP3    H245565   7.521   2.322   1.632
 7124TIP3   OH245566   7.521   2.518   1.037
 7124TIP3    H145567   7.607   2.495   1.072
 7124TIP3    H245568   7.531   2.607   1.005
 7125TIP3   OH245569   7.504   2.156   0.374
 7125TIP3    H145570   7.430   2.206   0.408
 7125TIP3    H245571   7.517   2.190   0.285
 7126TIP3   OH245572   7.544   2.035   1.253
 7126TIP3    H145573   7.488   2.020   1.330
 7126TIP3    H245574   7.503   2.108   1.207
 7127TIP3   OH245575   1.234   4.750   0.680
 7127TIP3    H145576   1.199   4.814   0.742
 7127TIP3    H245577   1.169   4.746   0.610
 7128TIP3   OH245578   1.121   4.721   1.043
 7128TIP3    H145579   1.146   4.680   1.126
 7128TIP3    H245580   1.075   4.651   0.996
 7129TIP3   OH245581   0.368   4.641   1.190
 7129TIP3    H145582   0.307   4.570   1.208
 7129TIP3    H245583   0.405   4.664   1.275
 7130TIP3   OH245584   1.437   5.047   0.876
 7130TIP3    H145585   1.425   4.965   0.923
 7130TIP3    H245586   1.464   5.109   0.944
 7131TIP3   OH245587   0.504   5.094   0.992
 7131TIP3    H145588   0.468   5.007   1.012
 7131TIP3    H245589   0.598   5.085   1.003
 7132TIP3   OH245590   0.154   4.402   0.440
 7132TIP3    H145591   0.204   4.484   0.445
 7132TIP3    H245592   0.072   4.421   0.485
 7133TIP3   OH245593   0.131   4.692   0.756
 7133TIP3    H145594   0.112   4.651   0.840
 7133TIP3    H245595   0.044   4.709   0.718
 7134TIP3   OH245596   1.208   5.426   0.963
 7134TIP3    H145597   1.220   5.373   0.884
 7134TIP3    H245598   1.204   5.362   1.034
 7135TIP3   OH245599   0.996   4.969   1.082
 7135TIP3    H145600   1.035   4.886   1.056
 7135TIP3    H245601   1.052   5.001   1.153
 7136TIP3   OH245602   1.884   4.079   1.200
 7136TIP3    H145603   1.867   4.170   1.227
 7136TIP3    H245604   1.956   4.086   1.137
 7137TIP3   OH245605   1.251   4.385   1.059
 7137TIP3    H145606   1.237   4.292   1.075
 7137TIP3    H245607   1.248   4.393   0.964
 7138TIP3   OH245608   0.648   4.191   0.800
 7138TIP3    H145609   0.653   4.263   0.737
 7138TIP3    H245610   0.604   4.120   0.752
 7139TIP3   OH245611   1.387   4.215   0.670
 7139TIP3    H145612   1.415   4.169   0.749
 7139TIP3    H245613   1.468   4.253   0.635
 7140TIP3   OH245614   0.329   4.455   0.822
 7140TIP3    H145615   0.389   4.413   0.884
 7140TIP3    H245616   0.290   4.382   0.774
 7141TIP3   OH245617   0.765   4.576   0.786
 7141TIP3    H145618   0.847   4.545   0.825
 7141TIP3    H245619   0.733   4.501   0.735
 7142TIP3   OH245620   1.838   4.342   1.265
 7142TIP3    H145621   1.746   4.369   1.269
 7142TIP3    H245622   1.876   4.376   1.346
 7143TIP3   OH245623   0.493   4.138   1.217
 7143TIP3    H145624   0.480   4.200   1.146
 7143TIP3    H245625   0.420   4.153   1.277
 7144TIP3   OH245626   1.065   5.029   0.626
 7144TIP3    H145627   1.160   5.030   0.623
 7144TIP3    H245628   1.039   5.119   0.607
 7145TIP3   OH245629   0.745   4.921   1.208
 7145TIP3    H145630   0.691   4.993   1.241
 7145TIP3    H245631   0.820   4.965   1.168
 7146TIP3   OH245632   1.444   4.130   0.931
 7146TIP3    H145633   1.365   4.124   0.985
 7146TIP3    H245634   1.490   4.206   0.964
 7147TIP3   OH245635   0.484   4.300   0.994
 7147TIP3    H145636   0.538   4.364   1.040
 7147TIP3    H245637   0.544   4.258   0.932
 7148TIP3   OH245638   0.586   5.121   1.321
 7148TIP3    H145639   0.602   5.214   1.337
 7148TIP3    H245640   0.491   5.111   1.329
 7149TIP3   OH245641   0.047   5.056   0.364
 7149TIP3    H145642   0.084   5.053   0.275
 7149TIP3    H245643   0.033   5.149   0.381
 7150TIP3   OH245644   1.480   5.240   1.076
 7150TIP3    H145645   1.391   5.253   1.110
 7150TIP3    H245646   1.508   5.327   1.048
 7151TIP3   OH245647   1.640   3.946   1.239
 7151TIP3    H145648   1.610   3.925   1.151
 7151TIP3    H245649   1.723   3.992   1.225
 7152TIP3   OH245650   0.822   3.771   1.021
 7152TIP3    H145651   0.800   3.679   1.034
 7152TIP3    H245652   0.742   3.818   1.044
 7153TIP3   OH245653   1.283   5.337   0.700
 7153TIP3    H145654   1.312   5.249   0.676
 7153TIP3    H245655   1.363   5.385   0.718
 7154TIP3   OH245656   1.343   5.075   0.625
 7154TIP3    H145657   1.413   5.050   0.565
 7154TIP3    H245658   1.379   5.059   0.712
 7155TIP3   OH245659   1.651   5.000   1.423
 7155TIP3    H145660   1.626   4.949   1.346
 7155TIP3    H245661   1.661   5.089   1.390
 7156TIP3   OH245662   1.088   4.718   0.447
 7156TIP3    H145663   1.020   4.780   0.422
 7156TIP3    H245664   1.150   4.719   0.375
 7157TIP3   OH245665   1.116   4.602   0.056
 7157TIP3    H145666   1.180   4.626   0.123
 7157TIP3    H245667   1.152   4.523   0.016
 7158TIP3   OH245668   1.749   4.687   1.294
 7158TIP3    H145669   1.691   4.751   1.255
 7158TIP3    H245670   1.834   4.702   1.252
 7159TIP3   OH245671   1.448   4.732   0.508
 7159TIP3    H145672   1.379   4.737   0.574
 7159TIP3    H245673   1.518   4.682   0.550
 7160TIP3   OH245674   1.389   4.526   1.464
 7160TIP3    H145675   1.381   4.597   1.527
 7160TIP3    H245676   1.326   4.547   1.395
 7161TIP3   OH245677   0.581   4.748   0.681
 7161TIP3    H145678   0.633   4.821   0.647
 7161TIP3    H245679   0.645   4.689   0.719
 7162TIP3   OH245680   0.786   5.118   0.973
 7162TIP3    H145681   0.784   5.131   0.878
 7162TIP3    H245682   0.867   5.070   0.988
 7163TIP3   OH245683   0.675   4.727   1.023
 7163TIP3    H145684   0.746   4.716   0.959
 7163TIP3    H245685   0.709   4.792   1.085
 7164TIP3   OH245686   1.231   5.267   1.194
 7164TIP3    H145687   1.216   5.331   1.263
 7164TIP3    H245688   1.197   5.185   1.229
 7165TIP3   OH245689   0.700   5.098   1.580
 7165TIP3    H145690   0.627   5.149   1.616
 7165TIP3    H245691   0.670   5.071   1.494
 7166TIP3   OH245692   1.301   4.682   0.276
 7166TIP3    H145693   1.360   4.705   0.348
 7166TIP3    H245694   1.348   4.710   0.198
 7167TIP3   OH245695   0.433   4.671   1.456
 7167TIP3    H145696   0.446   4.751   1.508
 7167TIP3    H245697   0.348   4.637   1.487
 7168TIP3   OH245698   1.040   5.301   0.571
 7168TIP3    H145699   1.116   5.318   0.626
 7168TIP3    H245700   1.007   5.388   0.549
 7169TIP3   OH245701   0.480   5.262   1.627
 7169TIP3    H145702   0.513   5.314   1.554
 7169TIP3    H245703   0.385   5.269   1.621
 7170TIP3   OH245704   1.667   3.853   0.292
 7170TIP3    H145705   1.592   3.897   0.332
 7170TIP3    H245706   1.728   3.924   0.270
 7171TIP3   OH245707   0.336   4.624   0.494
 7171TIP3    H145708   0.299   4.705   0.459
 7171TIP3    H245709   0.410   4.604   0.437
 7172TIP3   OH245710   1.731   5.266   0.166
 7172TIP3    H145711   1.732   5.360   0.149
 7172TIP3    H245712   1.823   5.242   0.173
 7173TIP3   OH245713   0.220   4.891   1.349
 7173TIP3    H145714   0.125   4.897   1.353
 7173TIP3    H245715   0.242   4.814   1.401
 7174TIP3   OH245716   0.219   5.227   1.033
 7174TIP3    H145717   0.271   5.147   1.039
 7174TIP3    H245718   0.249   5.281   1.106
 7175TIP3   OH245719   1.900   5.326   1.623
 7175TIP3    H145720   1.899   5.232   1.608
 7175TIP3    H245721   1.819   5.344   1.671
 7176TIP3   OH245722   0.942   5.229   1.567
 7176TIP3    H145723   0.931   5.314   1.610
 7176TIP3    H245724   0.857   5.186   1.576
 7177TIP3   OH245725   1.009   5.549   0.452
 7177TIP3    H145726   0.991   5.563   0.359
 7177TIP3    H245727   0.985   5.632   0.494
 7178TIP3   OH245728   0.453   5.435   0.698
 7178TIP3    H145729   0.490   5.421   0.785
 7178TIP3    H245730   0.362   5.405   0.704
 7179TIP3   OH245731   1.269   5.598   0.214
 7179TIP3    H145732   1.311   5.527   0.166
 7179TIP3    H245733   1.291   5.581   0.305
 7180TIP3   OH245734   1.283   5.533   0.485
 7180TIP3    H145735   1.187   5.533   0.478
 7180TIP3    H245736   1.301   5.469   0.554
 7181TIP3   OH245737   1.627   4.397   1.590
 7181TIP3    H145738   1.552   4.446   1.556
 7181TIP3    H245739   1.619   4.310   1.550
 7182TIP3   OH245740   0.310   5.150   1.376
 7182TIP3    H145741   0.262   5.177   1.454
 7182TIP3    H245742   0.280   5.061   1.359
 7183TIP3   OH245743   0.586   3.907   1.088
 7183TIP3    H145744   0.517   3.901   1.021
 7183TIP3    H245745   0.566   3.987   1.136
 7184TIP3   OH245746   1.040   3.921   1.454
 7184TIP3    H145747   1.083   3.875   1.526
 7184TIP3    H245748   0.946   3.913   1.473
 7185TIP3   OH245749   1.341   4.251   1.500
 7185TIP3    H145750   1.294   4.240   1.582
 7185TIP3    H245751   1.349   4.346   1.490
 7186TIP3   OH245752   1.426   4.726   0.045
 7186TIP3    H145753   1.405   4.740  -0.048
 7186TIP3    H245754   1.521   4.737   0.049
 7187TIP3   OH245755   0.885   4.220   0.220
 7187TIP3    H145756   0.859   4.163   0.293
 7187TIP3    H245757   0.820   4.203   0.152
 7188TIP3   OH245758   0.642   4.474   1.134
 7188TIP3    H145759   0.641   4.491   1.229
 7188TIP3    H245760   0.642   4.562   1.095
 7189TIP3   OH245761   0.633   4.395   0.612
 7189TIP3    H145762   0.550   4.364   0.577
 7189TIP3    H245763   0.686   4.415   0.535
 7190TIP3   OH245764   1.157   4.462   0.525
 7190TIP3    H145765   1.127   4.550   0.502
 7190TIP3    H245766   1.216   4.437   0.454
 7191TIP3   OH245767   1.019   4.478   1.631
 7191TIP3    H145768   0.981   4.400   1.673
 7191TIP3    H245769   1.103   4.489   1.675
 7192TIP3   OH245770   1.229   4.409   0.785
 7192TIP3    H145771   1.201   4.455   0.706
 7192TIP3    H245772   1.277   4.333   0.752
 7193TIP3   OH245773   0.184   4.449   1.250
 7193TIP3    H145774   0.162   4.495   1.331
 7193TIP3    H245775   0.208   4.361   1.279
 7194TIP3   OH245776   0.639   4.160   0.100
 7194TIP3    H145777   0.593   4.138   0.181
 7194TIP3    H245778   0.610   4.249   0.080
 7195TIP3   OH245779   0.238   4.216   0.724
 7195TIP3    H145780   0.215   4.176   0.808
 7195TIP3    H245781   0.184   4.169   0.660
 7196TIP3   OH245782   0.026   4.279   0.206
 7196TIP3    H145783   0.046   4.319   0.122
 7196TIP3    H245784   0.074   4.332   0.270
 7197TIP3   OH245785   1.204   4.559   1.260
 7197TIP3    H145786   1.232   4.500   1.190
 7197TIP3    H245787   1.126   4.518   1.297
 7198TIP3   OH245788   0.925   4.128   0.798
 7198TIP3    H145789   0.834   4.145   0.824
 7198TIP3    H245790   0.962   4.078   0.871
 7199TIP3   OH245791   0.404   4.285   0.508
 7199TIP3    H145792   0.329   4.324   0.463
 7199TIP3    H245793   0.366   4.244   0.586
 7200TIP3   OH245794   0.799   4.427   0.392
 7200TIP3    H145795   0.860   4.395   0.459
 7200TIP3    H245796   0.821   4.378   0.313
 7201TIP3   OH245797   1.212   4.115   1.083
 7201TIP3    H145798   1.180   4.123   1.173
 7201TIP3    H245799   1.151   4.054   1.042
 7202TIP3   OH245800   0.547   4.419   0.062
 7202TIP3    H145801   0.464   4.448   0.102
 7202TIP3    H245802   0.586   4.500   0.029
 7203TIP3   OH245803   1.598   5.661   1.708
 7203TIP3    H145804   1.626   5.688   1.620
 7203TIP3    H245805   1.671   5.686   1.765
 7204TIP3   OH245806   0.437   4.900   1.604
 7204TIP3    H145807   0.456   4.892   1.697
 7204TIP3    H245808   0.385   4.980   1.596
 7205TIP3   OH245809   0.992   4.493   0.922
 7205TIP3    H145810   1.069   4.453   0.879
 7205TIP3    H245811   0.964   4.428   0.986
 7206TIP3   OH245812   0.514   4.015   0.635
 7206TIP3    H145813   0.456   3.942   0.653
 7206TIP3    H245814   0.519   4.020   0.539
 7207TIP3   OH245815   0.878   4.334   1.126
 7207TIP3    H145816   0.796   4.383   1.124
 7207TIP3    H245817   0.922   4.364   1.206
 7208TIP3   OH245818   0.881   4.890   0.362
 7208TIP3    H145819   0.831   4.815   0.327
 7208TIP3    H245820   0.845   4.904   0.449
 7209TIP3   OH245821   1.587   4.877   1.186
 7209TIP3    H145822   1.650   4.930   1.136
 7209TIP3    H245823   1.517   4.858   1.123
 7210TIP3   OH245824   1.158   4.185   0.252
 7210TIP3    H145825   1.067   4.209   0.237
 7210TIP3    H245826   1.204   4.269   0.260
 7211TIP3   OH245827   1.007   4.949   1.534
 7211TIP3    H145828   1.051   4.909   1.609
 7211TIP3    H245829   0.984   5.037   1.563
 7212TIP3   OH245830   1.314   4.408   0.297
 7212TIP3    H145831   1.397   4.379   0.259
 7212TIP3    H245832   1.313   4.503   0.282
 7213TIP3   OH245833   0.415   4.735   0.944
 7213TIP3    H145834   0.510   4.744   0.950
 7213TIP3    H245835   0.390   4.692   1.026
 7214TIP3   OH245836   1.091   5.015   0.224
 7214TIP3    H145837   1.069   5.105   0.247
 7214TIP3    H245838   1.029   4.961   0.274
 7215TIP3   OH245839   0.156   4.613   1.478
 7215TIP3    H145840   0.164   4.591   1.571
 7215TIP3    H245841   0.062   4.627   1.465
 7216TIP3   OH245842   0.840   4.685   1.687
 7216TIP3    H145843   0.814   4.716   1.601
 7216TIP3    H245844   0.904   4.616   1.670
 7217TIP3   OH245845   1.224   5.219   1.578
 7217TIP3    H145846   1.131   5.224   1.557
 7217TIP3    H245847   1.227   5.222   1.674
 7218TIP3   OH245848   1.752   4.416   0.343
 7218TIP3    H145849   1.682   4.388   0.284
 7218TIP3    H245850   1.761   4.510   0.326
 7219TIP3   OH245851   1.893   5.057   1.564
 7219TIP3    H145852   1.802   5.038   1.541
 7219TIP3    H245853   1.945   5.009   1.500
 7220TIP3   OH245854   1.618   5.255   0.418
 7220TIP3    H145855   1.582   5.167   0.432
 7220TIP3    H245856   1.649   5.253   0.327
 7221TIP3   OH245857   1.390   4.804   1.000
 7221TIP3    H145858   1.298   4.787   1.018
 7221TIP3    H245859   1.420   4.726   0.953
 7222TIP3   OH245860   0.705   5.181   0.709
 7222TIP3    H145861   0.727   5.257   0.655
 7222TIP3    H245862   0.614   5.195   0.734
 7223TIP3   OH245863   0.105   4.667   0.243
 7223TIP3    H145864   0.137   4.737   0.300
 7223TIP3    H245865   0.010   4.668   0.253
 7224TIP3   OH245866   0.799   4.939   0.620
 7224TIP3    H145867   0.759   5.021   0.647
 7224TIP3    H245868   0.893   4.952   0.636
 7225TIP3   OH245869   0.872   5.375   1.334
 7225TIP3    H145870   0.924   5.454   1.319
 7225TIP3    H245871   0.918   5.328   1.404
 7226TIP3   OH245872   0.697   5.427   0.569
 7226TIP3    H145873   0.608   5.439   0.601
 7226TIP3    H245874   0.750   5.486   0.622
 7227TIP3   OH245875   1.151   5.024   1.308
 7227TIP3    H145876   1.090   4.997   1.376
 7227TIP3    H245877   1.237   5.000   1.343
 7228TIP3   OH245878   1.371   5.086   0.202
 7228TIP3    H145879   1.403   5.057   0.287
 7228TIP3    H245880   1.280   5.055   0.199
 7229TIP3   OH245881   1.448   5.352   1.481
 7229TIP3    H145882   1.364   5.317   1.510
 7229TIP3    H245883   1.425   5.431   1.431
 7230TIP3   OH245884   1.759   5.539   0.141
 7230TIP3    H145885   1.843   5.584   0.147
 7230TIP3    H245886   1.703   5.584   0.205
 7231TIP3   OH245887   0.258   4.202   1.357
 7231TIP3    H145888   0.234   4.224   1.447
 7231TIP3    H245889   0.207   4.124   1.336
 7232TIP3   OH245890   1.538   4.982   0.437
 7232TIP3    H145891   1.498   4.897   0.454
 7232TIP3    H245892   1.632   4.967   0.445
 7233TIP3   OH245893   0.285   5.400   1.247
 7233TIP3    H145894   0.301   5.325   1.303
 7233TIP3    H245895   0.278   5.474   1.308
 7234TIP3   OH245896   0.669   5.095   0.315
 7234TIP3    H145897   0.753   5.049   0.320
 7234TIP3    H245898   0.693   5.187   0.311
 7235TIP3   OH245899   0.244   4.859   0.391
 7235TIP3    H145900   0.183   4.931   0.403
 7235TIP3    H245901   0.316   4.897   0.340
 7236TIP3   OH245902   1.134   4.153   1.345
 7236TIP3    H145903   1.211   4.175   1.398
 7236TIP3    H245904   1.099   4.074   1.386
 7237TIP3   OH245905   1.218   4.068   0.499
 7237TIP3    H145906   1.201   4.111   0.415
 7237TIP3    H245907   1.265   4.133   0.551
 7238TIP3   OH245908   1.004   5.260   0.297
 7238TIP3    H145909   0.915   5.295   0.294
 7238TIP3    H245910   1.031   5.271   0.388
 7239TIP3   OH245911   0.946   4.297   0.582
 7239TIP3    H145912   1.028   4.347   0.575
 7239TIP3    H245913   0.954   4.251   0.666
 7240TIP3   OH245914   1.005   4.400   1.362
 7240TIP3    H145915   0.997   4.428   1.453
 7240TIP3    H245916   1.042   4.312   1.367
 7241TIP3   OH245917   0.992   3.944   0.600
 7241TIP3    H145918   0.973   4.004   0.672
 7241TIP3    H245919   1.076   3.973   0.565
 7242TIP3   OH245920   0.750   5.361   0.308
 7242TIP3    H145921   0.732   5.439   0.256
 7242TIP3    H245922   0.731   5.388   0.398
 7243TIP3   OH245923   0.546   4.098   0.357
 7243TIP3    H145924   0.501   4.170   0.402
 7243TIP3    H245925   0.635   4.101   0.393
 7244TIP3   OH245926   1.593   4.146   1.454
 7244TIP3    H145927   1.500   4.167   1.465
 7244TIP3    H245928   1.595   4.087   1.378
 7245TIP3   OH245929   1.451   4.561   0.878
 7245TIP3    H145930   1.368   4.526   0.846
 7245TIP3    H245931   1.487   4.490   0.933
 7246TIP3   OH245932   0.446   4.961   0.226
 7246TIP3    H145933   0.510   5.019   0.269
 7246TIP3    H245934   0.498   4.914   0.161
 7247TIP3   OH245935   0.295   4.494   0.145
 7247TIP3    H145936   0.238   4.557   0.190
 7247TIP3    H245937   0.240   4.455   0.078
 7248TIP3   OH245938   1.584   5.496   1.044
 7248TIP3    H145939   1.572   5.567   0.982
 7248TIP3    H245940   1.677   5.498   1.066
 7249TIP3   OH245941   0.360   3.893   0.931
 7249TIP3    H145942   0.358   3.872   0.838
 7249TIP3    H245943   0.326   3.815   0.975
 7250TIP3   OH245944   0.020   5.332   0.365
 7250TIP3    H145945  -0.029   5.374   0.436
 7250TIP3    H245946   0.092   5.392   0.348
 7251TIP3   OH245947   0.118   5.525   1.766
 7251TIP3    H145948   0.178   5.511   1.839
 7251TIP3    H245949   0.109   5.439   1.725
 7252TIP3   OH245950   0.535   5.327   1.894
 7252TIP3    H145951   0.617   5.285   1.921
 7252TIP3    H245952   0.523   5.299   1.803
 7253TIP3   OH245953   1.097   5.357   0.052
 7253TIP3    H145954   1.067   5.312   0.131
 7253TIP3    H245955   1.192   5.362   0.062
 7254TIP3   OH245956   1.224   5.229   1.852
 7254TIP3    H145957   1.224   5.150   1.906
 7254TIP3    H245958   1.305   5.275   1.875
 7255TIP3   OH245959   1.370   5.365   0.092
 7255TIP3    H145960   1.392   5.278   0.125
 7255TIP3    H245961   1.443   5.388   0.034
 7256TIP3   OH245962   0.215   5.020   1.786
 7256TIP3    H145963   0.291   4.978   1.826
 7256TIP3    H245964   0.158   4.948   1.760
 7257TIP3   OH245965   0.659   4.849   0.079
 7257TIP3    H145966   0.686   4.792   0.152
 7257TIP3    H245967   0.738   4.899   0.058
 7258TIP3   OH245968   0.734   4.930   1.801
 7258TIP3    H145969   0.727   4.978   1.718
 7258TIP3    H245970   0.774   4.846   1.777
 7259TIP3   OH245971   1.369   4.998   1.487
 7259TIP3    H145972   1.460   5.023   1.478
 7259TIP3    H245973   1.326   5.075   1.524
 7260TIP3   OH245974   0.203   4.533   1.740
 7260TIP3    H145975   0.282   4.548   1.792
 7260TIP3    H245976   0.131   4.563   1.795
 7261TIP3   OH245977   0.755   4.666   0.264
 7261TIP3    H145978   0.758   4.595   0.327
 7261TIP3    H245979   0.781   4.627   0.181
 7262TIP3   OH245980   0.667   4.537   1.403
 7262TIP3    H145981   0.585   4.577   1.430
 7262TIP3    H245982   0.732   4.607   1.412
 7263TIP3   OH245983   0.844   4.556   0.034
 7263TIP3    H145984   0.847   4.497  -0.042
 7263TIP3    H245985   0.935   4.580   0.048
 7264TIP3   OH245986   1.143   4.836   1.751
 7264TIP3    H145987   1.225   4.797   1.721
 7264TIP3    H245988   1.107   4.772   1.812
 7265TIP3   OH245989   1.690   4.798   0.062
 7265TIP3    H145990   1.766   4.794   0.005
 7265TIP3    H245991   1.661   4.890   0.058
 7266TIP3   OH245992   0.705   4.292   1.537
 7266TIP3    H145993   0.724   4.234   1.463
 7266TIP3    H245994   0.694   4.378   1.497
 7267TIP3   OH245995   0.753   4.141   1.304
 7267TIP3    H145996   0.805   4.185   1.237
 7267TIP3    H245997   0.663   4.144   1.271
 7268TIP3   OH245998   0.821   4.770   1.426
 7268TIP3    H145999   0.891   4.828   1.457
 7268TIP3    H246000   0.787   4.815   1.349
 7269TIP3   OH246001   1.252   4.488   1.786
 7269TIP3    H146002   1.253   4.392   1.782
 7269TIP3    H246003   1.336   4.511   1.825
 7270TIP3   OH246004   1.403   4.760   1.624
 7270TIP3    H146005   1.375   4.839   1.577
 7270TIP3    H246006   1.498   4.755   1.607
 7271TIP3   OH246007   0.509   4.277   1.753
 7271TIP3    H146008   0.444   4.210   1.732
 7271TIP3    H246009   0.562   4.286   1.674
 7272TIP3   OH246010   0.764   3.894   1.430
 7272TIP3    H146011   0.758   3.980   1.390
 7272TIP3    H246012   0.690   3.845   1.393
 7273TIP3   OH246013   0.905   4.247   1.729
 7273TIP3    H146014   0.860   4.223   1.810
 7273TIP3    H246015   0.835   4.254   1.664
 7274TIP3   OH246016   1.191   4.225   1.726
 7274TIP3    H146017   1.097   4.212   1.739
 7274TIP3    H246018   1.232   4.159   1.782
 7275TIP3   OH246019   1.340   4.055   1.880
 7275TIP3    H146020   1.329   3.960   1.887
 7275TIP3    H246021   1.313   4.089   1.966
 7276TIP3   OH246022   0.313   4.082   1.744
 7276TIP3    H146023   0.300   3.998   1.700
 7276TIP3    H246024   0.327   4.058   1.836
 7277TIP3   OH246025   0.755   3.785   1.681
 7277TIP3    H146026   0.819   3.715   1.671
 7277TIP3    H246027   0.752   3.828   1.595
 7278TIP3   OH246028   0.831   3.925   1.906
 7278TIP3    H146029   0.805   3.877   1.828
 7278TIP3    H246030   0.781   4.006   1.902
 7279TIP3   OH246031   0.719   5.579   0.133
 7279TIP3    H146032   0.812   5.599   0.146
 7279TIP3    H246033   0.686   5.651   0.080
 7280TIP3   OH246034   0.197   5.035   0.132
 7280TIP3    H146035   0.287   5.019   0.158
 7280TIP3    H246036   0.172   4.957   0.082
 7281TIP3   OH246037   0.112   5.559   0.599
 7281TIP3    H146038   0.025   5.592   0.624
 7281TIP3    H246039   0.132   5.492   0.665
 7282TIP3   OH246040   0.199   5.392   0.801
 7282TIP3    H146041   0.182   5.311   0.849
 7282TIP3    H246042   0.219   5.457   0.868
 7283TIP3   OH246043   1.846   5.516   1.134
 7283TIP3    H146044   1.835   5.495   1.226
 7283TIP3    H246045   1.898   5.596   1.133
 7284TIP3   OH246046   1.799   5.442   1.392
 7284TIP3    H146047   1.744   5.370   1.361
 7284TIP3    H246048   1.844   5.406   1.468
 7285TIP3   OH246049   1.691   5.041   1.842
 7285TIP3    H146050   1.616   5.053   1.900
 7285TIP3    H246051   1.749   5.114   1.862
 7286TIP3   OH246052   1.803   4.898   0.466
 7286TIP3    H146053   1.875   4.960   0.457
 7286TIP3    H246054   1.830   4.839   0.537
 7287TIP3   OH246055   1.876   4.701   0.647
 7287TIP3    H146056   1.791   4.663   0.669
 7287TIP3    H246057   1.920   4.712   0.732
 7288TIP3   OH246058   1.808   5.009   1.096
 7288TIP3    H146059   1.885   4.952   1.105
 7288TIP3    H246060   1.845   5.096   1.080
 7289TIP3   OH246061   1.631   5.245   1.309
 7289TIP3    H146062   1.559   5.281   1.361
 7289TIP3    H246063   1.593   5.232   1.222
 7290TIP3   OH246064   1.785   4.683   0.292
 7290TIP3    H146065   1.740   4.719   0.215
 7290TIP3    H246066   1.782   4.755   0.356
 7291TIP3   OH246067   1.552   4.330   0.166
 7291TIP3    H146068   1.578   4.366   0.081
 7291TIP3    H246069   1.544   4.236   0.152
 7292TIP3   OH246070   1.625   4.579   0.666
 7292TIP3    H146071   1.629   4.486   0.644
 7292TIP3    H246072   1.571   4.584   0.745
 7293TIP3   OH246073   0.242   4.923   1.072
 7293TIP3    H146074   0.290   4.853   1.028
 7293TIP3    H246075   0.248   4.902   1.165
 7294TIP3   OH246076   1.673   4.759   1.558
 7294TIP3    H146077   1.712   4.708   1.488
 7294TIP3    H246078   1.671   4.849   1.524
 7295TIP3   OH246079   1.894   4.433   1.519
 7295TIP3    H146080   1.806   4.429   1.556
 7295TIP3    H246081   1.943   4.367   1.567
 7296TIP3   OH246082   1.565   4.065   0.077
 7296TIP3    H146083   1.659   4.049   0.081
 7296TIP3    H246084   1.525   3.980   0.095
 7297TIP3   OH246085   1.633   4.314   0.573
 7297TIP3    H146086   1.664   4.224   0.575
 7297TIP3    H246087   1.672   4.352   0.494
 7298TIP3   OH246088   1.580   4.356   1.017
 7298TIP3    H146089   1.673   4.368   0.995
 7298TIP3    H246090   1.572   4.388   1.107
 7299TIP3   OH246091   1.590   4.464   1.272
 7299TIP3    H146092   1.515   4.480   1.330
 7299TIP3    H246093   1.643   4.544   1.280
 7300TIP3   OH246094   0.177   4.282   1.613
 7300TIP3    H146095   0.191   4.365   1.659
 7300TIP3    H246096   0.217   4.216   1.669
 7301TIP3   OH246097   1.864   3.881   1.822
 7301TIP3    H146098   1.929   3.813   1.805
 7301TIP3    H246099   1.869   3.938   1.745
 7302TIP3   OH246100   1.686   4.044   0.551
 7302TIP3    H146101   1.707   4.001   0.634
 7302TIP3    H246102   1.604   4.004   0.523
 7303TIP3   OH246103   0.242   4.130   0.995
 7303TIP3    H146104   0.286   4.047   0.977
 7303TIP3    H246105   0.314   4.193   1.005
 7304TIP3   OH246106   0.115   4.535   0.994
 7304TIP3    H146107   0.187   4.498   0.944
 7304TIP3    H246108   0.131   4.506   1.084
 7305TIP3   OH246109   1.784   4.090   1.649
 7305TIP3    H146110   1.727   4.102   1.724
 7305TIP3    H246111   1.727   4.099   1.573
 7306TIP3   OH246112   1.834   4.032   0.107
 7306TIP3    H146113   1.903   4.004   0.047
 7306TIP3    H246114   1.875   4.098   0.163
 7307TIP3   OH246115   0.111   4.126   0.494
 7307TIP3    H146116   0.015   4.119   0.496
 7307TIP3    H246117   0.128   4.213   0.457
 7308TIP3   OH246118   1.497   5.504   0.717
 7308TIP3    H146119   1.570   5.495   0.656
 7308TIP3    H246120   1.521   5.578   0.773
 7309TIP3   OH246121   0.127   3.983   1.238
 7309TIP3    H146122   0.036   3.955   1.236
 7309TIP3    H246123   0.141   4.028   1.155
 7310TIP3   OH246124   0.183   5.227   1.610
 7310TIP3    H146125   0.089   5.230   1.594
 7310TIP3    H246126   0.194   5.162   1.679
 7311TIP3   OH246127   0.607   5.385   1.409
 7311TIP3    H146128   0.578   5.473   1.384
 7311TIP3    H246129   0.701   5.385   1.394
 7312TIP3   OH246130   0.917   5.486   1.667
 7312TIP3    H146131   0.937   5.454   1.755
 7312TIP3    H246132   0.986   5.550   1.649
 7313TIP3   OH246133   1.136   5.647   1.596
 7313TIP3    H146134   1.180   5.588   1.535
 7313TIP3    H246135   1.202   5.665   1.663
 7314TIP3   OH246136   1.709   3.807   1.476
 7314TIP3    H146137   1.676   3.844   1.394
 7314TIP3    H246138   1.729   3.716   1.455
 7315TIP3   OH246139   0.280   5.651   1.388
 7315TIP3    H146140   0.222   5.712   1.344
 7315TIP3    H246141   0.276   5.676   1.480
 7316TIP3   OH246142   0.549   5.642   1.327
 7316TIP3    H146143   0.456   5.649   1.347
 7316TIP3    H246144   0.557   5.674   1.237
 7317TIP3   OH246145   0.997   5.607   1.242
 7317TIP3    H146146   0.946   5.623   1.162
 7317TIP3    H246147   1.000   5.692   1.286
 7318TIP3   OH246148   1.212   5.493   1.364
 7318TIP3    H146149   1.139   5.533   1.317
 7318TIP3    H246150   1.290   5.532   1.324
 7319TIP3   OH246151   1.458   5.568   1.278
 7319TIP3    H146152   1.499   5.654   1.282
 7319TIP3    H246153   1.491   5.529   1.197
 7320TIP3   OH246154   0.318   5.533   1.008
 7320TIP3    H146155   0.289   5.504   1.094
 7320TIP3    H246156   0.395   5.480   0.989
 7321TIP3   OH246157   0.525   5.364   0.951
 7321TIP3    H146158   0.503   5.272   0.968
 7321TIP3    H246159   0.606   5.378   0.999
 7322TIP3   OH246160   0.765   5.372   1.082
 7322TIP3    H146161   0.782   5.285   1.046
 7322TIP3    H246162   0.799   5.369   1.171
 7323TIP3   OH246163   1.039   3.936   0.961
 7323TIP3    H146164   0.969   3.874   0.983
 7323TIP3    H246165   1.106   3.881   0.920
 7324TIP3   OH246166   1.574   3.889   0.966
 7324TIP3    H146167   1.650   3.906   0.911
 7324TIP3    H246168   1.517   3.965   0.953
 7325TIP3   OH246169   1.771   3.932   0.788
 7325TIP3    H146170   1.838   3.870   0.760
 7325TIP3    H246171   1.819   4.012   0.808
 7326TIP3   OH246172   0.350   3.798   0.673
 7326TIP3    H146173   0.262   3.774   0.643
 7326TIP3    H246174   0.396   3.714   0.679
 7327TIP3   OH246175   0.117   3.922   0.302
 7327TIP3    H146176   0.198   3.934   0.253
 7327TIP3    H246177   0.123   3.984   0.375
 7328TIP3   OH246178   0.821   3.752   0.731
 7328TIP3    H146179   0.885   3.812   0.694
 7328TIP3    H246180   0.830   3.762   0.825
 7329TIP3   OH246181   1.229   3.773   0.849
 7329TIP3    H146182   1.309   3.774   0.796
 7329TIP3    H246183   1.223   3.684   0.883
 7330TIP3   OH246184   1.455   3.928   0.454
 7330TIP3    H146185   1.377   3.982   0.467
 7330TIP3    H246186   1.422   3.838   0.457
 7331TIP3   OH246187   0.204   5.542   0.339
 7331TIP3    H146188   0.183   5.554   0.432
 7331TIP3    H246189   0.160   5.614   0.295
 7332TIP3   OH246190   0.370   3.939   0.208
 7332TIP3    H146191   0.410   3.855   0.186
 7332TIP3    H246192   0.438   3.986   0.255
 7333TIP3   OH246193   0.803   4.099   0.455
 7333TIP3    H146194   0.846   4.021   0.492
 7333TIP3    H246195   0.842   4.172   0.502
 7334TIP3   OH246196   0.995   5.590   0.171
 7334TIP3    H146197   1.082   5.629   0.183
 7334TIP3    H246198   1.011   5.514   0.115
 7335TIP3   OH246199   1.702   5.491   0.527
 7335TIP3    H146200   1.675   5.405   0.495
 7335TIP3    H246201   1.679   5.551   0.456
 7336TIP3   OH246202   0.284   3.825   1.639
 7336TIP3    H146203   0.209   3.775   1.670
 7336TIP3    H246204   0.356   3.799   1.696
 7337TIP3   OH246205   0.508   3.776   1.801
 7337TIP3    H146206   0.593   3.783   1.758
 7337TIP3    H246207   0.509   3.691   1.844
 7338TIP3   OH246208   0.418   5.579   0.160
 7338TIP3    H146209   0.357   5.551   0.228
 7338TIP3    H246210   0.505   5.555   0.194
 7339TIP3   OH246211   1.356   3.780   1.851
 7339TIP3    H146212   1.356   3.736   1.936
 7339TIP3    H246213   1.447   3.779   1.824
 7340TIP3   OH246214   1.634   5.388   1.687
 7340TIP3    H146215   1.574   5.363   1.616
 7340TIP3    H246216   1.618   5.481   1.700
 7341TIP3   OH246217   3.153   4.764   0.683
 7341TIP3    H146218   3.125   4.824   0.753
 7341TIP3    H246219   3.079   4.761   0.623
 7342TIP3   OH246220   3.016   4.713   1.058
 7342TIP3    H146221   3.044   4.668   1.137
 7342TIP3    H246222   2.957   4.650   1.015
 7343TIP3   OH246223   2.212   4.635   1.191
 7343TIP3    H146224   2.234   4.562   1.249
 7343TIP3    H246225   2.296   4.662   1.154
 7344TIP3   OH246226   3.339   5.037   0.877
 7344TIP3    H146227   3.325   4.956   0.926
 7344TIP3    H246228   3.356   5.103   0.944
 7345TIP3   OH246229   2.412   5.099   0.888
 7345TIP3    H146230   2.359   5.020   0.890
 7345TIP3    H246231   2.495   5.075   0.930
 7346TIP3   OH246232   1.988   4.482   0.511
 7346TIP3    H146233   1.960   4.563   0.554
 7346TIP3    H246234   1.912   4.453   0.460
 7347TIP3   OH246235   2.037   4.716   0.880
 7347TIP3    H146236   2.068   4.626   0.889
 7347TIP3    H246237   2.116   4.769   0.875
 7348TIP3   OH246238   3.089   5.431   0.975
 7348TIP3    H146239   3.111   5.380   0.898
 7348TIP3    H246240   3.086   5.367   1.047
 7349TIP3   OH246241   2.881   4.957   1.093
 7349TIP3    H146242   2.923   4.875   1.068
 7349TIP3    H246243   2.937   4.992   1.162
 7350TIP3   OH246244   3.763   4.066   1.171
 7350TIP3    H146245   3.753   4.138   1.232
 7350TIP3    H246246   3.823   4.099   1.103
 7351TIP3   OH246247   3.150   4.396   1.028
 7351TIP3    H146248   3.151   4.303   1.051
 7351TIP3    H246249   3.101   4.400   0.945
 7352TIP3   OH246250   2.470   4.187   0.792
 7352TIP3    H146251   2.487   4.269   0.746
 7352TIP3    H246252   2.409   4.139   0.735
 7353TIP3   OH246253   3.241   4.246   0.678
 7353TIP3    H146254   3.288   4.220   0.758
 7353TIP3    H246255   3.307   4.286   0.623
 7354TIP3   OH246256   2.118   4.450   0.900
 7354TIP3    H146257   2.184   4.406   0.954
 7354TIP3    H246258   2.140   4.424   0.811
 7355TIP3   OH246259   2.592   4.588   0.847
 7355TIP3    H146260   2.681   4.565   0.872
 7355TIP3    H246261   2.565   4.519   0.787
 7356TIP3   OH246262   3.712   4.252   1.371
 7356TIP3    H146263   3.660   4.329   1.352
 7356TIP3    H246264   3.780   4.282   1.431
 7357TIP3   OH246265   2.370   4.110   1.227
 7357TIP3    H146266   2.337   4.172   1.161
 7357TIP3    H246267   2.315   4.126   1.303
 7358TIP3   OH246268   3.020   5.022   0.525
 7358TIP3    H146269   3.110   5.039   0.554
 7358TIP3    H246270   2.976   5.106   0.537
 7359TIP3   OH246271   2.619   4.892   1.179
 7359TIP3    H146272   2.575   4.966   1.221
 7359TIP3    H246273   2.699   4.930   1.141
 7360TIP3   OH246274   3.377   4.194   0.918
 7360TIP3    H146275   3.311   4.181   0.986
 7360TIP3    H246276   3.444   4.248   0.959
 7361TIP3   OH246277   2.326   4.281   1.009
 7361TIP3    H146278   2.387   4.340   1.054
 7361TIP3    H246279   2.376   4.245   0.936
 7362TIP3   OH246280   2.490   5.091   1.325
 7362TIP3    H146281   2.502   5.186   1.321
 7362TIP3    H246282   2.397   5.079   1.343
 7363TIP3   OH246283   2.018   5.068   0.425
 7363TIP3    H146284   2.005   5.118   0.344
 7363TIP3    H246285   2.052   5.133   0.487
 7364TIP3   OH246286   3.359   5.244   1.068
 7364TIP3    H146287   3.273   5.254   1.107
 7364TIP3    H246288   3.386   5.333   1.045
 7365TIP3   OH246289   3.529   3.925   1.223
 7365TIP3    H146290   3.465   3.969   1.167
 7365TIP3    H246291   3.612   3.965   1.201
 7366TIP3   OH246292   2.700   3.762   1.014
 7366TIP3    H146293   2.676   3.670   1.012
 7366TIP3    H246294   2.618   3.808   1.032
 7367TIP3   OH246295   3.184   5.317   0.740
 7367TIP3    H146296   3.216   5.233   0.705
 7367TIP3    H246297   3.261   5.374   0.738
 7368TIP3   OH246298   3.274   5.083   0.620
 7368TIP3    H146299   3.345   5.058   0.561
 7368TIP3    H246300   3.303   5.057   0.707
 7369TIP3   OH246301   3.510   5.016   1.410
 7369TIP3    H146302   3.503   4.960   1.332
 7369TIP3    H246303   3.531   5.103   1.375
 7370TIP3   OH246304   2.985   4.756   0.460
 7370TIP3    H146305   2.973   4.850   0.474
 7370TIP3    H246306   3.034   4.750   0.379
 7371TIP3   OH246307   2.974   4.558   0.140
 7371TIP3    H146308   3.049   4.599   0.182
 7371TIP3    H246309   3.012   4.493   0.080
 7372TIP3   OH246310   3.666   4.689   1.284
 7372TIP3    H146311   3.598   4.753   1.261
 7372TIP3    H246312   3.734   4.701   1.217
 7373TIP3   OH246313   3.351   4.736   0.499
 7373TIP3    H146314   3.282   4.750   0.564
 7373TIP3    H246315   3.417   4.684   0.546
 7374TIP3   OH246316   3.299   4.517   1.481
 7374TIP3    H146317   3.293   4.593   1.539
 7374TIP3    H246318   3.239   4.537   1.409
 7375TIP3   OH246319   2.460   4.771   0.676
 7375TIP3    H146320   2.432   4.731   0.594
 7375TIP3    H246321   2.513   4.703   0.719
 7376TIP3   OH246322   2.692   5.110   0.953
 7376TIP3    H146323   2.706   5.118   0.859
 7376TIP3    H246324   2.767   5.061   0.985
 7377TIP3   OH246325   2.461   4.697   1.065
 7377TIP3    H146326   2.512   4.667   0.990
 7377TIP3    H246327   2.517   4.763   1.106
 7378TIP3   OH246328   3.115   5.266   1.200
 7378TIP3    H146329   3.095   5.332   1.267
 7378TIP3    H246330   3.085   5.184   1.239
 7379TIP3   OH246331   2.653   5.088   1.558
 7379TIP3    H146332   2.589   5.146   1.599
 7379TIP3    H246333   2.615   5.065   1.474
 7380TIP3   OH246334   3.197   4.679   0.272
 7380TIP3    H146335   3.254   4.702   0.345
 7380TIP3    H246336   3.233   4.726   0.197
 7381TIP3   OH246337   2.322   4.671   1.517
 7381TIP3    H146338   2.331   4.736   1.586
 7381TIP3    H246339   2.229   4.671   1.495
 7382TIP3   OH246340   2.963   5.298   0.573
 7382TIP3    H146341   3.029   5.295   0.642
 7382TIP3    H246342   2.953   5.391   0.553
 7383TIP3   OH246343   2.451   5.271   1.610
 7383TIP3    H146344   2.465   5.311   1.524
 7383TIP3    H246345   2.356   5.265   1.618
 7384TIP3   OH246346   3.529   3.847   0.323
 7384TIP3    H146347   3.449   3.878   0.364
 7384TIP3    H246348   3.556   3.919   0.265
 7385TIP3   OH246349   2.355   4.680   0.430
 7385TIP3    H146350   2.299   4.750   0.396
 7385TIP3    H246351   2.299   4.603   0.429
 7386TIP3   OH246352   3.680   5.263   0.176
 7386TIP3    H146353   3.681   5.358   0.163
 7386TIP3    H246354   3.771   5.240   0.191
 7387TIP3   OH246355   2.039   4.900   1.393
 7387TIP3    H146356   2.018   4.869   1.305
 7387TIP3    H246357   2.045   4.820   1.446
 7388TIP3   OH246358   1.933   5.259   1.069
 7388TIP3    H146359   2.010   5.268   1.125
 7388TIP3    H246360   1.885   5.341   1.082
 7389TIP3   OH246361   3.748   5.244   1.599
 7389TIP3    H146362   3.746   5.149   1.608
 7389TIP3    H246363   3.669   5.274   1.645
 7390TIP3   OH246364   2.852   5.291   1.524
 7390TIP3    H146365   2.828   5.366   1.579
 7390TIP3    H246366   2.787   5.224   1.544
 7391TIP3   OH246367   2.971   5.555   0.473
 7391TIP3    H146368   2.963   5.569   0.379
 7391TIP3    H246369   2.934   5.634   0.513
 7392TIP3   OH246370   2.300   5.458   0.670
 7392TIP3    H146371   2.328   5.430   0.757
 7392TIP3    H246372   2.243   5.388   0.640
 7393TIP3   OH246373   3.226   5.567   0.203
 7393TIP3    H146374   3.262   5.491   0.157
 7393TIP3    H246375   3.257   5.556   0.293
 7394TIP3   OH246376   3.250   5.545   0.478
 7394TIP3    H146377   3.156   5.532   0.492
 7394TIP3    H246378   3.291   5.511   0.558
 7395TIP3   OH246379   3.494   4.388   1.654
 7395TIP3    H146380   3.433   4.433   1.595
 7395TIP3    H246381   3.496   4.298   1.622
 7396TIP3   OH246382   2.217   5.117   1.397
 7396TIP3    H146383   2.205   5.150   1.486
 7396TIP3    H246384   2.161   5.040   1.392
 7397TIP3   OH246385   2.457   3.891   1.077
 7397TIP3    H146386   2.385   3.885   1.014
 7397TIP3    H246387   2.439   3.971   1.126
 7398TIP3   OH246388   2.933   3.919   1.441
 7398TIP3    H146389   2.974   3.864   1.509
 7398TIP3    H246390   2.839   3.910   1.457
 7399TIP3   OH246391   3.243   4.237   1.503
 7399TIP3    H146392   3.191   4.217   1.581
 7399TIP3    H246393   3.249   4.333   1.503
 7400TIP3   OH246394   3.311   4.818   0.062
 7400TIP3    H146395   3.280   4.815  -0.029
 7400TIP3    H246396   3.405   4.806   0.056
 7401TIP3   OH246397   2.754   4.211   0.174
 7401TIP3    H146398   2.742   4.152   0.248
 7401TIP3    H246399   2.683   4.190   0.114
 7402TIP3   OH246400   2.489   4.440   1.167
 7402TIP3    H146401   2.433   4.436   1.245
 7402TIP3    H246402   2.484   4.531   1.139
 7403TIP3   OH246403   2.470   4.425   0.655
 7403TIP3    H146404   2.375   4.421   0.655
 7403TIP3    H246405   2.494   4.413   0.563
 7404TIP3   OH246406   2.967   4.488   0.531
 7404TIP3    H146407   2.955   4.581   0.511
 7404TIP3    H246408   3.042   4.462   0.477
 7405TIP3   OH246409   2.926   4.445   1.643
 7405TIP3    H146410   2.880   4.369   1.679
 7405TIP3    H246411   3.005   4.452   1.696
 7406TIP3   OH246412   3.027   4.389   0.780
 7406TIP3    H146413   3.000   4.437   0.702
 7406TIP3    H246414   3.095   4.329   0.749
 7407TIP3   OH246415   2.302   4.432   1.365
 7407TIP3    H146416   2.312   4.492   1.439
 7407TIP3    H246417   2.278   4.349   1.405
 7408TIP3   OH246418   2.492   4.136   0.083
 7408TIP3    H146419   2.458   4.139   0.173
 7408TIP3    H246420   2.439   4.201   0.036
 7409TIP3   OH246421   1.897   4.159   0.852
 7409TIP3    H146422   1.975   4.142   0.906
 7409TIP3    H246423   1.866   4.245   0.881
 7410TIP3   OH246424   1.946   4.228   0.268
 7410TIP3    H146425   2.012   4.281   0.224
 7410TIP3    H246426   1.882   4.291   0.300
 7411TIP3   OH246427   3.120   4.539   1.263
 7411TIP3    H146428   3.141   4.488   1.184
 7411TIP3    H246429   3.041   4.497   1.298
 7412TIP3   OH246430   2.749   4.125   0.756
 7412TIP3    H146431   2.660   4.135   0.788
 7412TIP3    H246432   2.796   4.081   0.826
 7413TIP3   OH246433   2.199   4.365   0.648
 7413TIP3    H146434   2.127   4.395   0.593
 7413TIP3    H246435   2.207   4.272   0.628
 7414TIP3   OH246436   2.497   4.376   0.381
 7414TIP3    H146437   2.586   4.406   0.361
 7414TIP3    H246438   2.447   4.396   0.301
 7415TIP3   OH246439   3.169   4.126   1.087
 7415TIP3    H146440   3.120   4.128   1.170
 7415TIP3    H246441   3.150   4.039   1.051
 7416TIP3   OH246442   2.360   4.409   0.147
 7416TIP3    H146443   2.265   4.406   0.135
 7416TIP3    H246444   2.392   4.455   0.070
 7417TIP3   OH246445   3.521   5.626   1.714
 7417TIP3    H146446   3.547   5.654   1.626
 7417TIP3    H246447   3.595   5.650   1.770
 7418TIP3   OH246448   2.282   4.840   1.731
 7418TIP3    H146449   2.344   4.858   1.801
 7418TIP3    H246450   2.206   4.894   1.752
 7419TIP3   OH246451   2.842   4.506   0.949
 7419TIP3    H146452   2.900   4.459   0.889
 7419TIP3    H246453   2.815   4.440   1.013
 7420TIP3   OH246454   2.281   4.095   0.604
 7420TIP3    H146455   2.242   4.010   0.624
 7420TIP3    H246456   2.317   4.085   0.516
 7421TIP3   OH246457   2.746   4.343   1.154
 7421TIP3    H146458   2.660   4.384   1.164
 7421TIP3    H246459   2.796   4.373   1.229
 7422TIP3   OH246460   2.676   4.946   0.278
 7422TIP3    H146461   2.642   4.860   0.255
 7422TIP3    H246462   2.673   4.949   0.374
 7423TIP3   OH246463   3.498   4.877   1.175
 7423TIP3    H146464   3.560   4.928   1.123
 7423TIP3    H246465   3.427   4.856   1.114
 7424TIP3   OH246466   3.031   4.205   0.264
 7424TIP3    H146467   2.943   4.229   0.236
 7424TIP3    H246468   3.073   4.288   0.289
 7425TIP3   OH246469   2.896   4.915   1.527
 7425TIP3    H146470   2.946   4.880   1.601
 7425TIP3    H246471   2.838   4.980   1.566
 7426TIP3   OH246472   3.185   4.416   0.371
 7426TIP3    H146473   3.272   4.388   0.401
 7426TIP3    H246474   3.200   4.499   0.326
 7427TIP3   OH246475   2.294   4.838   0.885
 7427TIP3    H146476   2.344   4.820   0.805
 7427TIP3    H246477   2.340   4.789   0.953
 7428TIP3   OH246478   2.857   5.099   0.140
 7428TIP3    H146479   2.856   5.174   0.199
 7428TIP3    H246480   2.805   5.032   0.185
 7429TIP3   OH246481   2.044   4.662   1.532
 7429TIP3    H146482   2.066   4.646   1.624
 7429TIP3    H246483   1.986   4.589   1.509
 7430TIP3   OH246484   2.743   4.654   1.695
 7430TIP3    H146485   2.674   4.624   1.637
 7430TIP3    H246486   2.820   4.602   1.671
 7431TIP3   OH246487   3.123   5.228   1.552
 7431TIP3    H146488   3.031   5.247   1.532
 7431TIP3    H246489   3.127   5.229   1.648
 7432TIP3   OH246490   3.643   4.444   0.348
 7432TIP3    H146491   3.575   4.429   0.282
 7432TIP3    H246492   3.669   4.535   0.334
 7433TIP3   OH246493   3.725   4.954   1.565
 7433TIP3    H146494   3.642   4.977   1.522
 7433TIP3    H246495   3.788   4.951   1.493
 7434TIP3   OH246496   3.529   5.258   0.406
 7434TIP3    H146497   3.497   5.169   0.421
 7434TIP3    H246498   3.575   5.252   0.322
 7435TIP3   OH246499   3.287   4.797   1.006
 7435TIP3    H146500   3.195   4.779   1.024
 7435TIP3    H246501   3.321   4.715   0.970
 7436TIP3   OH246502   2.603   5.181   0.690
 7436TIP3    H146503   2.594   5.264   0.642
 7436TIP3    H246504   2.521   5.173   0.739
 7437TIP3   OH246505   2.036   4.688   0.172
 7437TIP3    H146506   2.093   4.746   0.223
 7437TIP3    H246507   1.955   4.682   0.223
 7438TIP3   OH246508   2.633   4.950   0.546
 7438TIP3    H146509   2.634   5.032   0.595
 7438TIP3    H246510   2.575   4.893   0.596
 7439TIP3   OH246511   2.777   5.397   1.279
 7439TIP3    H146512   2.823   5.480   1.265
 7439TIP3    H246513   2.821   5.358   1.355
 7440TIP3   OH246514   2.552   5.431   0.562
 7440TIP3    H146515   2.463   5.451   0.593
 7440TIP3    H246516   2.608   5.493   0.609
 7441TIP3   OH246517   3.044   5.016   1.315
 7441TIP3    H146518   2.984   4.986   1.383
 7441TIP3    H246519   3.131   4.989   1.346
 7442TIP3   OH246520   3.343   5.072   0.182
 7442TIP3    H146521   3.371   5.049   0.271
 7442TIP3    H246522   3.307   4.990   0.148
 7443TIP3   OH246523   3.343   5.367   1.462
 7443TIP3    H146524   3.260   5.328   1.486
 7443TIP3    H246525   3.320   5.447   1.415
 7444TIP3   OH246526   3.675   5.540   0.150
 7444TIP3    H146527   3.761   5.583   0.149
 7444TIP3    H246528   3.624   5.590   0.214
 7445TIP3   OH246529   2.241   4.180   1.467
 7445TIP3    H146530   2.155   4.196   1.507
 7445TIP3    H246531   2.288   4.130   1.533
 7446TIP3   OH246532   3.458   4.981   0.429
 7446TIP3    H146533   3.414   4.898   0.446
 7446TIP3    H246534   3.551   4.962   0.442
 7447TIP3   OH246535   2.142   5.340   1.239
 7447TIP3    H146536   2.177   5.265   1.286
 7447TIP3    H246537   2.150   5.413   1.300
 7448TIP3   OH246538   2.493   5.148   0.215
 7448TIP3    H146539   2.560   5.083   0.235
 7448TIP3    H246540   2.531   5.231   0.246
 7449TIP3   OH246541   2.183   4.870   0.318
 7449TIP3    H146542   2.129   4.926   0.375
 7449TIP3    H246543   2.218   4.930   0.252
 7450TIP3   OH246544   3.046   4.145   1.335
 7450TIP3    H146545   3.121   4.163   1.392
 7450TIP3    H246546   3.006   4.066   1.372
 7451TIP3   OH246547   3.089   4.078   0.509
 7451TIP3    H146548   3.070   4.124   0.427
 7451TIP3    H246549   3.128   4.145   0.565
 7452TIP3   OH246550   2.846   5.307   0.321
 7452TIP3    H146551   2.873   5.281   0.409
 7452TIP3    H246552   2.905   5.378   0.297
 7453TIP3   OH246553   2.778   4.285   0.529
 7453TIP3    H146554   2.837   4.360   0.532
 7453TIP3    H246555   2.779   4.249   0.618
 7454TIP3   OH246556   2.913   4.390   1.368
 7454TIP3    H146557   2.911   4.411   1.461
 7454TIP3    H246558   2.951   4.302   1.364
 7455TIP3   OH246559   2.862   3.937   0.582
 7455TIP3    H146560   2.826   4.000   0.644
 7455TIP3    H246561   2.948   3.973   0.558
 7456TIP3   OH246562   2.592   5.404   0.291
 7456TIP3    H146563   2.681   5.369   0.293
 7456TIP3    H246564   2.567   5.414   0.382
 7457TIP3   OH246565   2.423   4.107   0.357
 7457TIP3    H146566   2.431   4.201   0.374
 7457TIP3    H246567   2.511   4.072   0.374
 7458TIP3   OH246568   3.505   4.143   1.529
 7458TIP3    H146569   3.414   4.153   1.499
 7458TIP3    H246570   3.558   4.164   1.452
 7459TIP3   OH246571   3.373   4.539   0.932
 7459TIP3    H146572   3.292   4.494   0.960
 7459TIP3    H246573   3.443   4.489   0.974
 7460TIP3   OH246574   2.247   5.073   0.135
 7460TIP3    H146575   2.330   5.102   0.172
 7460TIP3    H246576   2.264   5.065   0.041
 7461TIP3   OH246577   2.082   4.422   0.116
 7461TIP3    H146578   2.076   4.514   0.144
 7461TIP3    H246579   2.024   4.416   0.040
 7462TIP3   OH246580   3.468   5.503   1.051
 7462TIP3    H146581   3.459   5.573   0.986
 7462TIP3    H246582   3.561   5.503   1.072
 7463TIP3   OH246583   2.219   3.880   0.935
 7463TIP3    H146584   2.212   3.874   0.840
 7463TIP3    H246585   2.191   3.794   0.966
 7464TIP3   OH246586   2.096   5.294   0.570
 7464TIP3    H146587   2.043   5.326   0.643
 7464TIP3    H246588   2.076   5.353   0.498
 7465TIP3   OH246589   2.049   5.562   1.671
 7465TIP3    H146590   2.092   5.532   1.751
 7465TIP3    H246591   1.992   5.490   1.646
 7466TIP3   OH246592   2.545   5.406   1.831
 7466TIP3    H146593   2.598   5.341   1.876
 7466TIP3    H246594   2.514   5.362   1.752
 7467TIP3   OH246595   3.019   5.317   0.036
 7467TIP3    H146596   2.984   5.229   0.050
 7467TIP3    H246597   3.114   5.307   0.049
 7468TIP3   OH246598   3.136   5.224   1.826
 7468TIP3    H146599   3.141   5.138   1.868
 7468TIP3    H246600   3.212   5.272   1.860
 7469TIP3   OH246601   3.297   5.329   0.075
 7469TIP3    H146602   3.321   5.245   0.115
 7469TIP3    H246603   3.371   5.351   0.019
 7470TIP3   OH246604   2.030   4.963   1.790
 7470TIP3    H146605   1.971   4.900   1.831
 7470TIP3    H246606   1.981   4.998   1.716
 7471TIP3   OH246607   2.509   4.790   9.972
 7471TIP3    H146608   2.518   4.769  10.065
 7471TIP3    H246609   2.586   4.844   9.953
 7472TIP3   OH246610   2.690   4.919   1.777
 7472TIP3    H146611   2.673   4.965   1.694
 7472TIP3    H246612   2.721   4.832   1.750
 7473TIP3   OH246613   3.258   4.978   1.513
 7473TIP3    H146614   3.347   5.000   1.484
 7473TIP3    H246615   3.218   5.063   1.533
 7474TIP3   OH246616   2.140   4.608   1.787
 7474TIP3    H146617   2.208   4.673   1.765
 7474TIP3    H246618   2.124   4.620   1.880
 7475TIP3   OH246619   2.555   4.701   0.231
 7475TIP3    H146620   2.494   4.689   0.304
 7475TIP3    H246621   2.612   4.624   0.235
 7476TIP3   OH246622   2.570   4.550   1.500
 7476TIP3    H146623   2.486   4.597   1.502
 7476TIP3    H246624   2.627   4.606   1.447
 7477TIP3   OH246625   2.724   4.479   0.240
 7477TIP3    H146626   2.735   4.388   0.214
 7477TIP3    H246627   2.808   4.521   0.218
 7478TIP3   OH246628   3.049   4.804   1.749
 7478TIP3    H146629   3.134   4.774   1.715
 7478TIP3    H246630   3.026   4.739   1.815
 7479TIP3   OH246631   3.586   4.823   0.040
 7479TIP3    H146632   3.660   4.792  -0.014
 7479TIP3    H246633   3.581   4.917   0.022
 7480TIP3   OH246634   2.582   4.283   1.567
 7480TIP3    H146635   2.596   4.236   1.485
 7480TIP3    H246636   2.581   4.375   1.541
 7481TIP3   OH246637   2.624   4.148   1.323
 7481TIP3    H146638   2.677   4.193   1.258
 7481TIP3    H246639   2.537   4.140   1.282
 7482TIP3   OH246640   2.727   4.736   1.383
 7482TIP3    H146641   2.793   4.791   1.425
 7482TIP3    H246642   2.696   4.789   1.309
 7483TIP3   OH246643   3.141   4.409   1.820
 7483TIP3    H146644   3.121   4.320   1.792
 7483TIP3    H246645   3.229   4.403   1.857
 7484TIP3   OH246646   3.322   4.744   1.655
 7484TIP3    H146647   3.302   4.826   1.608
 7484TIP3    H246648   3.417   4.741   1.657
 7485TIP3   OH246649   2.435   4.294   1.808
 7485TIP3    H146650   2.353   4.245   1.797
 7485TIP3    H246651   2.473   4.297   1.720
 7486TIP3   OH246652   2.658   3.891   1.421
 7486TIP3    H146653   2.645   3.980   1.389
 7486TIP3    H246654   2.590   3.839   1.377
 7487TIP3   OH246655   2.797   4.214   1.732
 7487TIP3    H146656   2.754   4.186   1.813
 7487TIP3    H246657   2.725   4.229   1.671
 7488TIP3   OH246658   3.078   4.167   1.714
 7488TIP3    H146659   2.984   4.157   1.722
 7488TIP3    H246660   3.115   4.097   1.769
 7489TIP3   OH246661   3.211   3.993   1.883
 7489TIP3    H146662   3.220   3.898   1.870
 7489TIP3    H246663   3.193   4.003   1.976
 7490TIP3   OH246664   2.229   4.092   1.780
 7490TIP3    H146665   2.224   4.007   1.736
 7490TIP3    H246666   2.239   4.069   1.873
 7491TIP3   OH246667   2.636   3.777   1.667
 7491TIP3    H146668   2.697   3.704   1.658
 7491TIP3    H246669   2.638   3.820   1.582
 7492TIP3   OH246670   2.746   3.894   1.889
 7492TIP3    H146671   2.715   3.851   1.810
 7492TIP3    H246672   2.692   3.973   1.896
 7493TIP3   OH246673   2.717   5.659   0.151
 7493TIP3    H146674   2.800   5.617   0.174
 7493TIP3    H246675   2.715   5.738   0.204
 7494TIP3   OH246676   2.001   5.190   0.164
 7494TIP3    H146677   2.092   5.160   0.160
 7494TIP3    H246678   1.959   5.149   0.088
 7495TIP3   OH246679   1.924   5.595   0.653
 7495TIP3    H146680   1.849   5.562   0.603
 7495TIP3    H246681   1.942   5.526   0.717
 7496TIP3   OH246682   1.995   5.387   0.818
 7496TIP3    H146683   1.953   5.319   0.870
 7496TIP3    H246684   2.055   5.431   0.879
 7497TIP3   OH246685   3.730   5.530   1.132
 7497TIP3    H146686   3.738   5.502   1.223
 7497TIP3    H246687   3.819   5.554   1.107
 7498TIP3   OH246688   3.698   5.441   1.399
 7498TIP3    H146689   3.644   5.377   1.353
 7498TIP3    H246690   3.741   5.391   1.468
 7499TIP3   OH246691   3.610   5.039   1.911
 7499TIP3    H146692   3.528   5.052   1.958
 7499TIP3    H246693   3.662   5.117   1.931
 7500TIP3   OH246694   3.716   4.890   0.471
 7500TIP3    H146695   3.791   4.949   0.471
 7500TIP3    H246696   3.737   4.823   0.535
 7501TIP3   OH246697   3.753   4.672   0.642
 7501TIP3    H146698   3.665   4.648   0.672
 7501TIP3    H246699   3.802   4.689   0.723
 7502TIP3   OH246700   3.725   5.000   1.074
 7502TIP3    H146701   3.781   4.923   1.077
 7502TIP3    H246702   3.785   5.074   1.071
 7503TIP3   OH246703   3.526   5.260   1.290
 7503TIP3    H146704   3.456   5.296   1.345
 7503TIP3    H246705   3.484   5.246   1.205
 7504TIP3   OH246706   3.688   4.705   0.270
 7504TIP3    H146707   3.640   4.745   0.197
 7504TIP3    H246708   3.690   4.772   0.338
 7505TIP3   OH246709   3.451   4.405   0.160
 7505TIP3    H146710   3.467   4.451   0.078
 7505TIP3    H246711   3.423   4.317   0.133
 7506TIP3   OH246712   3.493   4.573   0.681
 7506TIP3    H146713   3.476   4.486   0.644
 7506TIP3    H246714   3.447   4.573   0.765
 7507TIP3   OH246715   1.980   4.769   1.149
 7507TIP3    H146716   1.973   4.760   1.054
 7507TIP3    H246717   2.059   4.721   1.172
 7508TIP3   OH246718   3.604   4.719   1.666
 7508TIP3    H146719   3.662   4.644   1.649
 7508TIP3    H246720   3.652   4.794   1.631
 7509TIP3   OH246721   3.756   4.468   1.624
 7509TIP3    H146722   3.669   4.435   1.647
 7509TIP3    H246723   3.816   4.397   1.647
 7510TIP3   OH246724   3.411   4.159   0.034
 7510TIP3    H146725   3.481   4.103   0.070
 7510TIP3    H246726   3.331   4.111   0.051
 7511TIP3   OH246727   3.451   4.338   0.520
 7511TIP3    H146728   3.485   4.249   0.529
 7511TIP3    H246729   3.515   4.383   0.464
 7512TIP3   OH246730   3.549   4.368   1.062
 7512TIP3    H146731   3.643   4.383   1.050
 7512TIP3    H246732   3.534   4.386   1.155
 7513TIP3   OH246733   3.531   4.454   1.327
 7513TIP3    H146734   3.451   4.479   1.374
 7513TIP3    H246735   3.578   4.537   1.315
 7514TIP3   OH246736   2.025   4.220   1.636
 7514TIP3    H146737   2.081   4.190   1.707
 7514TIP3    H246738   1.943   4.171   1.647
 7515TIP3   OH246739   3.769   3.836   1.848
 7515TIP3    H146740   3.842   3.779   1.823
 7515TIP3    H246741   3.768   3.905   1.782
 7516TIP3   OH246742   3.542   4.080   0.538
 7516TIP3    H146743   3.582   4.040   0.616
 7516TIP3    H246744   3.466   4.025   0.519
 7517TIP3   OH246745   2.103   4.111   1.027
 7517TIP3    H146746   2.144   4.028   1.001
 7517TIP3    H246747   2.173   4.175   1.021
 7518TIP3   OH246748   1.857   4.395   0.993
 7518TIP3    H146749   1.941   4.429   0.963
 7518TIP3    H246750   1.867   4.385   1.088
 7519TIP3   OH246751   3.716   4.005   1.638
 7519TIP3    H146752   3.638   4.059   1.627
 7519TIP3    H246753   3.712   3.941   1.568
 7520TIP3   OH246754   3.634   4.031   0.137
 7520TIP3    H146755   3.692   3.984   0.077
 7520TIP3    H246756   3.689   4.099   0.176
 7521TIP3   OH246757   1.918   3.983   0.401
 7521TIP3    H146758   1.848   4.005   0.463
 7521TIP3    H246759   1.946   4.067   0.366
 7522TIP3   OH246760   3.392   5.497   0.710
 7522TIP3    H146761   3.476   5.484   0.666
 7522TIP3    H246762   3.408   5.571   0.769
 7523TIP3   OH246763   1.959   3.860   1.348
 7523TIP3    H146764   1.891   3.857   1.416
 7523TIP3    H246765   1.943   3.942   1.302
 7524TIP3   OH246766   2.174   5.246   1.643
 7524TIP3    H146767   2.088   5.284   1.628
 7524TIP3    H246768   2.176   5.227   1.736
 7525TIP3   OH246769   2.517   5.364   1.359
 7525TIP3    H146770   2.476   5.447   1.337
 7525TIP3    H246771   2.609   5.375   1.334
 7526TIP3   OH246772   2.822   5.548   1.664
 7526TIP3    H146773   2.837   5.488   1.737
 7526TIP3    H246774   2.909   5.582   1.643
 7527TIP3   OH246775   3.057   5.661   1.579
 7527TIP3    H146776   3.085   5.600   1.510
 7527TIP3    H246777   3.127   5.658   1.644
 7528TIP3   OH246778   3.643   3.810   1.455
 7528TIP3    H146779   3.590   3.842   1.382
 7528TIP3    H246780   3.652   3.716   1.439
 7529TIP3   OH246781   2.158   5.573   1.393
 7529TIP3    H146782   2.092   5.631   1.356
 7529TIP3    H246783   2.140   5.574   1.487
 7530TIP3   OH246784   2.418   5.611   1.297
 7530TIP3    H146785   2.327   5.607   1.328
 7530TIP3    H246786   2.412   5.648   1.209
 7531TIP3   OH246787   2.883   5.644   1.205
 7531TIP3    H146788   2.824   5.644   1.130
 7531TIP3    H246789   2.884   5.735   1.235
 7532TIP3   OH246790   3.087   5.513   1.340
 7532TIP3    H146791   3.021   5.557   1.286
 7532TIP3    H246792   3.170   5.545   1.306
 7533TIP3   OH246793   3.340   5.587   1.278
 7533TIP3    H146794   3.379   5.674   1.282
 7533TIP3    H246795   3.379   5.547   1.201
 7534TIP3   OH246796   2.170   5.494   1.006
 7534TIP3    H146797   2.151   5.450   1.089
 7534TIP3    H246798   2.252   5.456   0.977
 7535TIP3   OH246799   2.394   5.369   0.915
 7535TIP3    H146800   2.386   5.274   0.909
 7535TIP3    H246801   2.477   5.384   0.960
 7536TIP3   OH246802   2.643   5.369   1.040
 7536TIP3    H146803   2.661   5.281   1.006
 7536TIP3    H246804   2.688   5.372   1.124
 7537TIP3   OH246805   2.884   3.951   0.918
 7537TIP3    H146806   2.833   3.881   0.959
 7537TIP3    H246807   2.975   3.924   0.930
 7538TIP3   OH246808   3.408   3.928   0.849
 7538TIP3    H146809   3.500   3.927   0.821
 7538TIP3    H246810   3.389   4.021   0.865
 7539TIP3   OH246811   3.660   3.944   0.748
 7539TIP3    H146812   3.720   3.871   0.732
 7539TIP3    H246813   3.718   4.020   0.761
 7540TIP3   OH246814   2.188   3.840   0.664
 7540TIP3    H146815   2.097   3.812   0.656
 7540TIP3    H246816   2.238   3.760   0.648
 7541TIP3   OH246817   2.031   3.766   0.269
 7541TIP3    H146818   2.119   3.799   0.253
 7541TIP3    H246819   1.987   3.836   0.317
 7542TIP3   OH246820   2.707   3.741   0.720
 7542TIP3    H146821   2.766   3.805   0.680
 7542TIP3    H246822   2.716   3.756   0.814
 7543TIP3   OH246823   3.152   3.870   0.967
 7543TIP3    H146824   3.235   3.880   0.920
 7543TIP3    H246825   3.140   3.776   0.975
 7544TIP3   OH246826   3.319   3.927   0.481
 7544TIP3    H146827   3.241   3.982   0.488
 7544TIP3    H246828   3.286   3.838   0.494
 7545TIP3   OH246829   2.063   5.424   0.324
 7545TIP3    H146830   2.027   5.360   0.261
 7545TIP3    H246831   2.016   5.505   0.304
 7546TIP3   OH246832   2.280   3.884   0.225
 7546TIP3    H146833   2.348   3.863   0.161
 7546TIP3    H246834   2.316   3.957   0.275
 7547TIP3   OH246835   2.690   4.064   0.399
 7547TIP3    H146836   2.740   3.997   0.446
 7547TIP3    H246837   2.713   4.146   0.444
 7548TIP3   OH246838   2.960   5.537   0.189
 7548TIP3    H146839   3.049   5.571   0.191
 7548TIP3    H246840   2.964   5.463   0.128
 7549TIP3   OH246841   3.610   5.487   0.527
 7549TIP3    H146842   3.577   5.405   0.489
 7549TIP3    H246843   3.585   5.554   0.463
 7550TIP3   OH246844   2.221   3.835   1.670
 7550TIP3    H146845   2.149   3.781   1.703
 7550TIP3    H246846   2.296   3.810   1.724
 7551TIP3   OH246847   2.426   3.762   1.839
 7551TIP3    H146848   2.500   3.776   1.780
 7551TIP3    H246849   2.438   3.673   1.873
 7552TIP3   OH246850   2.287   5.529   0.184
 7552TIP3    H146851   2.264   5.619   0.207
 7552TIP3    H246852   2.232   5.475   0.241
 7553TIP3   OH246853   3.276   3.727   1.809
 7553TIP3    H146854   3.287   3.642   1.853
 7553TIP3    H246855   3.362   3.745   1.771
 7554TIP3   OH246856   3.508   5.351   1.688
 7554TIP3    H146857   3.452   5.347   1.610
 7554TIP3    H246858   3.515   5.445   1.706
 7555TIP3   OH246859   5.023   4.825   0.533
 7555TIP3    H146860   5.021   4.920   0.537
 7555TIP3    H246861   4.948   4.801   0.479
 7556TIP3   OH246862   4.855   4.702   1.069
 7556TIP3    H146863   4.884   4.655   1.147
 7556TIP3    H246864   4.802   4.639   1.021
 7557TIP3   OH246865   4.024   4.573   1.237
 7557TIP3    H146866   4.039   4.484   1.267
 7557TIP3    H246867   4.075   4.628   1.297
 7558TIP3   OH246868   5.305   5.022   0.988
 7558TIP3    H146869   5.225   4.969   0.992
 7558TIP3    H246870   5.279   5.107   1.023
 7559TIP3   OH246871   4.212   5.108   0.988
 7559TIP3    H146872   4.186   5.023   0.951
 7559TIP3    H246873   4.304   5.097   1.011
 7560TIP3   OH246874   3.824   4.406   0.576
 7560TIP3    H146875   3.813   4.498   0.601
 7560TIP3    H246876   3.767   4.395   0.500
 7561TIP3   OH246877   3.932   4.699   0.854
 7561TIP3    H146878   3.970   4.612   0.863
 7561TIP3    H246879   4.008   4.758   0.854
 7562TIP3   OH246880   4.908   5.359   0.824
 7562TIP3    H146881   4.999   5.335   0.803
 7562TIP3    H246882   4.891   5.316   0.908
 7563TIP3   OH246883   4.727   4.956   1.088
 7563TIP3    H146884   4.767   4.873   1.062
 7563TIP3    H246885   4.787   4.992   1.153
 7564TIP3   OH246886   5.628   4.058   1.171
 7564TIP3    H146887   5.617   4.131   1.231
 7564TIP3    H246888   5.705   4.081   1.120
 7565TIP3   OH246889   5.002   4.382   1.022
 7565TIP3    H146890   5.005   4.288   1.040
 7565TIP3    H246891   4.958   4.389   0.937
 7566TIP3   OH246892   4.364   4.188   0.807
 7566TIP3    H146893   4.372   4.269   0.758
 7566TIP3    H246894   4.306   4.133   0.755
 7567TIP3   OH246895   5.113   4.252   0.685
 7567TIP3    H146896   5.157   4.220   0.764
 7567TIP3    H246897   5.183   4.293   0.634
 7568TIP3   OH246898   4.028   4.441   0.884
 7568TIP3    H146899   4.090   4.396   0.942
 7568TIP3    H246900   4.050   4.409   0.796
 7569TIP3   OH246901   4.476   4.595   0.830
 7569TIP3    H146902   4.559   4.563   0.865
 7569TIP3    H246903   4.443   4.524   0.776
 7570TIP3   OH246904   5.586   4.247   1.364
 7570TIP3    H146905   5.537   4.327   1.348
 7570TIP3    H246906   5.646   4.268   1.435
 7571TIP3   OH246907   4.221   4.080   1.235
 7571TIP3    H146908   4.190   4.153   1.182
 7571TIP3    H246909   4.154   4.071   1.303
 7572TIP3   OH246910   5.011   5.092   0.493
 7572TIP3    H146911   5.000   5.085   0.399
 7572TIP3    H246912   4.974   5.177   0.516
 7573TIP3   OH246913   4.490   4.885   1.210
 7573TIP3    H146914   4.440   4.963   1.231
 7573TIP3    H246915   4.568   4.918   1.165
 7574TIP3   OH246916   5.242   4.179   0.920
 7574TIP3    H146917   5.172   4.167   0.983
 7574TIP3    H246918   5.302   4.242   0.962
 7575TIP3   OH246919   4.209   4.274   1.024
 7575TIP3    H146920   4.258   4.337   1.076
 7575TIP3    H246921   4.272   4.241   0.961
 7576TIP3   OH246922   4.347   5.109   1.291
 7576TIP3    H146923   4.361   5.203   1.293
 7576TIP3    H246924   4.253   5.098   1.310
 7577TIP3   OH246925   3.934   5.060   0.448
 7577TIP3    H146926   3.929   5.112   0.367
 7577TIP3    H246927   3.962   5.123   0.514
 7578TIP3   OH246928   5.240   5.266   1.101
 7578TIP3    H146929   5.147   5.274   1.125
 7578TIP3    H246930   5.263   5.353   1.068
 7579TIP3   OH246931   5.384   3.925   1.202
 7579TIP3    H146932   5.324   3.965   1.138
 7579TIP3    H246933   5.468   3.966   1.184
 7580TIP3   OH246934   4.577   3.757   1.021
 7580TIP3    H146935   4.555   3.664   1.024
 7580TIP3    H246936   4.494   3.802   1.037
 7581TIP3   OH246937   5.163   5.307   0.754
 7581TIP3    H146938   5.214   5.228   0.734
 7581TIP3    H246939   5.227   5.378   0.748
 7582TIP3   OH246940   5.331   5.092   0.723
 7582TIP3    H146941   5.322   5.009   0.676
 7582TIP3    H246942   5.341   5.066   0.815
 7583TIP3   OH246943   5.402   4.996   1.430
 7583TIP3    H146944   5.394   4.941   1.353
 7583TIP3    H246945   5.411   5.085   1.395
 7584TIP3   OH246946   4.828   4.751   0.349
 7584TIP3    H146947   4.758   4.816   0.342
 7584TIP3    H246948   4.866   4.747   0.262
 7585TIP3   OH246949   4.774   4.511   0.034
 7585TIP3    H146950   4.821   4.593   0.049
 7585TIP3    H246951   4.843   4.448   0.015
 7586TIP3   OH246952   5.540   4.703   1.317
 7586TIP3    H146953   5.477   4.761   1.273
 7586TIP3    H246954   5.610   4.690   1.253
 7587TIP3   OH246955   5.291   4.848   0.598
 7587TIP3    H146956   5.197   4.834   0.584
 7587TIP3    H246957   5.325   4.763   0.625
 7588TIP3   OH246958   5.168   4.503   1.444
 7588TIP3    H146959   5.168   4.578   1.503
 7588TIP3    H246960   5.097   4.520   1.383
 7589TIP3   OH246961   4.329   4.776   0.678
 7589TIP3    H146962   4.303   4.732   0.597
 7589TIP3    H246963   4.385   4.712   0.722
 7590TIP3   OH246964   4.505   5.115   0.972
 7590TIP3    H146965   4.504   5.124   0.877
 7590TIP3    H246966   4.584   5.063   0.991
 7591TIP3   OH246967   4.346   4.712   1.045
 7591TIP3    H146968   4.405   4.685   0.975
 7591TIP3    H246969   4.400   4.767   1.102
 7592TIP3   OH246970   4.986   5.263   1.210
 7592TIP3    H146971   4.977   5.318   1.288
 7592TIP3    H246972   4.952   5.178   1.237
 7593TIP3   OH246973   4.480   5.119   1.538
 7593TIP3    H146974   4.413   5.176   1.576
 7593TIP3    H246975   4.443   5.092   1.454
 7594TIP3   OH246976   5.096   4.579   0.437
 7594TIP3    H146977   5.084   4.663   0.482
 7594TIP3    H246978   5.133   4.603   0.352
 7595TIP3   OH246979   4.139   4.726   1.457
 7595TIP3    H146980   4.161   4.807   1.503
 7595TIP3    H246981   4.055   4.698   1.495
 7596TIP3   OH246982   4.877   5.336   0.543
 7596TIP3    H146983   4.866   5.331   0.638
 7596TIP3    H246984   4.827   5.413   0.517
 7597TIP3   OH246985   4.281   5.300   1.599
 7597TIP3    H146986   4.299   5.338   1.513
 7597TIP3    H246987   4.186   5.308   1.609
 7598TIP3   OH246988   5.419   3.835   0.311
 7598TIP3    H146989   5.342   3.865   0.359
 7598TIP3    H246990   5.443   3.909   0.256
 7599TIP3   OH246991   4.240   4.670   0.433
 7599TIP3    H146992   4.180   4.736   0.398
 7599TIP3    H246993   4.198   4.586   0.414
 7600TIP3   OH246994   5.590   5.346   0.112
 7600TIP3    H146995   5.613   5.436   0.134
 7600TIP3    H246996   5.662   5.293   0.146
 7601TIP3   OH246997   3.903   4.917   1.354
 7601TIP3    H146998   3.892   4.891   1.263
 7601TIP3    H246999   3.914   4.835   1.402
 7602TIP3   OH247000   3.946   5.183   1.071
 7602TIP3    H147001   4.034   5.152   1.048
 7602TIP3    H247002   3.960   5.239   1.148
 7603TIP3   OH247003   5.667   5.306   1.676
 7603TIP3    H147004   5.664   5.216   1.646
 7603TIP3    H247005   5.578   5.325   1.706
 7604TIP3   OH247006   4.730   5.243   1.506
 7604TIP3    H147007   4.717   5.326   1.553
 7604TIP3    H247008   4.650   5.194   1.523
 7605TIP3   OH247009   4.758   5.562   0.454
 7605TIP3    H147010   4.761   5.575   0.359
 7605TIP3    H247011   4.754   5.651   0.490
 7606TIP3   OH247012   4.195   5.458   0.684
 7606TIP3    H147013   4.213   5.434   0.774
 7606TIP3    H247014   4.137   5.389   0.652
 7607TIP3   OH247015   5.048   5.584   0.274
 7607TIP3    H147016   5.093   5.512   0.231
 7607TIP3    H247017   5.062   5.568   0.368
 7608TIP3   OH247018   5.081   5.537   0.553
 7608TIP3    H147019   5.032   5.455   0.551
 7608TIP3    H247020   5.156   5.519   0.609
 7609TIP3   OH247021   5.359   4.384   1.637
 7609TIP3    H147022   5.287   4.420   1.586
 7609TIP3    H247023   5.360   4.291   1.613
 7610TIP3   OH247024   4.088   5.118   1.395
 7610TIP3    H147025   4.123   5.083   1.477
 7610TIP3    H247026   4.018   5.058   1.371
 7611TIP3   OH247027   4.328   3.878   1.077
 7611TIP3    H147028   4.255   3.870   1.016
 7611TIP3    H247029   4.306   3.955   1.130
 7612TIP3   OH247030   4.783   3.905   1.442
 7612TIP3    H147031   4.823   3.846   1.506
 7612TIP3    H247032   4.690   3.902   1.462
 7613TIP3   OH247033   5.129   4.224   1.454
 7613TIP3    H147034   5.086   4.223   1.539
 7613TIP3    H247035   5.140   4.317   1.434
 7614TIP3   OH247036   5.191   4.638   0.186
 7614TIP3    H147037   5.110   4.665   0.143
 7614TIP3    H247038   5.256   4.703   0.159
 7615TIP3   OH247039   4.671   4.163   0.173
 7615TIP3    H147040   4.646   4.116   0.253
 7615TIP3    H247041   4.588   4.174   0.126
 7616TIP3   OH247042   4.350   4.464   1.167
 7616TIP3    H147043   4.350   4.491   1.259
 7616TIP3    H247044   4.336   4.544   1.117
 7617TIP3   OH247045   4.350   4.418   0.655
 7617TIP3    H147046   4.256   4.405   0.646
 7617TIP3    H247047   4.384   4.411   0.566
 7618TIP3   OH247048   4.840   4.524   0.527
 7618TIP3    H147049   4.799   4.597   0.480
 7618TIP3    H247050   4.932   4.527   0.501
 7619TIP3   OH247051   4.793   4.579   1.798
 7619TIP3    H147052   4.704   4.545   1.803
 7619TIP3    H247053   4.848   4.506   1.827
 7620TIP3   OH247054   4.892   4.396   0.769
 7620TIP3    H147055   4.871   4.454   0.696
 7620TIP3    H247056   4.962   4.340   0.736
 7621TIP3   OH247057   4.064   4.325   1.342
 7621TIP3    H147058   4.141   4.333   1.398
 7621TIP3    H247059   4.029   4.238   1.362
 7622TIP3   OH247060   4.388   4.156   0.112
 7622TIP3    H147061   4.372   4.133   0.204
 7622TIP3    H247062   4.334   4.233   0.097
 7623TIP3   OH247063   3.806   4.172   0.765
 7623TIP3    H147064   3.866   4.177   0.840
 7623TIP3    H247065   3.818   4.256   0.720
 7624TIP3   OH247066   3.795   4.232   0.244
 7624TIP3    H147067   3.863   4.275   0.193
 7624TIP3    H247068   3.745   4.304   0.284
 7625TIP3   OH247069   4.954   4.513   1.262
 7625TIP3    H147070   4.973   4.464   1.182
 7625TIP3    H247071   4.884   4.464   1.305
 7626TIP3   OH247072   4.645   4.139   0.771
 7626TIP3    H147073   4.554   4.148   0.798
 7626TIP3    H247074   4.686   4.088   0.841
 7627TIP3   OH247075   4.087   4.335   0.637
 7627TIP3    H147076   4.000   4.347   0.599
 7627TIP3    H247077   4.103   4.241   0.627
 7628TIP3   OH247078   4.445   4.364   0.400
 7628TIP3    H147079   4.531   4.346   0.440
 7628TIP3    H247080   4.466   4.403   0.316
 7629TIP3   OH247081   5.025   4.111   1.071
 7629TIP3    H147082   4.979   4.109   1.155
 7629TIP3    H247083   5.013   4.023   1.035
 7630TIP3   OH247084   4.225   4.377   0.115
 7630TIP3    H147085   4.129   4.379   0.110
 7630TIP3    H247086   4.253   4.448   0.056
 7631TIP3   OH247087   5.386   5.653   1.722
 7631TIP3    H147088   5.408   5.671   1.631
 7631TIP3    H247089   5.459   5.690   1.772
 7632TIP3   OH247090   4.165   4.963   1.612
 7632TIP3    H147091   4.234   4.961   1.678
 7632TIP3    H247092   4.084   4.958   1.663
 7633TIP3   OH247093   4.701   4.487   0.952
 7633TIP3    H147094   4.760   4.444   0.890
 7633TIP3    H247095   4.674   4.417   1.012
 7634TIP3   OH247096   4.182   4.072   0.624
 7634TIP3    H147097   4.138   3.988   0.639
 7634TIP3    H247098   4.224   4.062   0.538
 7635TIP3   OH247099   4.594   4.327   1.162
 7635TIP3    H147100   4.516   4.382   1.168
 7635TIP3    H247101   4.646   4.351   1.239
 7636TIP3   OH247102   4.614   4.921   0.321
 7636TIP3    H147103   4.551   4.856   0.290
 7636TIP3    H247104   4.586   4.939   0.411
 7637TIP3   OH247105   5.348   4.854   1.199
 7637TIP3    H147106   5.371   4.917   1.131
 7637TIP3    H247107   5.265   4.816   1.169
 7638TIP3   OH247108   4.939   4.133   0.228
 7638TIP3    H147109   4.849   4.154   0.206
 7638TIP3    H247110   4.974   4.213   0.267
 7639TIP3   OH247111   4.799   4.903   1.537
 7639TIP3    H147112   4.869   4.864   1.588
 7639TIP3    H247113   4.743   4.945   1.602
 7640TIP3   OH247114   5.074   4.313   0.381
 7640TIP3    H147115   5.162   4.291   0.412
 7640TIP3    H247116   5.067   4.408   0.395
 7641TIP3   OH247117   4.167   4.848   0.888
 7641TIP3    H147118   4.217   4.836   0.807
 7641TIP3    H247119   4.215   4.799   0.954
 7642TIP3   OH247120   4.971   5.045   0.221
 7642TIP3    H147121   4.888   5.094   0.221
 7642TIP3    H247122   4.954   4.968   0.167
 7643TIP3   OH247123   3.863   4.676   1.484
 7643TIP3    H147124   3.849   4.603   1.543
 7643TIP3    H247125   3.792   4.670   1.420
 7644TIP3   OH247126   4.490   4.733   1.710
 7644TIP3    H147127   4.514   4.722   1.618
 7644TIP3    H247128   4.495   4.645   1.748
 7645TIP3   OH247129   4.997   5.180   1.558
 7645TIP3    H147130   4.905   5.190   1.534
 7645TIP3    H247131   4.998   5.186   1.653
 7646TIP3   OH247132   5.614   4.460   0.274
 7646TIP3    H147133   5.522   4.432   0.280
 7646TIP3    H247134   5.610   4.551   0.248
 7647TIP3   OH247135   5.638   5.055   1.573
 7647TIP3    H147136   5.551   5.029   1.546
 7647TIP3    H247137   5.697   5.015   1.509
 7648TIP3   OH247138   5.452   5.295   0.362
 7648TIP3    H147139   5.429   5.205   0.384
 7648TIP3    H247140   5.480   5.291   0.270
 7649TIP3   OH247141   5.128   4.790   1.036
 7649TIP3    H147142   5.034   4.775   1.039
 7649TIP3    H247143   5.163   4.715   0.988
 7650TIP3   OH247144   4.442   5.188   0.708
 7650TIP3    H147145   4.470   5.268   0.663
 7650TIP3    H247146   4.347   5.190   0.703
 7651TIP3   OH247147   3.938   4.684   0.154
 7651TIP3    H147148   3.995   4.743   0.204
 7651TIP3    H247149   3.854   4.688   0.201
 7652TIP3   OH247150   4.508   4.958   0.568
 7652TIP3    H147151   4.498   5.040   0.616
 7652TIP3    H247152   4.446   4.898   0.610
 7653TIP3   OH247153   4.653   5.379   1.277
 7653TIP3    H147154   4.716   5.450   1.265
 7653TIP3    H247155   4.694   5.322   1.343
 7654TIP3   OH247156   4.455   5.436   0.580
 7654TIP3    H147157   4.366   5.462   0.603
 7654TIP3    H247158   4.511   5.500   0.624
 7655TIP3   OH247159   4.906   5.008   1.301
 7655TIP3    H147160   4.853   4.983   1.378
 7655TIP3    H247161   4.992   4.971   1.318
 7656TIP3   OH247162   5.239   5.089   0.177
 7656TIP3    H147163   5.284   5.070   0.260
 7656TIP3    H247164   5.147   5.068   0.195
 7657TIP3   OH247165   5.202   5.354   1.504
 7657TIP3    H147166   5.136   5.288   1.528
 7657TIP3    H247167   5.152   5.423   1.461
 7658TIP3   OH247168   5.618   5.606   0.177
 7658TIP3    H147169   5.695   5.641   0.222
 7658TIP3    H247170   5.544   5.641   0.227
 7659TIP3   OH247171   4.031   4.069   1.449
 7659TIP3    H147172   3.990   4.124   1.516
 7659TIP3    H247173   4.051   3.987   1.494
 7660TIP3   OH247174   5.390   5.020   0.396
 7660TIP3    H147175   5.338   4.980   0.466
 7660TIP3    H247176   5.475   4.977   0.402
 7661TIP3   OH247177   4.028   5.368   1.283
 7661TIP3    H147178   4.052   5.290   1.333
 7661TIP3    H247179   4.044   5.440   1.343
 7662TIP3   OH247180   4.449   5.124   0.224
 7662TIP3    H147181   4.519   5.064   0.249
 7662TIP3    H247182   4.476   5.209   0.258
 7663TIP3   OH247183   4.079   4.861   0.314
 7663TIP3    H147184   4.031   4.919   0.373
 7663TIP3    H247185   4.129   4.921   0.257
 7664TIP3   OH247186   4.912   4.114   1.321
 7664TIP3    H147187   4.992   4.133   1.370
 7664TIP3    H247188   4.873   4.040   1.366
 7665TIP3   OH247189   4.985   4.061   0.510
 7665TIP3    H147190   4.974   4.089   0.419
 7665TIP3    H247191   5.015   4.139   0.556
 7666TIP3   OH247192   4.783   5.253   0.286
 7666TIP3    H147193   4.693   5.284   0.292
 7666TIP3    H247194   4.822   5.271   0.371
 7667TIP3   OH247195   4.674   4.299   0.541
 7667TIP3    H147196   4.736   4.372   0.538
 7667TIP3    H247197   4.681   4.264   0.629
 7668TIP3   OH247198   4.766   4.341   1.382
 7668TIP3    H147199   4.746   4.332   1.475
 7668TIP3    H247200   4.810   4.260   1.358
 7669TIP3   OH247201   4.761   3.934   0.608
 7669TIP3    H147202   4.732   3.997   0.674
 7669TIP3    H247203   4.847   3.967   0.580
 7670TIP3   OH247204   4.533   5.367   0.320
 7670TIP3    H147205   4.519   5.445   0.268
 7670TIP3    H247206   4.511   5.393   0.410
 7671TIP3   OH247207   4.336   4.106   0.384
 7671TIP3    H147208   4.344   4.201   0.393
 7671TIP3    H247209   4.424   4.073   0.403
 7672TIP3   OH247210   5.384   4.133   1.522
 7672TIP3    H147211   5.297   4.136   1.482
 7672TIP3    H247212   5.443   4.150   1.448
 7673TIP3   OH247213   5.219   4.540   0.931
 7673TIP3    H147214   5.140   4.493   0.957
 7673TIP3    H247215   5.291   4.489   0.971
 7674TIP3   OH247216   4.196   5.058   0.157
 7674TIP3    H147217   4.283   5.080   0.191
 7674TIP3    H247218   4.205   5.065   0.062
 7675TIP3   OH247219   3.947   4.415   0.096
 7675TIP3    H147220   3.950   4.507   0.120
 7675TIP3    H247221   3.895   4.413   0.015
 7676TIP3   OH247222   5.350   5.523   1.056
 7676TIP3    H147223   5.350   5.590   0.988
 7676TIP3    H247224   5.442   5.511   1.079
 7677TIP3   OH247225   4.081   3.869   0.947
 7677TIP3    H147226   4.076   3.858   0.852
 7677TIP3    H247227   4.058   3.783   0.983
 7678TIP3   OH247228   3.991   5.284   0.609
 7678TIP3    H147229   3.944   5.304   0.690
 7678TIP3    H247230   3.952   5.342   0.543
 7679TIP3   OH247231   3.993   5.577   1.767
 7679TIP3    H147232   4.044   5.560   1.846
 7679TIP3    H247233   3.994   5.494   1.719
 7680TIP3   OH247234   4.376   5.384   1.845
 7680TIP3    H147235   4.456   5.334   1.860
 7680TIP3    H247236   4.345   5.355   1.760
 7681TIP3   OH247237   4.888   5.369   0.057
 7681TIP3    H147238   4.847   5.318   0.127
 7681TIP3    H247239   4.981   5.368   0.079
 7682TIP3   OH247240   5.020   5.210   1.828
 7682TIP3    H147241   5.018   5.125   1.873
 7682TIP3    H247242   5.098   5.254   1.863
 7683TIP3   OH247243   5.154   5.362   0.136
 7683TIP3    H147244   5.182   5.275   0.163
 7683TIP3    H247245   5.220   5.390   0.072
 7684TIP3   OH247246   3.934   4.932   1.756
 7684TIP3    H147247   3.957   4.842   1.777
 7684TIP3    H247248   3.851   4.925   1.708
 7685TIP3   OH247249   4.421   4.804   9.972
 7685TIP3    H147250   4.421   4.802  10.068
 7685TIP3    H247251   4.507   4.839   9.949
 7686TIP3   OH247252   4.614   4.978   1.727
 7686TIP3    H147253   4.558   5.020   1.662
 7686TIP3    H247254   4.581   4.889   1.733
 7687TIP3   OH247255   5.133   4.948   1.482
 7687TIP3    H147256   5.224   4.975   1.472
 7687TIP3    H247257   5.088   5.027   1.513
 7688TIP3   OH247258   4.036   4.680   1.806
 7688TIP3    H147259   4.092   4.612   1.769
 7688TIP3    H247260   4.048   4.673   1.900
 7689TIP3   OH247261   4.436   4.728   0.242
 7689TIP3    H147262   4.375   4.712   0.314
 7689TIP3    H247263   4.475   4.643   0.224
 7690TIP3   OH247264   4.367   4.574   1.416
 7690TIP3    H147265   4.292   4.629   1.438
 7690TIP3    H247266   4.443   4.630   1.429
 7691TIP3   OH247267   4.530   4.482   0.161
 7691TIP3    H147268   4.479   4.472   0.081
 7691TIP3    H247269   4.621   4.484   0.132
 7692TIP3   OH247270   4.953   4.794   1.747
 7692TIP3    H147271   5.035   4.751   1.723
 7692TIP3    H247272   4.893   4.721   1.765
 7693TIP3   OH247273   5.353   4.840   0.084
 7693TIP3    H147274   5.317   4.830  -0.005
 7693TIP3    H247275   5.320   4.925   0.113
 7694TIP3   OH247276   4.292   4.324   1.495
 7694TIP3    H147277   4.360   4.260   1.475
 7694TIP3    H247278   4.333   4.409   1.479
 7695TIP3   OH247279   4.464   4.142   1.345
 7695TIP3    H147280   4.517   4.185   1.278
 7695TIP3    H247281   4.381   4.124   1.301
 7696TIP3   OH247282   4.572   4.757   1.443
 7696TIP3    H147283   4.658   4.794   1.464
 7696TIP3    H247284   4.546   4.800   1.362
 7697TIP3   OH247285   4.988   4.403   1.896
 7697TIP3    H147286   5.004   4.351   1.817
 7697TIP3    H247287   5.059   4.468   1.896
 7698TIP3   OH247288   5.205   4.719   1.619
 7698TIP3    H147289   5.174   4.797   1.574
 7698TIP3    H247290   5.301   4.726   1.615
 7699TIP3   OH247291   4.213   4.480   1.723
 7699TIP3    H147292   4.214   4.416   1.653
 7699TIP3    H247293   4.302   4.477   1.760
 7700TIP3   OH247294   4.508   3.895   1.460
 7700TIP3    H147295   4.491   3.983   1.426
 7700TIP3    H247296   4.450   3.838   1.411
 7701TIP3   OH247297   4.708   4.258   1.658
 7701TIP3    H147298   4.661   4.324   1.709
 7701TIP3    H247299   4.650   4.182   1.657
 7702TIP3   OH247300   4.996   4.221   1.689
 7702TIP3    H147301   4.901   4.212   1.692
 7702TIP3    H247302   5.029   4.154   1.748
 7703TIP3   OH247303   5.135   4.057   1.877
 7703TIP3    H147304   5.119   3.966   1.853
 7703TIP3    H247305   5.083   4.071   1.957
 7704TIP3   OH247306   4.074   4.140   1.841
 7704TIP3    H147307   4.166   4.167   1.838
 7704TIP3    H247308   4.069   4.081   1.916
 7705TIP3   OH247309   4.500   3.797   1.716
 7705TIP3    H147310   4.552   3.718   1.708
 7705TIP3    H247311   4.500   3.835   1.628
 7706TIP3   OH247312   4.530   3.971   1.929
 7706TIP3    H147313   4.529   3.910   1.856
 7706TIP3    H247314   4.461   4.034   1.908
 7707TIP3   OH247315   4.518   5.581   0.141
 7707TIP3    H147316   4.609   5.609   0.153
 7707TIP3    H247317   4.475   5.657   0.103
 7708TIP3   OH247318   3.950   5.173   0.190
 7708TIP3    H147319   4.042   5.145   0.192
 7708TIP3    H247320   3.912   5.124   0.117
 7709TIP3   OH247321   3.796   5.581   0.709
 7709TIP3    H147322   3.732   5.547   0.647
 7709TIP3    H247323   3.817   5.506   0.765
 7710TIP3   OH247324   3.886   5.364   0.857
 7710TIP3    H147325   3.873   5.284   0.907
 7710TIP3    H247326   3.929   5.424   0.919
 7711TIP3   OH247327   5.605   5.508   1.170
 7711TIP3    H147328   5.599   5.474   1.259
 7711TIP3    H247329   5.659   5.587   1.177
 7712TIP3   OH247330   5.585   5.414   1.427
 7712TIP3    H147331   5.527   5.344   1.399
 7712TIP3    H247332   5.631   5.379   1.503
 7713TIP3   OH247333   5.460   5.063   1.866
 7713TIP3    H147334   5.384   5.053   1.923
 7713TIP3    H247335   5.503   5.143   1.897
 7714TIP3   OH247336   5.620   4.871   0.442
 7714TIP3    H147337   5.692   4.933   0.456
 7714TIP3    H247338   5.629   4.808   0.513
 7715TIP3   OH247339   5.645   4.669   0.636
 7715TIP3    H147340   5.557   4.644   0.664
 7715TIP3    H247341   5.692   4.685   0.718
 7716TIP3   OH247342   5.660   4.988   1.164
 7716TIP3    H147343   5.644   4.950   1.077
 7716TIP3    H247344   5.674   5.081   1.147
 7717TIP3   OH247345   5.389   5.250   1.332
 7717TIP3    H147346   5.321   5.287   1.389
 7717TIP3    H247347   5.349   5.250   1.245
 7718TIP3   OH247348   5.572   4.727   0.216
 7718TIP3    H147349   5.500   4.764   0.165
 7718TIP3    H247350   5.577   4.781   0.294
 7719TIP3   OH247351   5.341   4.415   0.267
 7719TIP3    H147352   5.291   4.491   0.239
 7719TIP3    H247353   5.313   4.344   0.209
 7720TIP3   OH247354   5.368   4.590   0.689
 7720TIP3    H147355   5.352   4.510   0.640
 7720TIP3    H247356   5.317   4.580   0.769
 7721TIP3   OH247357   3.874   4.765   1.114
 7721TIP3    H147358   3.880   4.748   1.020
 7721TIP3    H247359   3.935   4.702   1.153
 7722TIP3   OH247360   5.481   4.716   1.594
 7722TIP3    H147361   5.532   4.635   1.603
 7722TIP3    H247362   5.500   4.747   1.506
 7723TIP3   OH247363   5.612   4.475   1.584
 7723TIP3    H147364   5.525   4.441   1.604
 7723TIP3    H247365   5.672   4.404   1.609
 7724TIP3   OH247366   5.283   4.207   0.096
 7724TIP3    H147367   5.346   4.137   0.111
 7724TIP3    H247368   5.201   4.161   0.077
 7725TIP3   OH247369   5.331   4.336   0.533
 7725TIP3    H147370   5.386   4.258   0.535
 7725TIP3    H247371   5.348   4.376   0.448
 7726TIP3   OH247372   5.401   4.367   1.051
 7726TIP3    H147373   5.491   4.375   1.021
 7726TIP3    H247374   5.404   4.390   1.143
 7727TIP3   OH247375   5.414   4.458   1.314
 7727TIP3    H147376   5.330   4.475   1.355
 7727TIP3    H247377   5.462   4.541   1.322
 7728TIP3   OH247378   3.893   4.218   1.646
 7728TIP3    H147379   3.958   4.207   1.716
 7728TIP3    H247380   3.833   4.145   1.657
 7729TIP3   OH247381   5.647   3.786   1.782
 7729TIP3    H147382   5.697   3.741   1.714
 7729TIP3    H247383   5.644   3.877   1.754
 7730TIP3   OH247384   5.445   4.078   0.528
 7730TIP3    H147385   5.482   4.042   0.608
 7730TIP3    H247386   5.367   4.025   0.511
 7731TIP3   OH247387   3.973   4.124   0.990
 7731TIP3    H147388   4.009   4.036   0.977
 7731TIP3    H247389   4.051   4.179   1.003
 7732TIP3   OH247390   3.819   4.439   1.071
 7732TIP3    H147391   3.878   4.432   0.996
 7732TIP3    H247392   3.873   4.474   1.141
 7733TIP3   OH247393   5.567   4.048   1.711
 7733TIP3    H147394   5.523   4.076   1.791
 7733TIP3    H247395   5.501   4.056   1.642
 7734TIP3   OH247396   5.496   4.031   0.124
 7734TIP3    H147397   5.528   3.991   0.043
 7734TIP3    H247398   5.565   4.092   0.150
 7735TIP3   OH247399   3.806   4.007   0.407
 7735TIP3    H147400   3.727   4.022   0.458
 7735TIP3    H247401   3.818   4.087   0.356
 7736TIP3   OH247402   5.312   5.533   0.704
 7736TIP3    H147403   5.389   5.532   0.648
 7736TIP3    H247404   5.326   5.606   0.763
 7737TIP3   OH247405   3.860   3.828   1.272
 7737TIP3    H147406   3.804   3.834   1.350
 7737TIP3    H247407   3.848   3.912   1.228
 7738TIP3   OH247408   4.007   5.322   1.659
 7738TIP3    H147409   3.922   5.299   1.620
 7738TIP3    H247410   4.008   5.276   1.743
 7739TIP3   OH247411   4.387   5.377   1.351
 7739TIP3    H147412   4.362   5.467   1.332
 7739TIP3    H247413   4.481   5.375   1.336
 7740TIP3   OH247414   4.718   5.489   1.631
 7740TIP3    H147415   4.738   5.452   1.717
 7740TIP3    H247416   4.790   5.549   1.613
 7741TIP3   OH247417   4.942   5.645   1.606
 7741TIP3    H147418   4.994   5.606   1.536
 7741TIP3    H247419   5.001   5.650   1.681
 7742TIP3   OH247420   5.467   3.826   1.451
 7742TIP3    H147421   5.428   3.863   1.372
 7742TIP3    H247422   5.487   3.736   1.428
 7743TIP3   OH247423   4.080   5.627   1.403
 7743TIP3    H147424   4.004   5.671   1.366
 7743TIP3    H247425   4.097   5.673   1.485
 7744TIP3   OH247426   4.332   5.639   1.298
 7744TIP3    H147427   4.242   5.638   1.329
 7744TIP3    H247428   4.327   5.678   1.211
 7745TIP3   OH247429   4.809   5.603   1.225
 7745TIP3    H147430   4.760   5.630   1.148
 7745TIP3    H247431   4.802   5.677   1.285
 7746TIP3   OH247432   5.045   5.536   1.368
 7746TIP3    H147433   4.972   5.554   1.309
 7746TIP3    H247434   5.118   5.587   1.332
 7747TIP3   OH247435   5.268   5.667   1.274
 7747TIP3    H147436   5.296   5.755   1.249
 7747TIP3    H247437   5.289   5.612   1.198
 7748TIP3   OH247438   4.027   5.512   1.048
 7748TIP3    H147439   4.022   5.471   1.135
 7748TIP3    H247440   4.108   5.476   1.010
 7749TIP3   OH247441   4.245   5.380   0.944
 7749TIP3    H147442   4.229   5.287   0.960
 7749TIP3    H247443   4.333   5.395   0.979
 7750TIP3   OH247444   4.506   5.383   1.046
 7750TIP3    H147445   4.510   5.293   1.014
 7750TIP3    H247446   4.554   5.381   1.129
 7751TIP3   OH247447   4.762   3.943   0.922
 7751TIP3    H147448   4.709   3.877   0.966
 7751TIP3    H247449   4.852   3.909   0.929
 7752TIP3   OH247450   5.289   3.921   0.843
 7752TIP3    H147451   5.380   3.926   0.814
 7752TIP3    H247452   5.265   4.011   0.862
 7753TIP3   OH247453   5.545   3.950   0.750
 7753TIP3    H147454   5.610   3.880   0.740
 7753TIP3    H247455   5.593   4.022   0.791
 7754TIP3   OH247456   4.064   3.821   0.675
 7754TIP3    H147457   3.973   3.796   0.662
 7754TIP3    H247458   4.113   3.740   0.663
 7755TIP3   OH247459   3.963   3.796   0.322
 7755TIP3    H147460   4.048   3.831   0.296
 7755TIP3    H247461   3.918   3.870   0.362
 7756TIP3   OH247462   4.584   3.744   0.728
 7756TIP3    H147463   4.648   3.806   0.693
 7756TIP3    H247464   4.590   3.755   0.823
 7757TIP3   OH247465   5.029   3.854   0.955
 7757TIP3    H147466   5.112   3.865   0.909
 7757TIP3    H247467   5.021   3.759   0.966
 7758TIP3   OH247468   5.221   3.917   0.486
 7758TIP3    H147469   5.145   3.974   0.496
 7758TIP3    H247470   5.187   3.828   0.495
 7759TIP3   OH247471   3.874   5.452   0.427
 7759TIP3    H147472   3.783   5.465   0.452
 7759TIP3    H247473   3.895   5.529   0.373
 7760TIP3   OH247474   4.201   3.902   0.244
 7760TIP3    H147475   4.258   3.889   0.168
 7760TIP3    H247476   4.244   3.972   0.294
 7761TIP3   OH247477   4.601   4.063   0.422
 7761TIP3    H147478   4.648   3.997   0.473
 7761TIP3    H247479   4.630   4.147   0.459
 7762TIP3   OH247480   4.793   5.604   0.175
 7762TIP3    H147481   4.879   5.630   0.207
 7762TIP3    H247482   4.809   5.529   0.117
 7763TIP3   OH247483   5.506   5.521   0.501
 7763TIP3    H147484   5.475   5.440   0.462
 7763TIP3    H247485   5.476   5.590   0.442
 7764TIP3   OH247486   4.081   3.845   1.609
 7764TIP3    H147487   4.031   3.785   1.664
 7764TIP3    H247488   4.152   3.876   1.666
 7765TIP3   OH247489   4.254   3.835   1.836
 7765TIP3    H147490   4.340   3.820   1.798
 7765TIP3    H247491   4.233   3.753   1.881
 7766TIP3   OH247492   3.953   5.431   0.079
 7766TIP3    H147493   3.958   5.501   0.144
 7766TIP3    H247494   3.967   5.351   0.129
 7767TIP3   OH247495   5.113   3.793   1.777
 7767TIP3    H147496   5.104   3.743   1.858
 7767TIP3    H247497   5.206   3.783   1.754
 7768TIP3   OH247498   5.399   5.377   1.706
 7768TIP3    H147499   5.335   5.359   1.637
 7768TIP3    H247500   5.393   5.472   1.719
 7769TIP3   OH247501   6.894   4.841   0.601
 7769TIP3    H147502   6.885   4.925   0.557
 7769TIP3    H247503   6.819   4.790   0.572
 7770TIP3   OH247504   6.743   4.726   1.042
 7770TIP3    H147505   6.765   4.683   1.125
 7770TIP3    H247506   6.689   4.663   0.995
 7771TIP3   OH247507   5.963   4.648   1.232
 7771TIP3    H147508   5.994   4.564   1.264
 7771TIP3    H247509   6.010   4.713   1.285
 7772TIP3   OH247510   7.172   5.015   0.891
 7772TIP3    H147511   7.100   4.954   0.911
 7772TIP3    H247512   7.153   5.093   0.943
 7773TIP3   OH247513   6.177   5.108   0.891
 7773TIP3    H147514   6.123   5.030   0.884
 7773TIP3    H247515   6.253   5.080   0.941
 7774TIP3   OH247516   5.810   4.502   0.475
 7774TIP3    H147517   5.759   4.561   0.530
 7774TIP3    H247518   5.750   4.478   0.404
 7775TIP3   OH247519   5.821   4.702   0.857
 7775TIP3    H147520   5.863   4.616   0.861
 7775TIP3    H247521   5.893   4.764   0.855
 7776TIP3   OH247522   6.867   5.423   0.962
 7776TIP3    H147523   6.882   5.370   0.884
 7776TIP3    H247524   6.860   5.360   1.034
 7777TIP3   OH247525   6.635   4.978   1.082
 7777TIP3    H147526   6.671   4.893   1.055
 7777TIP3    H247527   6.691   5.006   1.155
 7778TIP3   OH247528   7.370   4.098   1.134
 7778TIP3    H147529   7.380   4.145   1.217
 7778TIP3    H247530   7.399   4.160   1.067
 7779TIP3   OH247531   6.870   4.374   1.063
 7779TIP3    H147532   6.880   4.280   1.082
 7779TIP3    H247533   6.854   4.378   0.969
 7780TIP3   OH247534   6.275   4.170   0.784
 7780TIP3    H147535   6.284   4.255   0.740
 7780TIP3    H247536   6.205   4.126   0.735
 7781TIP3   OH247537   6.982   4.226   0.638
 7781TIP3    H147538   7.019   4.194   0.720
 7781TIP3    H247539   7.050   4.281   0.600
 7782TIP3   OH247540   5.917   4.439   0.870
 7782TIP3    H147541   5.975   4.386   0.924
 7782TIP3    H247542   5.941   4.417   0.780
 7783TIP3   OH247543   6.385   4.604   0.794
 7783TIP3    H147544   6.466   4.574   0.835
 7783TIP3    H247545   6.351   4.527   0.748
 7784TIP3   OH247546   7.405   4.246   1.358
 7784TIP3    H147547   7.356   4.327   1.345
 7784TIP3    H247548   7.472   4.269   1.422
 7785TIP3   OH247549   6.133   4.069   1.266
 7785TIP3    H147550   6.082   4.144   1.299
 7785TIP3    H247551   6.085   3.993   1.298
 7786TIP3   OH247552   6.854   5.043   0.420
 7786TIP3    H147553   6.819   5.037   0.332
 7786TIP3    H247554   6.831   5.131   0.449
 7787TIP3   OH247555   6.375   4.912   1.169
 7787TIP3    H147556   6.332   4.979   1.222
 7787TIP3    H247557   6.456   4.954   1.138
 7788TIP3   OH247558   7.066   4.177   0.891
 7788TIP3    H147559   7.008   4.139   0.957
 7788TIP3    H247560   7.117   4.243   0.939
 7789TIP3   OH247561   6.100   4.262   0.986
 7789TIP3    H147562   6.153   4.322   1.037
 7789TIP3    H247563   6.162   4.219   0.927
 7790TIP3   OH247564   6.255   5.101   1.345
 7790TIP3    H147565   6.268   5.196   1.348
 7790TIP3    H247566   6.161   5.090   1.364
 7791TIP3   OH247567   5.823   5.059   0.447
 7791TIP3    H147568   5.800   5.111   0.371
 7791TIP3    H247569   5.851   5.122   0.513
 7792TIP3   OH247570   7.130   5.234   1.058
 7792TIP3    H147571   7.044   5.244   1.098
 7792TIP3    H247572   7.156   5.323   1.035
 7793TIP3   OH247573   7.138   3.942   1.124
 7793TIP3    H147574   7.060   3.997   1.120
 7793TIP3    H247575   7.211   4.004   1.131
 7794TIP3   OH247576   6.485   3.788   1.014
 7794TIP3    H147577   6.471   3.693   1.020
 7794TIP3    H247578   6.401   3.826   1.038
 7795TIP3   OH247579   6.955   5.323   0.715
 7795TIP3    H147580   7.010   5.249   0.690
 7795TIP3    H247581   7.014   5.398   0.718
 7796TIP3   OH247582   7.137   5.136   0.643
 7796TIP3    H147583   7.175   5.089   0.569
 7796TIP3    H247584   7.162   5.084   0.719
 7797TIP3   OH247585   7.286   4.999   1.376
 7797TIP3    H147586   7.270   4.948   1.297
 7797TIP3    H247587   7.302   5.088   1.344
 7798TIP3   OH247588   6.722   4.713   0.419
 7798TIP3    H147589   6.646   4.764   0.390
 7798TIP3    H247590   6.789   4.732   0.353
 7799TIP3   OH247591   6.762   4.563   0.114
 7799TIP3    H147592   6.833   4.596   0.168
 7799TIP3    H247593   6.801   4.494   0.061
 7800TIP3   OH247594   7.387   4.660   1.193
 7800TIP3    H147595   7.332   4.737   1.181
 7800TIP3    H247596   7.437   4.653   1.112
 7801TIP3   OH247597   7.126   4.767   0.485
 7801TIP3    H147598   7.050   4.795   0.536
 7801TIP3    H247599   7.177   4.713   0.546
 7802TIP3   OH247600   7.011   4.533   1.440
 7802TIP3    H147601   7.014   4.607   1.501
 7802TIP3    H247602   6.942   4.556   1.378
 7803TIP3   OH247603   6.223   4.771   0.641
 7803TIP3    H147604   6.190   4.718   0.568
 7803TIP3    H247605   6.284   4.714   0.687
 7804TIP3   OH247606   6.460   5.146   0.953
 7804TIP3    H147607   6.467   5.143   0.858
 7804TIP3    H247608   6.531   5.090   0.985
 7805TIP3   OH247609   6.253   4.713   1.016
 7805TIP3    H147610   6.313   4.691   0.946
 7805TIP3    H247611   6.299   4.779   1.068
 7806TIP3   OH247612   6.890   5.264   1.194
 7806TIP3    H147613   6.887   5.329   1.263
 7806TIP3    H247614   6.847   5.187   1.231
 7807TIP3   OH247615   6.413   5.063   1.575
 7807TIP3    H147616   6.364   5.128   1.626
 7807TIP3    H247617   6.364   5.054   1.494
 7808TIP3   OH247618   6.973   4.681   0.268
 7808TIP3    H147619   7.022   4.709   0.345
 7808TIP3    H247620   7.008   4.734   0.197
 7809TIP3   OH247621   6.075   4.738   1.479
 7809TIP3    H147622   6.075   4.815   1.536
 7809TIP3    H247623   5.988   4.700   1.490
 7810TIP3   OH247624   6.771   5.300   0.507
 7810TIP3    H147625   6.826   5.298   0.585
 7810TIP3    H247626   6.738   5.390   0.503
 7811TIP3   OH247627   6.250   5.275   1.653
 7811TIP3    H147628   6.260   5.318   1.568
 7811TIP3    H247629   6.155   5.261   1.662
 7812TIP3   OH247630   7.352   3.834   0.282
 7812TIP3    H147631   7.274   3.870   0.324
 7812TIP3    H247632   7.417   3.904   0.288
 7813TIP3   OH247633   6.106   4.650   0.410
 7813TIP3    H147634   6.062   4.729   0.378
 7813TIP3    H247635   6.035   4.589   0.429
 7814TIP3   OH247636   7.538   5.274   0.146
 7814TIP3    H147637   7.500   5.360   0.128
 7814TIP3    H247638   7.601   5.290   0.216
 7815TIP3   OH247639   5.800   4.924   1.397
 7815TIP3    H147640   5.754   4.926   1.313
 7815TIP3    H247641   5.800   4.831   1.422
 7816TIP3   OH247642   5.714   5.258   1.109
 7816TIP3    H147643   5.790   5.276   1.164
 7816TIP3    H247644   5.659   5.336   1.119
 7817TIP3   OH247645   7.585   5.214   1.575
 7817TIP3    H147646   7.558   5.123   1.588
 7817TIP3    H247647   7.507   5.265   1.599
 7818TIP3   OH247648   6.625   5.249   1.523
 7818TIP3    H147649   6.601   5.324   1.578
 7818TIP3    H247650   6.560   5.183   1.544
 7819TIP3   OH247651   6.705   5.565   0.463
 7819TIP3    H147652   6.683   5.585   0.373
 7819TIP3    H247653   6.671   5.639   0.514
 7820TIP3   OH247654   6.077   5.459   0.687
 7820TIP3    H147655   6.103   5.434   0.776
 7820TIP3    H247656   6.020   5.387   0.657
 7821TIP3   OH247657   6.970   5.616   0.189
 7821TIP3    H147658   6.991   5.532   0.148
 7821TIP3    H247659   6.983   5.601   0.283
 7822TIP3   OH247660   6.983   5.567   0.462
 7822TIP3    H147661   6.889   5.554   0.474
 7822TIP3    H247662   7.022   5.538   0.544
 7823TIP3   OH247663   7.208   4.367   1.715
 7823TIP3    H147664   7.116   4.393   1.720
 7823TIP3    H247665   7.208   4.285   1.667
 7824TIP3   OH247666   5.987   5.131   1.430
 7824TIP3    H147667   5.990   5.144   1.525
 7824TIP3    H247668   5.929   5.056   1.418
 7825TIP3   OH247669   6.235   3.880   1.090
 7825TIP3    H147670   6.157   3.864   1.037
 7825TIP3    H247671   6.212   3.958   1.141
 7826TIP3   OH247672   6.710   3.920   1.473
 7826TIP3    H147673   6.751   3.863   1.538
 7826TIP3    H247674   6.618   3.925   1.499
 7827TIP3   OH247675   6.985   4.265   1.500
 7827TIP3    H147676   6.930   4.257   1.578
 7827TIP3    H247677   6.989   4.359   1.483
 7828TIP3   OH247678   7.101   4.834   0.079
 7828TIP3    H147679   7.065   4.830  -0.010
 7828TIP3    H247680   7.191   4.804   0.069
 7829TIP3   OH247681   6.550   4.209   0.179
 7829TIP3    H147682   6.540   4.146   0.251
 7829TIP3    H247683   6.469   4.199   0.128
 7830TIP3   OH247684   6.243   4.456   1.122
 7830TIP3    H147685   6.186   4.454   1.198
 7830TIP3    H247686   6.235   4.546   1.089
 7831TIP3   OH247687   6.264   4.407   0.640
 7831TIP3    H147688   6.169   4.403   0.641
 7831TIP3    H247689   6.288   4.397   0.548
 7832TIP3   OH247690   6.751   4.470   0.537
 7832TIP3    H147691   6.727   4.557   0.505
 7832TIP3    H247692   6.820   4.441   0.477
 7833TIP3   OH247693   6.669   4.449   1.646
 7833TIP3    H147694   6.637   4.368   1.684
 7833TIP3    H247695   6.745   4.473   1.699
 7834TIP3   OH247696   6.828   4.401   0.791
 7834TIP3    H147697   6.791   4.447   0.715
 7834TIP3    H247698   6.871   4.324   0.753
 7835TIP3   OH247699   6.088   4.429   1.345
 7835TIP3    H147700   6.148   4.465   1.410
 7835TIP3    H247701   6.047   4.355   1.389
 7836TIP3   OH247702   6.278   4.170   0.110
 7836TIP3    H147703   6.254   4.144   0.199
 7836TIP3    H247704   6.232   4.253   0.096
 7837TIP3   OH247705   5.677   4.159   0.863
 7837TIP3    H147706   5.753   4.135   0.915
 7837TIP3    H247707   5.653   4.246   0.894
 7838TIP3   OH247708   5.703   4.207   0.185
 7838TIP3    H147709   5.775   4.215   0.122
 7838TIP3    H247710   5.685   4.297   0.212
 7839TIP3   OH247711   6.809   4.559   1.252
 7839TIP3    H147712   6.837   4.495   1.187
 7839TIP3    H247713   6.735   4.517   1.296
 7840TIP3   OH247714   6.554   4.112   0.772
 7840TIP3    H147715   6.462   4.124   0.796
 7840TIP3    H247716   6.595   4.079   0.851
 7841TIP3   OH247717   5.996   4.356   0.620
 7841TIP3    H147718   5.927   4.391   0.563
 7841TIP3    H247719   5.989   4.261   0.610
 7842TIP3   OH247720   6.287   4.365   0.364
 7842TIP3    H147721   6.371   4.403   0.339
 7842TIP3    H247722   6.226   4.393   0.295
 7843TIP3   OH247723   6.896   4.094   1.096
 7843TIP3    H147724   6.859   4.110   1.184
 7843TIP3    H247725   6.826   4.049   1.049
 7844TIP3   OH247726   6.142   4.411   0.131
 7844TIP3    H147727   6.047   4.415   0.119
 7844TIP3    H247728   6.177   4.471   0.065
 7845TIP3   OH247729   7.297   5.602   1.703
 7845TIP3    H147730   7.303   5.653   1.622
 7845TIP3    H247731   7.377   5.622   1.751
 7846TIP3   OH247732   6.024   4.926   1.672
 7846TIP3    H147733   6.077   4.906   1.749
 7846TIP3    H247734   5.936   4.940   1.706
 7847TIP3   OH247735   6.603   4.503   0.932
 7847TIP3    H147736   6.675   4.457   0.890
 7847TIP3    H247737   6.571   4.443   0.999
 7848TIP3   OH247738   6.067   4.074   0.620
 7848TIP3    H147739   6.023   3.992   0.644
 7848TIP3    H247740   6.102   4.056   0.532
 7849TIP3   OH247741   6.495   4.345   1.137
 7849TIP3    H147742   6.409   4.388   1.136
 7849TIP3    H247743   6.534   4.374   1.219
 7850TIP3   OH247744   6.507   4.858   0.326
 7850TIP3    H147745   6.440   4.805   0.283
 7850TIP3    H247746   6.459   4.908   0.393
 7851TIP3   OH247747   7.234   4.878   1.132
 7851TIP3    H147748   7.260   4.934   1.059
 7851TIP3    H247749   7.148   4.844   1.107
 7852TIP3   OH247750   6.829   4.196   0.229
 7852TIP3    H147751   6.737   4.217   0.209
 7852TIP3    H247752   6.865   4.277   0.262
 7853TIP3   OH247753   6.631   4.897   1.501
 7853TIP3    H147754   6.676   4.856   1.575
 7853TIP3    H247755   6.563   4.952   1.542
 7854TIP3   OH247756   6.956   4.414   0.354
 7854TIP3    H147757   7.040   4.392   0.394
 7854TIP3    H247758   6.969   4.502   0.318
 7855TIP3   OH247759   6.066   4.845   0.859
 7855TIP3    H147760   6.112   4.827   0.777
 7855TIP3    H247761   6.114   4.795   0.925
 7856TIP3   OH247762   6.686   5.007   0.186
 7856TIP3    H147763   6.664   5.098   0.205
 7856TIP3    H247764   6.624   4.956   0.237
 7857TIP3   OH247765   5.814   4.665   1.533
 7857TIP3    H147766   5.848   4.648   1.621
 7857TIP3    H247767   5.740   4.605   1.524
 7858TIP3   OH247768   6.462   4.628   1.692
 7858TIP3    H147769   6.400   4.608   1.621
 7858TIP3    H247770   6.541   4.578   1.669
 7859TIP3   OH247771   6.899   5.210   1.556
 7859TIP3    H147772   6.806   5.219   1.535
 7859TIP3    H247773   6.902   5.205   1.651
 7860TIP3   OH247774   7.407   4.456   0.358
 7860TIP3    H147775   7.369   4.413   0.281
 7860TIP3    H247776   7.443   4.538   0.324
 7861TIP3   OH247777   7.485   4.945   1.558
 7861TIP3    H147778   7.406   4.970   1.509
 7861TIP3    H247779   7.550   4.927   1.490
 7862TIP3   OH247780   7.368   5.262   0.379
 7862TIP3    H147781   7.318   5.183   0.397
 7862TIP3    H247782   7.407   5.247   0.293
 7863TIP3   OH247783   7.010   4.801   0.987
 7863TIP3    H147784   6.916   4.793   1.003
 7863TIP3    H247785   7.032   4.722   0.937
 7864TIP3   OH247786   6.364   5.181   0.690
 7864TIP3    H147787   6.361   5.270   0.655
 7864TIP3    H247788   6.286   5.174   0.745
 7865TIP3   OH247789   5.833   4.704   0.139
 7865TIP3    H147790   5.886   4.758   0.198
 7865TIP3    H247791   5.743   4.715   0.172
 7866TIP3   OH247792   6.343   4.981   0.505
 7866TIP3    H147793   6.361   5.051   0.568
 7866TIP3    H247794   6.295   4.915   0.555
 7867TIP3   OH247795   6.548   5.386   1.294
 7867TIP3    H147796   6.605   5.462   1.282
 7867TIP3    H247797   6.591   5.333   1.361
 7868TIP3   OH247798   6.335   5.441   0.593
 7868TIP3    H147799   6.244   5.461   0.615
 7868TIP3    H247800   6.386   5.507   0.640
 7869TIP3   OH247801   6.788   5.024   1.308
 7869TIP3    H147802   6.725   4.987   1.370
 7869TIP3    H247803   6.873   4.996   1.342
 7870TIP3   OH247804   7.124   5.096   0.174
 7870TIP3    H147805   7.156   5.083   0.263
 7870TIP3    H247806   7.098   5.009   0.144
 7871TIP3   OH247807   7.112   5.348   1.456
 7871TIP3    H147808   7.044   5.294   1.498
 7871TIP3    H247809   7.065   5.422   1.420
 7872TIP3   OH247810   7.429   5.526   0.114
 7872TIP3    H147811   7.483   5.600   0.084
 7872TIP3    H247812   7.379   5.562   0.187
 7873TIP3   OH247813   5.983   4.208   1.466
 7873TIP3    H147814   5.894   4.226   1.497
 7873TIP3    H247815   6.013   4.135   1.519
 7874TIP3   OH247816   7.253   5.003   0.415
 7874TIP3    H147817   7.199   4.926   0.429
 7874TIP3    H247818   7.343   4.971   0.422
 7875TIP3   OH247819   5.917   5.360   1.277
 7875TIP3    H147820   5.947   5.284   1.328
 7875TIP3    H247821   5.928   5.434   1.335
 7876TIP3   OH247822   6.264   5.118   0.276
 7876TIP3    H147823   6.286   5.066   0.353
 7876TIP3    H247824   6.304   5.203   0.292
 7877TIP3   OH247825   5.972   4.869   0.312
 7877TIP3    H147826   5.923   4.923   0.374
 7877TIP3    H247827   6.004   4.931   0.247
 7878TIP3   OH247828   6.793   4.147   1.345
 7878TIP3    H147829   6.866   4.181   1.398
 7878TIP3    H247830   6.763   4.070   1.392
 7879TIP3   OH247831   6.873   4.047   0.460
 7879TIP3    H147832   6.854   4.094   0.379
 7879TIP3    H247833   6.902   4.115   0.521
 7880TIP3   OH247834   6.634   5.260   0.270
 7880TIP3    H147835   6.545   5.288   0.290
 7880TIP3    H247836   6.682   5.273   0.352
 7881TIP3   OH247837   6.573   4.260   0.537
 7881TIP3    H147838   6.628   4.338   0.541
 7881TIP3    H247839   6.570   4.228   0.628
 7882TIP3   OH247840   6.634   4.383   1.375
 7882TIP3    H147841   6.641   4.407   1.467
 7882TIP3    H247842   6.680   4.298   1.369
 7883TIP3   OH247843   6.655   3.928   0.589
 7883TIP3    H147844   6.627   3.994   0.652
 7883TIP3    H247845   6.736   3.963   0.552
 7884TIP3   OH247846   6.387   5.358   0.336
 7884TIP3    H147847   6.382   5.438   0.283
 7884TIP3    H247848   6.369   5.387   0.425
 7885TIP3   OH247849   6.218   4.095   0.374
 7885TIP3    H147850   6.224   4.188   0.392
 7885TIP3    H247851   6.306   4.061   0.390
 7886TIP3   OH247852   7.226   4.144   1.542
 7886TIP3    H147853   7.137   4.166   1.517
 7886TIP3    H247854   7.279   4.166   1.465
 7887TIP3   OH247855   7.066   4.550   0.868
 7887TIP3    H147856   6.980   4.511   0.848
 7887TIP3    H247857   7.105   4.491   0.932
 7888TIP3   OH247858   6.038   5.070   0.134
 7888TIP3    H147859   6.117   5.094   0.183
 7888TIP3    H247860   6.065   5.074   0.042
 7889TIP3   OH247861   5.874   4.444   0.066
 7889TIP3    H147862   5.867   4.534   0.099
 7889TIP3    H247863   5.791   4.429   0.020
 7890TIP3   OH247864   7.249   5.487   1.047
 7890TIP3    H147865   7.240   5.553   0.978
 7890TIP3    H247866   7.341   5.491   1.073
 7891TIP3   OH247867   5.990   3.847   0.964
 7891TIP3    H147868   5.980   3.847   0.869
 7891TIP3    H247869   5.965   3.759   0.991
 7892TIP3   OH247870   5.879   5.276   0.616
 7892TIP3    H147871   5.830   5.298   0.695
 7892TIP3    H247872   5.839   5.329   0.547
 7893TIP3   OH247873   5.794   5.541   1.758
 7893TIP3    H147874   5.850   5.508   1.828
 7893TIP3    H247875   5.749   5.463   1.725
 7894TIP3   OH247876   6.236   5.429   1.892
 7894TIP3    H147877   6.320   5.447   1.935
 7894TIP3    H247878   6.259   5.370   1.820
 7895TIP3   OH247879   6.754   5.387   0.055
 7895TIP3    H147880   6.708   5.332   0.118
 7895TIP3    H247881   6.847   5.368   0.069
 7896TIP3   OH247882   6.920   5.188   1.827
 7896TIP3    H147883   6.922   5.100   1.864
 7896TIP3    H247884   6.996   5.232   1.864
 7897TIP3   OH247885   7.023   5.351   0.100
 7897TIP3    H147886   7.049   5.267   0.138
 7897TIP3    H247887   7.094   5.373   0.040
 7898TIP3   OH247888   5.774   4.964   1.795
 7898TIP3    H147889   5.720   4.890   1.824
 7898TIP3    H247890   5.725   5.001   1.721
 7899TIP3   OH247891   6.323   4.797   9.965
 7899TIP3    H147892   6.314   4.779  10.058
 7899TIP3    H247893   6.404   4.847   9.957
 7900TIP3   OH247894   6.417   4.880   1.791
 7900TIP3    H147895   6.410   4.931   1.711
 7900TIP3    H247896   6.441   4.792   1.761
 7901TIP3   OH247897   7.021   4.983   1.456
 7901TIP3    H147898   7.113   5.000   1.436
 7901TIP3    H247899   6.990   5.065   1.495
 7902TIP3   OH247900   5.913   4.586   1.778
 7902TIP3    H147901   5.939   4.501   1.813
 7902TIP3    H247902   5.916   4.645   1.854
 7903TIP3   OH247903   6.319   4.685   0.221
 7903TIP3    H147904   6.249   4.667   0.284
 7903TIP3    H247905   6.376   4.608   0.225
 7904TIP3   OH247906   6.291   4.569   1.478
 7904TIP3    H147907   6.219   4.631   1.486
 7904TIP3    H247908   6.356   4.612   1.423
 7905TIP3   OH247909   6.510   4.479   0.226
 7905TIP3    H147910   6.531   4.387   0.210
 7905TIP3    H247911   6.589   4.527   0.201
 7906TIP3   OH247912   6.776   4.772   1.708
 7906TIP3    H147913   6.866   4.774   1.674
 7906TIP3    H247914   6.770   4.689   1.756
 7907TIP3   OH247915   7.356   4.732  10.033
 7907TIP3    H147916   7.348   4.652   9.980
 7907TIP3    H247917   7.416   4.788   9.983
 7908TIP3   OH247918   6.357   4.305   1.552
 7908TIP3    H147919   6.371   4.253   1.472
 7908TIP3    H247920   6.345   4.394   1.520
 7909TIP3   OH247921   6.390   4.147   1.326
 7909TIP3    H147922   6.431   4.189   1.250
 7909TIP3    H247923   6.303   4.122   1.295
 7910TIP3   OH247924   6.472   4.722   1.348
 7910TIP3    H147925   6.539   4.773   1.394
 7910TIP3    H247926   6.438   4.781   1.281
 7911TIP3   OH247927   6.859   4.526   1.841
 7911TIP3    H147928   6.863   4.450   1.898
 7911TIP3    H247929   6.923   4.587   1.877
 7912TIP3   OH247930   7.035   4.754   1.603
 7912TIP3    H147931   7.028   4.833   1.550
 7912TIP3    H247932   7.125   4.755   1.636
 7913TIP3   OH247933   6.210   4.312   1.786
 7913TIP3    H147934   6.118   4.285   1.783
 7913TIP3    H247935   6.241   4.304   1.696
 7914TIP3   OH247936   6.438   3.925   1.493
 7914TIP3    H147937   6.421   4.008   1.449
 7914TIP3    H247938   6.394   3.860   1.438
 7915TIP3   OH247939   6.547   4.214   1.738
 7915TIP3    H147940   6.496   4.181   1.812
 7915TIP3    H247941   6.482   4.236   1.672
 7916TIP3   OH247942   6.833   4.205   1.716
 7916TIP3    H147943   6.741   4.187   1.734
 7916TIP3    H247944   6.881   4.136   1.762
 7917TIP3   OH247945   6.988   4.012   1.849
 7917TIP3    H147946   6.982   3.916   1.855
 7917TIP3    H247947   6.951   4.043   1.931
 7918TIP3   OH247948   5.959   4.186   1.785
 7918TIP3    H147949   5.982   4.105   1.739
 7918TIP3    H247950   5.938   4.157   1.874
 7919TIP3   OH247951   6.398   3.782   1.729
 7919TIP3    H147952   6.456   3.708   1.712
 7919TIP3    H247953   6.408   3.839   1.653
 7920TIP3   OH247954   6.462   3.888   1.980
 7920TIP3    H147955   6.443   3.837   1.901
 7920TIP3    H247956   6.411   3.969   1.968
 7921TIP3   OH247957   6.410   5.572   0.164
 7921TIP3    H147958   6.498   5.608   0.172
 7921TIP3    H247959   6.359   5.641   0.122
 7922TIP3   OH247960   5.779   5.154   0.181
 7922TIP3    H147961   5.869   5.129   0.161
 7922TIP3    H247962   5.726   5.098   0.125
 7923TIP3   OH247963   5.706   5.593   0.683
 7923TIP3    H147964   5.641   5.564   0.619
 7923TIP3    H247965   5.718   5.517   0.741
 7924TIP3   OH247966   5.766   5.379   0.851
 7924TIP3    H147967   5.727   5.313   0.908
 7924TIP3    H247968   5.824   5.429   0.909
 7925TIP3   OH247969   7.506   5.533   1.146
 7925TIP3    H147970   7.538   5.471   1.211
 7925TIP3    H247971   7.521   5.619   1.185
 7926TIP3   OH247972   7.565   5.309   1.306
 7926TIP3    H147973   7.471   5.288   1.300
 7926TIP3    H247974   7.589   5.283   1.395
 7927TIP3   OH247975   7.342   5.042   1.981
 7927TIP3    H147976   7.270   5.060   2.041
 7927TIP3    H247977   7.412   5.101   2.010
 7928TIP3   OH247978   7.510   4.902   0.448
 7928TIP3    H147979   7.583   4.960   0.425
 7928TIP3    H247980   7.529   4.874   0.538
 7929TIP3   OH247981   7.512   4.686   0.702
 7929TIP3    H147982   7.420   4.668   0.682
 7929TIP3    H247983   7.517   4.689   0.797
 7930TIP3   OH247984   7.644   4.927   1.057
 7930TIP3    H147985   7.740   4.931   1.052
 7930TIP3    H247986   7.615   5.017   1.044
 7931TIP3   OH247987   7.299   5.252   1.279
 7931TIP3    H147988   7.237   5.294   1.338
 7931TIP3    H247989   7.253   5.246   1.195
 7932TIP3   OH247990   7.509   4.696   0.265
 7932TIP3    H147991   7.453   4.715   0.190
 7932TIP3    H247992   7.497   4.770   0.323
 7933TIP3   OH247993   7.277   4.340   0.148
 7933TIP3    H147994   7.241   4.375   0.066
 7933TIP3    H247995   7.285   4.246   0.132
 7934TIP3   OH247996   7.249   4.593   0.665
 7934TIP3    H147997   7.231   4.511   0.619
 7934TIP3    H247998   7.191   4.592   0.741
 7935TIP3   OH247999   5.720   4.657   1.113
 7935TIP3    H148000   5.741   4.690   1.025
 7935TIP3    H248001   5.804   4.655   1.158
 7936TIP3   OH248002   7.309   4.753   1.664
 7936TIP3    H148003   7.352   4.670   1.642
 7936TIP3    H248004   7.370   4.820   1.632
 7937TIP3   OH248005   7.421   4.505   1.607
 7937TIP3    H148006   7.344   4.467   1.649
 7937TIP3    H248007   7.486   4.434   1.606
 7938TIP3   OH248008   7.313   4.072   0.090
 7938TIP3    H148009   7.404   4.060   0.118
 7938TIP3    H248010   7.271   3.988   0.110
 7939TIP3   OH248011   7.197   4.361   0.509
 7939TIP3    H148012   7.227   4.271   0.527
 7939TIP3    H248013   7.266   4.397   0.453
 7940TIP3   OH248014   7.204   4.371   1.031
 7940TIP3    H148015   7.297   4.355   1.011
 7940TIP3    H248016   7.203   4.392   1.124
 7941TIP3   OH248017   7.236   4.453   1.297
 7941TIP3    H148018   7.161   4.481   1.349
 7941TIP3    H248019   7.279   4.535   1.271
 7942TIP3   OH248020   5.747   4.237   1.617
 7942TIP3    H148021   5.817   4.237   1.682
 7942TIP3    H248022   5.688   4.167   1.645
 7943TIP3   OH248023   7.546   3.848   1.798
 7943TIP3    H148024   7.622   3.799   1.765
 7943TIP3    H248025   7.550   3.932   1.752
 7944TIP3   OH248026   7.262   4.099   0.564
 7944TIP3    H148027   7.286   4.057   0.647
 7944TIP3    H248028   7.207   4.035   0.520
 7945TIP3   OH248029   5.879   4.093   1.037
 7945TIP3    H148030   5.918   4.007   1.023
 7945TIP3    H248031   5.953   4.154   1.033
 7946TIP3   OH248032   5.666   4.415   0.985
 7946TIP3    H148033   5.750   4.418   0.938
 7946TIP3    H248034   5.668   4.492   1.043
 7947TIP3   OH248035   7.439   4.088   1.706
 7947TIP3    H148036   7.397   4.077   1.791
 7947TIP3    H248037   7.366   4.097   1.645
 7948TIP3   OH248038   7.562   4.043   0.216
 7948TIP3    H148039   7.636   3.984   0.230
 7948TIP3    H248040   7.602   4.128   0.198
 7949TIP3   OH248041   5.683   4.008   0.379
 7949TIP3    H148042   5.606   4.033   0.432
 7949TIP3    H248043   5.698   4.084   0.322
 7950TIP3   OH248044   7.132   5.534   0.695
 7950TIP3    H148045   7.209   5.512   0.643
 7950TIP3    H248046   7.165   5.595   0.761
 7951TIP3   OH248047   5.720   3.835   1.294
 7951TIP3    H148048   5.663   3.826   1.370
 7951TIP3    H248049   5.689   3.913   1.249
 7952TIP3   OH248050   5.977   5.237   1.701
 7952TIP3    H148051   5.887   5.268   1.708
 7952TIP3    H248052   6.001   5.211   1.790
 7953TIP3   OH248053   6.294   5.374   1.396
 7953TIP3    H148054   6.255   5.459   1.374
 7953TIP3    H248055   6.383   5.379   1.363
 7954TIP3   OH248056   6.590   5.478   1.677
 7954TIP3    H148057   6.611   5.423   1.752
 7954TIP3    H248058   6.672   5.524   1.657
 7955TIP3   OH248059   6.820   5.605   1.596
 7955TIP3    H148060   6.863   5.567   1.520
 7955TIP3    H248061   6.891   5.615   1.660
 7956TIP3   OH248062   7.363   3.773   1.415
 7956TIP3    H148063   7.278   3.756   1.375
 7956TIP3    H248064   7.407   3.688   1.416
 7957TIP3   OH248065   5.944   5.618   1.401
 7957TIP3    H148066   5.864   5.656   1.365
 7957TIP3    H248067   5.951   5.657   1.488
 7958TIP3   OH248068   6.209   5.628   1.323
 7958TIP3    H148069   6.117   5.625   1.347
 7958TIP3    H248070   6.210   5.664   1.234
 7959TIP3   OH248071   6.682   5.621   1.237
 7959TIP3    H148072   6.628   5.646   1.162
 7959TIP3    H248073   6.680   5.697   1.295
 7960TIP3   OH248074   6.915   5.516   1.344
 7960TIP3    H148075   6.838   5.549   1.297
 7960TIP3    H248076   6.988   5.567   1.308
 7961TIP3   OH248077   7.149   5.631   1.259
 7961TIP3    H148078   7.147   5.715   1.212
 7961TIP3    H248079   7.181   5.569   1.194
 7962TIP3   OH248080   5.940   5.498   1.034
 7962TIP3    H148081   5.926   5.458   1.120
 7962TIP3    H248082   6.021   5.459   1.002
 7963TIP3   OH248083   6.163   5.378   0.936
 7963TIP3    H148084   6.160   5.282   0.927
 7963TIP3    H248085   6.248   5.395   0.978
 7964TIP3   OH248086   6.416   5.398   1.053
 7964TIP3    H148087   6.435   5.314   1.011
 7964TIP3    H248088   6.456   5.391   1.140
 7965TIP3   OH248089   6.695   3.958   0.959
 7965TIP3    H148090   6.624   3.898   0.982
 7965TIP3    H248091   6.767   3.901   0.930
 7966TIP3   OH248092   7.207   3.808   0.891
 7966TIP3    H148093   7.269   3.868   0.850
 7966TIP3    H248094   7.180   3.853   0.972
 7967TIP3   OH248095   7.400   3.966   0.767
 7967TIP3    H148096   7.454   3.895   0.731
 7967TIP3    H248097   7.463   4.032   0.794
 7968TIP3   OH248098   5.956   3.822   0.688
 7968TIP3    H148099   5.864   3.799   0.679
 7968TIP3    H248100   6.003   3.740   0.674
 7969TIP3   OH248101   5.816   3.792   0.279
 7969TIP3    H148102   5.904   3.828   0.264
 7969TIP3    H248103   5.767   3.863   0.319
 7970TIP3   OH248104   6.480   3.742   0.724
 7970TIP3    H148105   6.542   3.804   0.684
 7970TIP3    H248106   6.485   3.761   0.818
 7971TIP3   OH248107   6.911   3.801   0.903
 7971TIP3    H148108   7.002   3.810   0.876
 7971TIP3    H248109   6.904   3.711   0.935
 7972TIP3   OH248110   7.120   3.918   0.417
 7972TIP3    H148111   7.039   3.970   0.414
 7972TIP3    H248112   7.090   3.828   0.433
 7973TIP3   OH248113   5.766   5.428   0.421
 7973TIP3    H148114   5.671   5.438   0.431
 7973TIP3    H248115   5.798   5.515   0.399
 7974TIP3   OH248116   6.066   3.900   0.236
 7974TIP3    H148117   6.132   3.882   0.169
 7974TIP3    H248118   6.106   3.967   0.292
 7975TIP3   OH248119   6.487   4.048   0.397
 7975TIP3    H148120   6.532   3.978   0.444
 7975TIP3    H248121   6.510   4.128   0.444
 7976TIP3   OH248122   6.687   5.621   0.186
 7976TIP3    H148123   6.775   5.658   0.187
 7976TIP3    H248124   6.695   5.541   0.133
 7977TIP3   OH248125   7.346   5.497   0.520
 7977TIP3    H148126   7.349   5.411   0.480
 7977TIP3    H248127   7.334   5.558   0.447
 7978TIP3   OH248128   6.021   3.974   1.620
 7978TIP3    H148129   6.003   3.935   1.535
 7978TIP3    H248130   6.055   3.902   1.673
 7979TIP3   OH248131   6.120   3.745   1.742
 7979TIP3    H148132   6.215   3.751   1.749
 7979TIP3    H248133   6.105   3.689   1.666
 7980TIP3   OH248134   5.905   5.446   0.149
 7980TIP3    H148135   5.892   5.522   0.206
 7980TIP3    H248136   5.883   5.371   0.205
 7981TIP3   OH248137   7.050   3.728   1.815
 7981TIP3    H148138   7.077   3.646   1.856
 7981TIP3    H248139   7.130   3.762   1.775
 7982TIP3   OH248140   7.342   5.341   1.618
 7982TIP3    H148141   7.265   5.331   1.562
 7982TIP3    H248142   7.330   5.426   1.661
 7983TIP3   OH248143   7.595   4.460   0.562
 7983TIP3    H148144   7.571   4.541   0.607
 7983TIP3    H248145   7.530   4.450   0.493
 7984TIP3   OH248146   7.630   4.883   1.333
 7984TIP3    H148147   7.616   4.897   1.239
 7984TIP3    H248148   7.605   4.792   1.348
 7985TIP3   OH248149   7.628   5.204   1.055
 7985TIP3    H148150   7.723   5.215   1.045
 7985TIP3    H248151   7.608   5.240   1.141
 7986TIP3   OH248152   7.560   4.235   0.724
 7986TIP3    H148153   7.584   4.321   0.688
 7986TIP3    H248154   7.546   4.180   0.647
 7987TIP3   OH248155   7.562   4.628   1.405
 7987TIP3    H148156   7.516   4.588   1.478
 7987TIP3    H248157   7.499   4.624   1.332
 7988TIP3   OH248158   7.711   4.832   1.714
 7988TIP3    H148159   7.704   4.771   1.787
 7988TIP3    H248160   7.621   4.855   1.693
 7989TIP3   OH248161   7.535   5.607   0.689
 7989TIP3    H148162   7.468   5.569   0.632
 7989TIP3    H248163   7.541   5.546   0.763
 7990TIP3   OH248164   7.556   5.431   0.896
 7990TIP3    H148165   7.569   5.340   0.922
 7990TIP3    H248166   7.544   5.477   0.979
 7991TIP3   OH248167   7.561   4.678   0.976
 7991TIP3    H148168   7.584   4.768   1.001
 7991TIP3    H248169   7.640   4.628   0.992
 7992TIP3   OH248170   7.581   4.284   1.571
 7992TIP3    H148171   7.676   4.282   1.584
 7992TIP3    H248172   7.548   4.215   1.628
 7993TIP3   OH248173   7.469   4.305   0.974
 7993TIP3    H148174   7.496   4.278   0.886
 7993TIP3    H248175   7.537   4.365   1.003
 7994TIP3   OH248176   7.519   4.116   0.480
 7994TIP3    H148177   7.426   4.114   0.500
 7994TIP3    H248178   7.523   4.104   0.385
 7995TIP3   OH248179   7.537   3.897   1.229
 7995TIP3    H148180   7.489   3.872   1.307
 7995TIP3    H248181   7.482   3.964   1.187
 7996TIP3   OH248182   1.185   6.683   0.647
 7996TIP3    H148183   1.149   6.770   0.664
 7996TIP3    H248184   1.128   6.646   0.581
 7997TIP3   OH248185   1.102   6.585   1.052
 7997TIP3    H148186   1.127   6.538   1.131
 7997TIP3    H248187   1.049   6.523   1.003
 7998TIP3   OH248188   0.312   6.507   1.163
 7998TIP3    H148189   0.321   6.444   1.235
 7998TIP3    H248190   0.400   6.517   1.129
 7999TIP3   OH248191   1.445   6.898   0.878
 7999TIP3    H148192   1.424   6.816   0.924
 7999TIP3    H248193   1.473   6.957   0.948
 8000TIP3   OH248194   0.472   6.931   1.060
 8000TIP3    H148195   0.464   6.873   0.984
 8000TIP3    H248196   0.563   6.958   1.061
 8001TIP3   OH248197   0.152   6.424   0.506
 8001TIP3    H148198   0.166   6.481   0.581
 8001TIP3    H248199   0.062   6.392   0.516
 8002TIP3   OH248200   0.234   6.559   0.736
 8002TIP3    H148201   0.251   6.484   0.794
 8002TIP3    H248202   0.294   6.627   0.767
 8003TIP3   OH248203   1.130   7.263   0.888
 8003TIP3    H148204   1.200   7.235   0.829
 8003TIP3    H248205   1.145   7.214   0.969
 8004TIP3   OH248206   0.974   6.833   1.078
 8004TIP3    H148207   1.020   6.754   1.049
 8004TIP3    H248208   1.032   6.872   1.143
 8005TIP3   OH248209   1.852   5.921   1.130
 8005TIP3    H148210   1.830   5.995   1.186
 8005TIP3    H248211   1.915   5.955   1.068
 8006TIP3   OH248212   1.226   6.222   1.071
 8006TIP3    H148213   1.213   6.138   1.115
 8006TIP3    H248214   1.188   6.210   0.984
 8007TIP3   OH248215   0.613   6.065   0.802
 8007TIP3    H148216   0.616   6.147   0.753
 8007TIP3    H248217   0.574   6.002   0.741
 8008TIP3   OH248218   1.346   6.103   0.679
 8008TIP3    H148219   1.397   6.074   0.754
 8008TIP3    H248220   1.407   6.154   0.626
 8009TIP3   OH248221   0.292   6.324   0.874
 8009TIP3    H148222   0.346   6.269   0.931
 8009TIP3    H248223   0.306   6.289   0.786
 8010TIP3   OH248224   0.716   6.467   0.844
 8010TIP3    H148225   0.797   6.430   0.879
 8010TIP3    H248226   0.683   6.400   0.784
 8011TIP3   OH248227   1.785   6.101   1.323
 8011TIP3    H148228   1.737   6.183   1.329
 8011TIP3    H248229   1.848   6.104   1.395
 8012TIP3   OH248230   0.491   5.989   1.236
 8012TIP3    H148231   0.464   6.039   1.159
 8012TIP3    H248232   0.417   5.998   1.297
 8013TIP3   OH248233   1.077   6.951   0.634
 8013TIP3    H148234   1.171   6.962   0.625
 8013TIP3    H248235   1.043   7.040   0.645
 8014TIP3   OH248236   0.741   6.733   1.185
 8014TIP3    H148237   0.702   6.805   1.234
 8014TIP3    H248238   0.817   6.772   1.142
 8015TIP3   OH248239   1.497   6.046   0.899
 8015TIP3    H148240   1.456   5.994   0.968
 8015TIP3    H248241   1.553   6.107   0.946
 8016TIP3   OH248242   0.460   6.152   1.013
 8016TIP3    H148243   0.520   6.206   1.064
 8016TIP3    H248244   0.515   6.112   0.945
 8017TIP3   OH248245   0.642   6.945   1.329
 8017TIP3    H148246   0.639   7.041   1.332
 8017TIP3    H248247   0.560   6.918   1.371
 8018TIP3   OH248248   0.061   6.896   0.405
 8018TIP3    H148249   0.084   6.911   0.313
 8018TIP3    H248250   0.082   6.978   0.449
 8019TIP3   OH248251   1.485   7.104   1.071
 8019TIP3    H148252   1.391   7.119   1.073
 8019TIP3    H248253   1.522   7.186   1.038
 8020TIP3   OH248254   1.613   5.800   1.225
 8020TIP3    H148255   1.539   5.831   1.173
 8020TIP3    H248256   1.690   5.837   1.183
 8021TIP3   OH248257   0.821   5.637   1.022
 8021TIP3    H148258   0.797   5.545   1.036
 8021TIP3    H248259   0.741   5.686   1.043
 8022TIP3   OH248260   1.324   7.223   0.699
 8022TIP3    H148261   1.350   7.134   0.676
 8022TIP3    H248262   1.404   7.274   0.696
 8023TIP3   OH248263   1.361   6.962   0.628
 8023TIP3    H148264   1.426   6.928   0.567
 8023TIP3    H248265   1.390   6.931   0.714
 8024TIP3   OH248266   1.627   6.888   1.410
 8024TIP3    H148267   1.621   6.836   1.330
 8024TIP3    H248268   1.633   6.979   1.379
 8025TIP3   OH248269   1.062   6.577   0.422
 8025TIP3    H148270   1.010   6.644   0.379
 8025TIP3    H248271   1.139   6.567   0.367
 8026TIP3   OH248272   1.105   6.462   0.095
 8026TIP3    H148273   1.174   6.473   0.159
 8026TIP3    H248274   1.127   6.381   0.049
 8027TIP3   OH248275   1.739   6.555   1.322
 8027TIP3    H148276   1.686   6.621   1.278
 8027TIP3    H248277   1.823   6.558   1.277
 8028TIP3   OH248278   1.423   6.608   0.534
 8028TIP3    H148279   1.347   6.635   0.585
 8028TIP3    H248280   1.478   6.559   0.596
 8029TIP3   OH248281   1.367   6.392   1.448
 8029TIP3    H148282   1.366   6.455   1.521
 8029TIP3    H248283   1.302   6.426   1.387
 8030TIP3   OH248284   0.654   6.687   0.683
 8030TIP3    H148285   0.624   6.651   0.600
 8030TIP3    H248286   0.685   6.611   0.732
 8031TIP3   OH248287   0.743   6.972   0.981
 8031TIP3    H148288   0.746   6.993   0.887
 8031TIP3    H248289   0.827   6.930   0.999
 8032TIP3   OH248290   0.572   6.558   1.059
 8032TIP3    H148291   0.627   6.525   0.989
 8032TIP3    H248292   0.628   6.620   1.106
 8033TIP3   OH248293   1.212   7.129   1.124
 8033TIP3    H148294   1.219   7.200   1.188
 8033TIP3    H248295   1.186   7.053   1.176
 8034TIP3   OH248296   0.796   6.947   1.556
 8034TIP3    H148297   0.732   7.006   1.595
 8034TIP3    H248298   0.761   6.927   1.470
 8035TIP3   OH248299   1.305   6.533   0.294
 8035TIP3    H148300   1.350   6.565   0.373
 8035TIP3    H248301   1.361   6.562   0.222
 8036TIP3   OH248302   0.459   6.556   1.499
 8036TIP3    H148303   0.463   6.615   1.574
 8036TIP3    H248304   0.368   6.560   1.469
 8037TIP3   OH248305   0.964   7.210   0.670
 8037TIP3    H148306   1.006   7.241   0.750
 8037TIP3    H248307   0.955   7.288   0.616
 8038TIP3   OH248308   0.603   7.125   1.639
 8038TIP3    H148309   0.620   7.171   1.557
 8038TIP3    H248310   0.508   7.127   1.649
 8039TIP3   OH248311   1.642   5.686   0.338
 8039TIP3    H148312   1.561   5.718   0.379
 8039TIP3    H248313   1.702   5.760   0.343
 8040TIP3   OH248314   0.542   6.600   0.436
 8040TIP3    H148315   0.469   6.661   0.430
 8040TIP3    H248316   0.501   6.514   0.442
 8041TIP3   OH248317   1.832   7.128   0.245
 8041TIP3    H148318   1.822   7.189   0.172
 8041TIP3    H248319   1.909   7.076   0.223
 8042TIP3   OH248320   0.167   6.812   1.362
 8042TIP3    H148321   0.073   6.828   1.368
 8042TIP3    H248322   0.179   6.723   1.396
 8043TIP3   OH248323   0.163   7.056   1.041
 8043TIP3    H148324   0.164   7.006   0.960
 8043TIP3    H248325   0.200   7.141   1.016
 8044TIP3   OH248326   1.861   7.166   1.651
 8044TIP3    H148327   1.854   7.072   1.631
 8044TIP3    H248328   1.779   7.187   1.697
 8045TIP3   OH248329   1.002   7.132   1.505
 8045TIP3    H148330   0.983   7.209   1.557
 8045TIP3    H248331   0.935   7.068   1.530
 8046TIP3   OH248332   0.990   7.443   0.503
 8046TIP3    H148333   0.979   7.464   0.410
 8046TIP3    H248334   0.968   7.524   0.549
 8047TIP3   OH248335   0.393   7.327   0.632
 8047TIP3    H148336   0.437   7.289   0.708
 8047TIP3    H248337   0.347   7.254   0.591
 8048TIP3   OH248338   1.371   7.426   0.298
 8048TIP3    H148339   1.381   7.376   0.217
 8048TIP3    H248340   1.316   7.372   0.354
 8049TIP3   OH248341   1.202   7.280   0.456
 8049TIP3    H148342   1.129   7.338   0.481
 8049TIP3    H248343   1.239   7.252   0.540
 8050TIP3   OH248344   1.656   6.267   1.637
 8050TIP3    H148345   1.594   6.275   1.710
 8050TIP3    H248346   1.629   6.188   1.591
 8051TIP3   OH248347   0.416   6.874   1.458
 8051TIP3    H148348   0.435   6.840   1.545
 8051TIP3    H248349   0.321   6.860   1.448
 8052TIP3   OH248350   0.586   5.774   1.086
 8052TIP3    H148351   0.521   5.777   1.016
 8052TIP3    H248352   0.568   5.852   1.139
 8053TIP3   OH248353   1.026   5.827   1.405
 8053TIP3    H148354   1.070   5.786   1.479
 8053TIP3    H248355   0.933   5.826   1.430
 8054TIP3   OH248356   1.325   6.117   1.451
 8054TIP3    H148357   1.265   6.100   1.524
 8054TIP3    H248358   1.338   6.212   1.453
 8055TIP3   OH248359   1.469   6.591   0.087
 8055TIP3    H148360   1.433   6.607  -0.000
 8055TIP3    H248361   1.550   6.641   0.089
 8056TIP3   OH248362   0.929   6.043   0.148
 8056TIP3    H148363   0.897   5.986   0.218
 8056TIP3    H248364   0.857   6.046   0.085
 8057TIP3   OH248365   0.599   6.313   1.192
 8057TIP3    H148366   0.529   6.307   1.257
 8057TIP3    H248367   0.596   6.404   1.162
 8058TIP3   OH248368   0.599   6.300   0.657
 8058TIP3    H148369   0.504   6.291   0.650
 8058TIP3    H248370   0.631   6.274   0.571
 8059TIP3   OH248371   1.089   6.332   0.551
 8059TIP3    H148372   1.068   6.420   0.518
 8059TIP3    H248373   1.166   6.306   0.501
 8060TIP3   OH248374   1.034   6.357   1.708
 8060TIP3    H148375   0.982   6.282   1.738
 8060TIP3    H248376   1.118   6.346   1.751
 8061TIP3   OH248377   1.133   6.228   0.807
 8061TIP3    H148378   1.105   6.280   0.731
 8061TIP3    H248379   1.201   6.171   0.773
 8062TIP3   OH248380   0.373   6.306   1.350
 8062TIP3    H148381   0.373   6.345   1.437
 8062TIP3    H248382   0.330   6.221   1.362
 8063TIP3   OH248383   0.649   6.047   0.063
 8063TIP3    H148384   0.605   6.004   0.136
 8063TIP3    H248385   0.657   6.138   0.089
 8064TIP3   OH248386   0.182   6.032   0.669
 8064TIP3    H148387   0.093   6.045   0.703
 8064TIP3    H248388   0.169   5.994   0.582
 8065TIP3   OH248389   0.181   6.070   0.171
 8065TIP3    H148390   0.247   6.009   0.139
 8065TIP3    H248391   0.166   6.130   0.097
 8066TIP3   OH248392   1.152   6.409   1.261
 8066TIP3    H148393   1.183   6.346   1.196
 8066TIP3    H248394   1.104   6.356   1.325
 8067TIP3   OH248395   0.876   5.990   0.746
 8067TIP3    H148396   0.790   6.009   0.783
 8067TIP3    H248397   0.923   5.946   0.817
 8068TIP3   OH248398   0.336   6.249   0.615
 8068TIP3    H148399   0.275   6.298   0.560
 8068TIP3    H248400   0.294   6.164   0.626
 8069TIP3   OH248401   0.661   6.211   0.405
 8069TIP3    H148402   0.752   6.192   0.429
 8069TIP3    H248403   0.667   6.250   0.318
 8070TIP3   OH248404   1.387   5.865   1.075
 8070TIP3    H148405   1.324   5.907   1.134
 8070TIP3    H248406   1.335   5.801   1.026
 8071TIP3   OH248407   0.642   6.305   0.149
 8071TIP3    H148408   0.554   6.338   0.134
 8071TIP3    H248409   0.700   6.374   0.117
 8072TIP3   OH248410   1.590   7.543   1.736
 8072TIP3    H148411   1.580   7.554   1.641
 8072TIP3    H248412   1.682   7.563   1.753
 8073TIP3   OH248413   0.425   6.744   1.702
 8073TIP3    H148414   0.465   6.764   1.786
 8073TIP3    H248415   0.331   6.738   1.720
 8074TIP3   OH248416   0.941   6.358   0.967
 8074TIP3    H148417   1.002   6.304   0.916
 8074TIP3    H248418   0.921   6.305   1.044
 8075TIP3   OH248419   0.512   5.911   0.599
 8075TIP3    H148420   0.453   5.839   0.620
 8075TIP3    H248421   0.506   5.921   0.504
 8076TIP3   OH248422   0.864   6.226   1.209
 8076TIP3    H148423   0.778   6.269   1.210
 8076TIP3    H248424   0.907   6.257   1.289
 8077TIP3   OH248425   0.925   6.786   0.306
 8077TIP3    H148426   0.846   6.769   0.255
 8077TIP3    H248427   0.893   6.829   0.386
 8078TIP3   OH248428   1.600   6.743   1.177
 8078TIP3    H148429   1.670   6.778   1.122
 8078TIP3    H248430   1.530   6.722   1.116
 8079TIP3   OH248431   1.178   6.050   0.270
 8079TIP3    H148432   1.094   6.070   0.228
 8079TIP3    H248433   1.214   6.136   0.293
 8080TIP3   OH248434   1.044   6.811   1.531
 8080TIP3    H148435   1.076   6.769   1.611
 8080TIP3    H248436   0.958   6.845   1.555
 8081TIP3   OH248437   1.305   6.272   0.387
 8081TIP3    H148438   1.392   6.251   0.421
 8081TIP3    H248439   1.316   6.357   0.344
 8082TIP3   OH248440   0.440   6.717   0.871
 8082TIP3    H148441   0.503   6.728   0.799
 8082TIP3    H248442   0.482   6.656   0.931
 8083TIP3   OH248443   1.140   6.911   0.177
 8083TIP3    H148444   1.115   7.000   0.199
 8083TIP3    H248445   1.076   6.856   0.223
 8084TIP3   OH248446   0.182   6.561   1.477
 8084TIP3    H148447   0.197   6.522   1.563
 8084TIP3    H248448   0.090   6.541   1.457
 8085TIP3   OH248449   0.836   6.545   1.734
 8085TIP3    H148450   0.777   6.511   1.666
 8085TIP3    H248451   0.918   6.497   1.720
 8086TIP3   OH248452   1.257   7.049   1.574
 8086TIP3    H148453   1.169   7.063   1.540
 8086TIP3    H248454   1.247   7.051   1.669
 8087TIP3   OH248455   1.758   6.325   0.359
 8087TIP3    H148456   1.691   6.317   0.291
 8087TIP3    H248457   1.789   6.415   0.351
 8088TIP3   OH248458   1.854   6.902   1.568
 8088TIP3    H148459   1.767   6.892   1.530
 8088TIP3    H248460   1.911   6.851   1.510
 8089TIP3   OH248461   1.623   7.105   0.422
 8089TIP3    H148462   1.600   7.013   0.436
 8089TIP3    H248463   1.693   7.103   0.357
 8090TIP3   OH248464   1.383   6.659   1.011
 8090TIP3    H148465   1.288   6.655   1.018
 8090TIP3    H248466   1.409   6.571   0.985
 8091TIP3   OH248467   0.727   7.077   0.724
 8091TIP3    H148468   0.800   7.137   0.707
 8091TIP3    H248469   0.727   7.017   0.650
 8092TIP3   OH248470   0.254   6.528   0.271
 8092TIP3    H148471   0.276   6.611   0.312
 8092TIP3    H248472   0.209   6.478   0.340
 8093TIP3   OH248473   0.821   6.871   0.551
 8093TIP3    H148474   0.907   6.886   0.591
 8093TIP3    H248475   0.779   6.807   0.608
 8094TIP3   OH248476   0.903   7.242   1.272
 8094TIP3    H148477   0.953   7.321   1.253
 8094TIP3    H248478   0.954   7.196   1.338
 8095TIP3   OH248479   0.657   7.343   0.524
 8095TIP3    H148480   0.564   7.348   0.547
 8095TIP3    H248481   0.701   7.383   0.599
 8096TIP3   OH248482   1.156   6.897   1.288
 8096TIP3    H148483   1.107   6.877   1.367
 8096TIP3    H248484   1.242   6.857   1.301
 8097TIP3   OH248485   1.410   6.986   0.154
 8097TIP3    H148486   1.452   6.955   0.234
 8097TIP3    H248487   1.322   6.949   0.157
 8098TIP3   OH248488   1.408   7.257   1.489
 8098TIP3    H148489   1.362   7.180   1.522
 8098TIP3    H248490   1.351   7.290   1.419
 8099TIP3   OH248491   1.817   7.350   0.078
 8099TIP3    H148492   1.896   7.403   0.069
 8099TIP3    H248493   1.765   7.397   0.144
 8100TIP3   OH248494   0.268   6.049   1.391
 8100TIP3    H148495   0.245   6.041   1.484
 8100TIP3    H248496   0.210   5.988   1.346
 8101TIP3   OH248497   1.559   6.838   0.462
 8101TIP3    H148498   1.509   6.758   0.476
 8101TIP3    H248499   1.649   6.814   0.482
 8102TIP3   OH248500   0.300   7.129   1.342
 8102TIP3    H148501   0.283   7.223   1.332
 8102TIP3    H248502   0.320   7.118   1.434
 8103TIP3   OH248503   0.657   6.990   0.361
 8103TIP3    H148504   0.709   6.946   0.428
 8103TIP3    H248505   0.705   7.071   0.343
 8104TIP3   OH248506   0.317   6.761   0.398
 8104TIP3    H148507   0.234   6.798   0.428
 8104TIP3    H248508   0.355   6.829   0.343
 8105TIP3   OH248509   1.204   5.987   1.241
 8105TIP3    H148510   1.250   6.032   1.312
 8105TIP3    H248511   1.135   5.938   1.284
 8106TIP3   OH248512   1.205   5.926   0.514
 8106TIP3    H148513   1.196   5.968   0.428
 8106TIP3    H248514   1.243   5.995   0.570
 8107TIP3   OH248515   1.057   7.161   0.251
 8107TIP3    H148516   0.967   7.176   0.279
 8107TIP3    H248517   1.111   7.196   0.322
 8108TIP3   OH248518   0.900   6.137   0.517
 8108TIP3    H148519   0.967   6.205   0.528
 8108TIP3    H248520   0.896   6.094   0.602
 8109TIP3   OH248521   1.022   6.255   1.448
 8109TIP3    H148522   1.017   6.308   1.527
 8109TIP3    H248523   1.048   6.168   1.478
 8110TIP3   OH248524   0.974   5.793   0.578
 8110TIP3    H148525   0.936   5.858   0.638
 8110TIP3    H248526   1.061   5.828   0.559
 8111TIP3   OH248527   0.795   7.225   0.321
 8111TIP3    H148528   0.779   7.282   0.245
 8111TIP3    H248529   0.752   7.269   0.394
 8112TIP3   OH248530   0.561   5.964   0.318
 8112TIP3    H148531   0.564   6.052   0.355
 8112TIP3    H248532   0.648   5.928   0.336
 8113TIP3   OH248533   1.581   6.030   1.506
 8113TIP3    H148534   1.490   6.045   1.482
 8113TIP3    H248535   1.628   6.027   1.423
 8114TIP3   OH248536   1.433   6.388   0.954
 8114TIP3    H148537   1.356   6.341   0.986
 8114TIP3    H248538   1.507   6.338   0.988
 8115TIP3   OH248539   0.432   6.937   0.218
 8115TIP3    H148540   0.502   6.967   0.276
 8115TIP3    H248541   0.476   6.913   0.137
 8116TIP3   OH248542   0.375   6.353   0.097
 8116TIP3    H148543   0.344   6.416   0.162
 8116TIP3    H248544   0.296   6.316   0.059
 8117TIP3   OH248545   1.604   7.350   1.024
 8117TIP3    H148546   1.580   7.432   0.980
 8117TIP3    H248547   1.698   7.359   1.041
 8118TIP3   OH248548   0.371   5.782   0.913
 8118TIP3    H148549   0.364   5.774   0.817
 8118TIP3    H248550   0.341   5.697   0.946
 8119TIP3   OH248551   0.145   7.144   0.508
 8119TIP3    H148552   0.110   7.185   0.587
 8119TIP3    H248553   0.137   7.211   0.440
 8120TIP3   OH248554   0.166   7.397   1.631
 8120TIP3    H148555   0.223   7.420   1.705
 8120TIP3    H248556   0.077   7.409   1.664
 8121TIP3   OH248557   0.606   7.411   1.880
 8121TIP3    H148558   0.663   7.442   1.950
 8121TIP3    H248559   0.656   7.424   1.800
 8122TIP3   OH248560   1.134   7.304   0.023
 8122TIP3    H148561   1.094   7.241   0.084
 8122TIP3    H248562   1.228   7.293   0.035
 8123TIP3   OH248563   1.233   7.073   1.847
 8123TIP3    H148564   1.234   6.992   1.898
 8123TIP3    H248565   1.309   7.122   1.878
 8124TIP3   OH248566   1.396   7.256   0.086
 8124TIP3    H148567   1.404   7.165   0.115
 8124TIP3    H248568   1.467   7.267   0.023
 8125TIP3   OH248569   0.160   6.743   1.776
 8125TIP3    H148570   0.160   6.667   1.834
 8125TIP3    H248571   0.068   6.758   1.755
 8126TIP3   OH248572   0.578   6.840   0.001
 8126TIP3    H148573   0.622   6.793   0.072
 8126TIP3    H248574   0.646   6.893  -0.039
 8127TIP3   OH248575   0.763   6.804   1.789
 8127TIP3    H148576   0.775   6.842   1.702
 8127TIP3    H248577   0.793   6.714   1.781
 8128TIP3   OH248578   1.375   6.813   1.491
 8128TIP3    H148579   1.465   6.840   1.471
 8128TIP3    H248580   1.332   6.894   1.521
 8129TIP3   OH248581   0.257   6.441   1.714
 8129TIP3    H148582   0.340   6.400   1.737
 8129TIP3    H248583   0.216   6.464   1.798
 8130TIP3   OH248584   0.688   6.683   0.199
 8130TIP3    H148585   0.646   6.650   0.278
 8130TIP3    H248586   0.732   6.607   0.161
 8131TIP3   OH248587   0.700   6.431   1.522
 8131TIP3    H148588   0.616   6.473   1.507
 8131TIP3    H248589   0.754   6.456   1.446
 8132TIP3   OH248590   0.829   6.485   0.063
 8132TIP3    H148591   0.839   6.463  -0.030
 8132TIP3    H248592   0.919   6.484   0.097
 8133TIP3   OH248593   1.149   6.681   1.778
 8133TIP3    H148594   1.229   6.648   1.737
 8133TIP3    H248595   1.124   6.614   1.841
 8134TIP3   OH248596   1.713   6.709   0.078
 8134TIP3    H148597   1.769   6.662   0.017
 8134TIP3    H248598   1.726   6.801   0.055
 8135TIP3   OH248599   0.685   6.181   1.630
 8135TIP3    H148600   0.692   6.123   1.554
 8135TIP3    H248601   0.697   6.269   1.594
 8136TIP3   OH248602   0.716   6.049   1.381
 8136TIP3    H148603   0.776   6.091   1.321
 8136TIP3    H248604   0.636   6.036   1.330
 8137TIP3   OH248605   0.854   6.516   1.313
 8137TIP3    H148606   0.948   6.525   1.300
 8137TIP3    H248607   0.816   6.592   1.269
 8138TIP3   OH248608   1.235   6.290   1.882
 8138TIP3    H148609   1.224   6.208   1.930
 8138TIP3    H248610   1.329   6.294   1.864
 8139TIP3   OH248611   1.396   6.598   1.657
 8139TIP3    H148612   1.381   6.674   1.601
 8139TIP3    H248613   1.489   6.577   1.645
 8140TIP3   OH248614   0.478   6.285   1.790
 8140TIP3    H148615   0.424   6.209   1.811
 8140TIP3    H248616   0.547   6.249   1.734
 8141TIP3   OH248617   0.752   5.786   1.456
 8141TIP3    H148618   0.731   5.877   1.437
 8141TIP3    H248619   0.685   5.736   1.409
 8142TIP3   OH248620   0.911   6.127   1.793
 8142TIP3    H148621   0.899   6.088   1.879
 8142TIP3    H248622   0.823   6.128   1.755
 8143TIP3   OH248623   1.146   6.066   1.652
 8143TIP3    H148624   1.064   6.076   1.700
 8143TIP3    H248625   1.208   6.030   1.716
 8144TIP3   OH248626   1.314   5.959   1.854
 8144TIP3    H148627   1.308   5.865   1.840
 8144TIP3    H248628   1.266   5.974   1.936
 8145TIP3   OH248629   0.339   6.055   1.883
 8145TIP3    H148630   0.433   6.042   1.896
 8145TIP3    H248631   0.297   5.995   1.945
 8146TIP3   OH248632   0.695   5.654   1.695
 8146TIP3    H148633   0.757   5.581   1.690
 8146TIP3    H248634   0.710   5.703   1.614
 8147TIP3   OH248635   0.756   5.819   1.906
 8147TIP3    H148636   0.736   5.765   1.830
 8147TIP3    H248637   0.688   5.887   1.905
 8148TIP3   OH248638   0.797   7.395   0.099
 8148TIP3    H148639   0.865   7.436   0.153
 8148TIP3    H248640   0.813   7.429   0.011
 8149TIP3   OH248641   0.165   6.913   0.153
 8149TIP3    H148642   0.253   6.945   0.170
 8149TIP3    H248643   0.177   6.832   0.103
 8150TIP3   OH248644   7.697   7.488   0.573
 8150TIP3    H148645   7.614   7.525   0.603
 8150TIP3    H248646   7.707   7.407   0.624
 8151TIP3   OH248647   0.066   7.277   0.743
 8151TIP3    H148648  -0.014   7.280   0.795
 8151TIP3    H248649   0.137   7.281   0.807
 8152TIP3   OH248650   1.861   7.415   1.095
 8152TIP3    H148651   1.879   7.466   1.174
 8152TIP3    H248652   1.946   7.380   1.068
 8153TIP3   OH248653   1.773   7.327   1.441
 8153TIP3    H148654   1.732   7.260   1.387
 8153TIP3    H248655   1.814   7.278   1.512
 8154TIP3   OH248656   1.693   6.933   1.870
 8154TIP3    H148657   1.618   6.924   1.927
 8154TIP3    H248658   1.750   6.996   1.915
 8155TIP3   OH248659   1.816   6.748   0.517
 8155TIP3    H148660   1.895   6.801   0.509
 8155TIP3    H248661   1.835   6.687   0.588
 8156TIP3   OH248662   1.844   6.537   0.705
 8156TIP3    H148663   1.753   6.518   0.727
 8156TIP3    H248664   1.886   6.559   0.788
 8157TIP3   OH248665   1.851   6.814   1.085
 8157TIP3    H148666   1.903   6.740   1.116
 8157TIP3    H248667   1.915   6.883   1.070
 8158TIP3   OH248668   1.605   7.146   1.319
 8158TIP3    H148669   1.532   7.184   1.366
 8158TIP3    H248670   1.572   7.129   1.231
 8159TIP3   OH248671   1.821   6.585   0.298
 8159TIP3    H148672   1.771   6.630   0.230
 8159TIP3    H248673   1.816   6.643   0.374
 8160TIP3   OH248674   1.571   6.343   0.161
 8160TIP3    H148675   1.532   6.427   0.141
 8160TIP3    H248676   1.585   6.302   0.076
 8161TIP3   OH248677   1.567   6.445   0.713
 8161TIP3    H148678   1.561   6.361   0.666
 8161TIP3    H248679   1.518   6.431   0.794
 8162TIP3   OH248680   0.231   6.749   1.061
 8162TIP3    H148681   0.290   6.743   0.985
 8162TIP3    H248682   0.247   6.669   1.110
 8163TIP3   OH248683   1.660   6.541   1.591
 8163TIP3    H148684   1.669   6.447   1.602
 8163TIP3    H248685   1.694   6.559   1.504
 8164TIP3   OH248686   1.922   6.301   1.706
 8164TIP3    H148687   1.827   6.290   1.696
 8164TIP3    H248688   1.942   6.256   1.788
 8165TIP3   OH248689   1.623   5.976  -0.007
 8165TIP3    H148690   1.718   5.968  -0.006
 8165TIP3    H248691   1.594   5.936   0.074
 8166TIP3   OH248692   1.554   6.220   0.526
 8166TIP3    H148693   1.583   6.129   0.534
 8166TIP3    H248694   1.622   6.263   0.475
 8167TIP3   OH248695   1.634   6.230   1.056
 8167TIP3    H148696   1.726   6.250   1.041
 8167TIP3    H248697   1.621   6.246   1.149
 8168TIP3   OH248698   1.607   6.315   1.320
 8168TIP3    H148699   1.525   6.331   1.366
 8168TIP3    H248700   1.654   6.398   1.323
 8169TIP3   OH248701   0.199   5.996   1.651
 8169TIP3    H148702   0.245   6.026   1.730
 8169TIP3    H248703   0.215   5.902   1.648
 8170TIP3   OH248704   1.856   5.719   1.812
 8170TIP3    H148705   1.925   5.678   1.759
 8170TIP3    H248706   1.838   5.801   1.768
 8171TIP3   OH248707   1.625   5.954   0.546
 8171TIP3    H148708   1.671   5.918   0.622
 8171TIP3    H248709   1.552   5.894   0.531
 8172TIP3   OH248710   0.230   5.972   1.053
 8172TIP3    H148711   0.270   5.906   0.997
 8172TIP3    H248712   0.277   6.053   1.031
 8173TIP3   OH248713   0.080   6.406   1.027
 8173TIP3    H148714   0.137   6.367   0.961
 8173TIP3    H248715   0.139   6.432   1.098
 8174TIP3   OH248716   1.759   5.949   1.700
 8174TIP3    H148717   1.723   5.997   1.775
 8174TIP3    H248718   1.693   5.961   1.631
 8175TIP3   OH248719   1.891   5.981   0.031
 8175TIP3    H148720   1.972   5.984  -0.020
 8175TIP3    H248721   1.911   6.027   0.112
 8176TIP3   OH248722   0.103   5.976   0.413
 8176TIP3    H148723   0.010   5.995   0.419
 8176TIP3    H248724   0.133   6.026   0.336
 8177TIP3   OH248725   1.501   7.439   0.697
 8177TIP3    H148726   1.574   7.412   0.640
 8177TIP3    H248727   1.543   7.488   0.768
 8178TIP3   OH248728   0.117   5.844   1.271
 8178TIP3    H148729   0.024   5.826   1.264
 8178TIP3    H248730   0.140   5.884   1.187
 8179TIP3   OH248731   0.324   7.156   1.624
 8179TIP3    H148732   0.268   7.233   1.627
 8179TIP3    H248733   0.295   7.103   1.698
 8180TIP3   OH248734   0.654   7.218   1.385
 8180TIP3    H148735   0.598   7.287   1.347
 8180TIP3    H248736   0.741   7.234   1.348
 8181TIP3   OH248737   0.977   7.366   1.652
 8181TIP3    H148738   0.978   7.323   1.738
 8181TIP3    H248739   1.066   7.399   1.641
 8182TIP3   OH248740   1.235   7.452   1.622
 8182TIP3    H148741   1.306   7.400   1.584
 8182TIP3    H248742   1.267   7.475   1.710
 8183TIP3   OH248743   1.717   5.697   1.459
 8183TIP3    H148744   1.673   5.737   1.384
 8183TIP3    H248745   1.736   5.608   1.432
 8184TIP3   OH248746   0.255   7.405   1.358
 8184TIP3    H148747   0.209   7.475   1.312
 8184TIP3    H248748   0.222   7.411   1.448
 8185TIP3   OH248749   0.520   7.433   1.278
 8185TIP3    H148750   0.428   7.427   1.306
 8185TIP3    H248751   0.518   7.492   1.203
 8186TIP3   OH248752   1.025   7.479   1.207
 8186TIP3    H148753   0.959   7.508   1.144
 8186TIP3    H248754   1.019   7.543   1.278
 8187TIP3   OH248755   1.256   7.353   1.282
 8187TIP3    H148756   1.176   7.399   1.257
 8187TIP3    H248757   1.327   7.412   1.258
 8188TIP3   OH248758   1.477   7.501   1.217
 8188TIP3    H148759   1.470   7.573   1.155
 8188TIP3    H248760   1.526   7.433   1.169
 8189TIP3   OH248761   0.274   7.285   0.935
 8189TIP3    H148762   0.288   7.375   0.966
 8189TIP3    H248763   0.361   7.255   0.910
 8190TIP3   OH248764   0.531   7.222   0.854
 8190TIP3    H148765   0.589   7.167   0.802
 8190TIP3    H248766   0.585   7.252   0.927
 8191TIP3   OH248767   0.737   7.236   1.055
 8191TIP3    H148768   0.735   7.144   1.028
 8191TIP3    H248769   0.792   7.237   1.133
 8192TIP3   OH248770   1.003   5.818   0.914
 8192TIP3    H148771   0.947   5.756   0.962
 8192TIP3    H248772   1.090   5.779   0.917
 8193TIP3   OH248773   1.569   5.719   0.876
 8193TIP3    H148774   1.644   5.757   0.829
 8193TIP3    H248775   1.527   5.794   0.918
 8194TIP3   OH248776   1.780   5.821   0.731
 8194TIP3    H148777   1.838   5.750   0.706
 8194TIP3    H248778   1.836   5.898   0.738
 8195TIP3   OH248779   0.354   5.691   0.648
 8195TIP3    H148780   0.265   5.667   0.625
 8195TIP3    H248781   0.401   5.608   0.656
 8196TIP3   OH248782   0.102   5.773   0.227
 8196TIP3    H148783   0.178   5.800   0.176
 8196TIP3    H248784   0.101   5.831   0.302
 8197TIP3   OH248785   0.835   5.595   0.734
 8197TIP3    H148786   0.890   5.664   0.696
 8197TIP3    H248787   0.837   5.613   0.828
 8198TIP3   OH248788   1.250   5.689   0.914
 8198TIP3    H148789   1.301   5.678   0.833
 8198TIP3    H248790   1.231   5.599   0.941
 8199TIP3   OH248791   1.427   5.767   0.491
 8199TIP3    H148792   1.350   5.824   0.494
 8199TIP3    H248793   1.392   5.678   0.498
 8200TIP3   OH248794   0.109   7.366   0.343
 8200TIP3    H148795   0.074   7.424   0.411
 8200TIP3    H248796   0.125   7.423   0.269
 8201TIP3   OH248797   0.362   5.855   0.152
 8201TIP3    H148798   0.390   5.765   0.137
 8201TIP3    H248799   0.424   5.889   0.217
 8202TIP3   OH248800   0.827   5.916   0.372
 8202TIP3    H148801   0.865   5.846   0.425
 8202TIP3    H248802   0.852   5.996   0.418
 8203TIP3   OH248803   1.033   7.490   0.217
 8203TIP3    H148804   1.097   7.560   0.227
 8203TIP3    H248805   1.071   7.433   0.150
 8204TIP3   OH248806   1.682   7.354   0.514
 8204TIP3    H148807   1.660   7.264   0.491
 8204TIP3    H248808   1.687   7.399   0.429
 8205TIP3   OH248809   0.266   5.729   1.658
 8205TIP3    H148810   0.206   5.662   1.690
 8205TIP3    H248811   0.340   5.726   1.718
 8206TIP3   OH248812   0.460   5.686   1.852
 8206TIP3    H148813   0.540   5.660   1.807
 8206TIP3    H248814   0.426   5.604   1.888
 8207TIP3   OH248815   0.427   7.511   0.175
 8207TIP3    H148816   0.335   7.536   0.182
 8207TIP3    H248817   0.467   7.545   0.256
 8208TIP3   OH248818   1.333   5.686   1.793
 8208TIP3    H148819   1.330   5.635   1.874
 8208TIP3    H248820   1.424   5.677   1.763
 8209TIP3   OH248821   1.599   7.263   1.710
 8209TIP3    H148822   1.544   7.254   1.632
 8209TIP3    H248823   1.604   7.357   1.726
 8210TIP3   OH248824   3.077   6.670   0.636
 8210TIP3    H148825   3.048   6.759   0.657
 8210TIP3    H248826   3.006   6.635   0.581
 8211TIP3   OH248827   3.007   6.600   1.027
 8211TIP3    H148828   3.025   6.560   1.113
 8211TIP3    H248829   2.950   6.537   0.983
 8212TIP3   OH248830   2.199   6.475   1.320
 8212TIP3    H148831   2.215   6.386   1.349
 8212TIP3    H248832   2.254   6.529   1.376
 8213TIP3   OH248833   3.392   6.913   0.894
 8213TIP3    H148834   3.350   6.836   0.933
 8213TIP3    H248835   3.411   6.970   0.968
 8214TIP3   OH248836   2.340   6.947   0.985
 8214TIP3    H148837   2.319   6.860   0.951
 8214TIP3    H248838   2.434   6.944   0.999
 8215TIP3   OH248839   1.936   6.297   0.591
 8215TIP3    H148840   1.914   6.380   0.633
 8215TIP3    H248841   1.878   6.293   0.515
 8216TIP3   OH248842   2.046   6.572   0.916
 8216TIP3    H148843   2.079   6.484   0.896
 8216TIP3    H248844   2.122   6.629   0.902
 8217TIP3   OH248845   2.986   7.364   0.859
 8217TIP3    H148846   3.068   7.315   0.852
 8217TIP3    H248847   2.983   7.392   0.950
 8218TIP3   OH248848   2.854   6.831   1.083
 8218TIP3    H148849   2.902   6.761   1.037
 8218TIP3    H248850   2.913   6.857   1.154
 8219TIP3   OH248851   3.721   5.957   1.176
 8219TIP3    H148852   3.711   6.032   1.234
 8219TIP3    H248853   3.783   5.987   1.109
 8220TIP3   OH248854   3.059   6.221   1.088
 8220TIP3    H148855   3.043   6.133   1.122
 8220TIP3    H248856   3.051   6.211   0.993
 8221TIP3   OH248857   2.472   6.060   0.800
 8221TIP3    H148858   2.489   6.139   0.750
 8221TIP3    H248859   2.408   6.011   0.748
 8222TIP3   OH248860   3.248   6.113   0.679
 8222TIP3    H148861   3.294   6.092   0.760
 8222TIP3    H248862   3.313   6.158   0.626
 8223TIP3   OH248863   2.133   6.313   0.884
 8223TIP3    H148864   2.196   6.265   0.937
 8223TIP3    H248865   2.158   6.293   0.794
 8224TIP3   OH248866   2.600   6.448   0.824
 8224TIP3    H148867   2.687   6.425   0.857
 8224TIP3    H248868   2.578   6.378   0.763
 8225TIP3   OH248869   3.671   6.146   1.374
 8225TIP3    H148870   3.627   6.231   1.364
 8225TIP3    H248871   3.740   6.162   1.438
 8226TIP3   OH248872   2.340   5.954   1.217
 8226TIP3    H148873   2.300   6.021   1.161
 8226TIP3    H248874   2.285   5.952   1.295
 8227TIP3   OH248875   3.015   6.937   0.661
 8227TIP3    H148876   3.106   6.966   0.659
 8227TIP3    H248877   2.964   7.018   0.670
 8228TIP3   OH248878   2.630   6.716   1.197
 8228TIP3    H148879   2.571   6.783   1.232
 8228TIP3    H248880   2.699   6.764   1.153
 8229TIP3   OH248881   3.368   6.073   0.921
 8229TIP3    H148882   3.331   6.016   0.988
 8229TIP3    H248883   3.431   6.128   0.968
 8230TIP3   OH248884   2.316   6.147   1.012
 8230TIP3    H148885   2.370   6.200   1.070
 8230TIP3    H248886   2.377   6.113   0.946
 8231TIP3   OH248887   2.466   6.913   1.304
 8231TIP3    H148888   2.474   7.008   1.297
 8231TIP3    H248889   2.375   6.899   1.327
 8232TIP3   OH248890   2.043   6.896   0.452
 8232TIP3    H148891   2.035   6.941   0.368
 8232TIP3    H248892   2.066   6.965   0.514
 8233TIP3   OH248893   3.425   7.093   1.111
 8233TIP3    H148894   3.333   7.085   1.137
 8233TIP3    H248895   3.436   7.185   1.089
 8234TIP3   OH248896   3.480   5.833   1.256
 8234TIP3    H148897   3.412   5.856   1.193
 8234TIP3    H248898   3.560   5.870   1.220
 8235TIP3   OH248899   2.689   5.639   0.996
 8235TIP3    H148900   2.671   5.546   1.003
 8235TIP3    H248901   2.604   5.681   1.016
 8236TIP3   OH248902   3.208   7.245   0.738
 8236TIP3    H148903   3.242   7.157   0.722
 8236TIP3    H248904   3.281   7.303   0.717
 8237TIP3   OH248905   3.289   6.996   0.656
 8237TIP3    H148906   3.338   6.956   0.585
 8237TIP3    H248907   3.330   6.962   0.736
 8238TIP3   OH248908   3.532   6.829   1.446
 8238TIP3    H148909   3.515   6.796   1.357
 8238TIP3    H248910   3.553   6.921   1.434
 8239TIP3   OH248911   2.930   6.561   0.422
 8239TIP3    H148912   2.874   6.630   0.387
 8239TIP3    H248913   3.005   6.558   0.362
 8240TIP3   OH248914   2.964   6.414   0.099
 8240TIP3    H148915   3.038   6.443   0.153
 8240TIP3    H248916   3.002   6.350   0.039
 8241TIP3   OH248917   3.661   6.563   1.273
 8241TIP3    H148918   3.596   6.629   1.250
 8241TIP3    H248919   3.726   6.569   1.203
 8242TIP3   OH248920   3.309   6.620   0.507
 8242TIP3    H148921   3.233   6.639   0.561
 8242TIP3    H248922   3.368   6.572   0.565
 8243TIP3   OH248923   3.248   6.436   1.432
 8243TIP3    H148924   3.239   6.504   1.499
 8243TIP3    H248925   3.180   6.456   1.368
 8244TIP3   OH248926   2.463   6.638   0.678
 8244TIP3    H148927   2.440   6.596   0.595
 8244TIP3    H248928   2.518   6.574   0.723
 8245TIP3   OH248929   2.626   6.966   0.971
 8245TIP3    H148930   2.632   6.976   0.876
 8245TIP3    H248931   2.707   6.923   0.997
 8246TIP3   OH248932   2.474   6.534   1.057
 8246TIP3    H148933   2.526   6.508   0.981
 8246TIP3    H248934   2.530   6.595   1.104
 8247TIP3   OH248935   3.171   7.064   1.203
 8247TIP3    H148936   3.108   7.134   1.220
 8247TIP3    H248937   3.124   6.983   1.226
 8248TIP3   OH248938   2.605   6.938   1.546
 8248TIP3    H148939   2.539   6.997   1.583
 8248TIP3    H248940   2.568   6.910   1.462
 8249TIP3   OH248941   3.173   6.530   0.282
 8249TIP3    H148942   3.219   6.569   0.356
 8249TIP3    H248943   3.223   6.556   0.205
 8250TIP3   OH248944   2.367   6.582   1.520
 8250TIP3    H148945   2.355   6.675   1.540
 8250TIP3    H248946   2.334   6.536   1.597
 8251TIP3   OH248947   2.872   7.181   0.687
 8251TIP3    H148948   2.904   7.238   0.758
 8251TIP3    H248949   2.855   7.241   0.614
 8252TIP3   OH248950   2.406   7.121   1.599
 8252TIP3    H148951   2.413   7.154   1.509
 8252TIP3    H248952   2.312   7.118   1.615
 8253TIP3   OH248953   3.572   5.695   0.349
 8253TIP3    H148954   3.490   5.739   0.372
 8253TIP3    H248955   3.637   5.764   0.349
 8254TIP3   OH248956   2.382   6.534   0.430
 8254TIP3    H148957   2.324   6.603   0.397
 8254TIP3    H248958   2.330   6.455   0.428
 8255TIP3   OH248959   3.651   7.115   0.176
 8255TIP3    H148960   3.677   7.199   0.138
 8255TIP3    H248961   3.694   7.050   0.121
 8256TIP3   OH248962   2.014   6.727   1.426
 8256TIP3    H148963   2.002   6.674   1.347
 8256TIP3    H248964   2.018   6.663   1.497
 8257TIP3   OH248965   2.068   6.992   1.062
 8257TIP3    H148966   2.157   6.971   1.034
 8257TIP3    H248967   2.080   7.045   1.141
 8258TIP3   OH248968   3.777   7.205   1.668
 8258TIP3    H148969   3.775   7.110   1.656
 8258TIP3    H248970   3.694   7.225   1.711
 8259TIP3   OH248971   2.856   7.050   1.527
 8259TIP3    H148972   2.850   7.146   1.534
 8259TIP3    H248973   2.766   7.020   1.532
 8260TIP3   OH248974   2.864   7.394   0.507
 8260TIP3    H148975   2.863   7.440   0.423
 8260TIP3    H248976   2.799   7.439   0.560
 8261TIP3   OH248977   2.282   7.300   0.680
 8261TIP3    H148978   2.305   7.274   0.770
 8261TIP3    H248979   2.225   7.229   0.649
 8262TIP3   OH248980   3.202   7.412   0.301
 8262TIP3    H148981   3.234   7.361   0.226
 8262TIP3    H248982   3.172   7.346   0.363
 8263TIP3   OH248983   3.087   7.242   0.479
 8263TIP3    H148984   3.012   7.298   0.499
 8263TIP3    H248985   3.126   7.223   0.564
 8264TIP3   OH248986   3.345   6.262   1.642
 8264TIP3    H148987   3.326   6.324   1.572
 8264TIP3    H248988   3.374   6.183   1.596
 8265TIP3   OH248989   2.212   6.921   1.416
 8265TIP3    H148990   2.243   6.911   1.506
 8265TIP3    H248991   2.139   6.859   1.408
 8266TIP3   OH248992   2.437   5.751   1.057
 8266TIP3    H148993   2.366   5.749   0.992
 8266TIP3    H248994   2.416   5.826   1.112
 8267TIP3   OH248995   2.894   5.840   1.434
 8267TIP3    H148996   2.951   5.784   1.486
 8267TIP3    H248997   2.812   5.792   1.428
 8268TIP3   OH248998   3.165   6.170   1.404
 8268TIP3    H148999   3.247   6.125   1.424
 8268TIP3    H249000   3.189   6.263   1.401
 8269TIP3   OH249001   3.334   6.583   0.070
 8269TIP3    H149002   3.290   6.605  -0.012
 8269TIP3    H249003   3.416   6.631   0.067
 8270TIP3   OH249004   2.843   6.032   0.105
 8270TIP3    H149005   2.790   5.972   0.158
 8270TIP3    H249006   2.839   5.995   0.017
 8271TIP3   OH249007   2.464   6.292   1.196
 8271TIP3    H149008   2.411   6.289   1.276
 8271TIP3    H249009   2.453   6.381   1.163
 8272TIP3   OH249010   2.482   6.277   0.633
 8272TIP3    H149011   2.386   6.278   0.630
 8272TIP3    H249012   2.509   6.271   0.542
 8273TIP3   OH249013   2.957   6.312   0.545
 8273TIP3    H149014   2.932   6.399   0.516
 8273TIP3    H249015   3.040   6.294   0.501
 8274TIP3   OH249016   2.883   6.319   1.681
 8274TIP3    H149017   2.829   6.258   1.732
 8274TIP3    H249018   2.969   6.314   1.722
 8275TIP3   OH249019   3.029   6.234   0.807
 8275TIP3    H149020   2.989   6.271   0.728
 8275TIP3    H249021   3.104   6.183   0.774
 8276TIP3   OH249022   2.297   6.234   1.415
 8276TIP3    H149023   2.324   6.252   1.505
 8276TIP3    H249024   2.258   6.146   1.419
 8277TIP3   OH249025   2.397   5.977   0.130
 8277TIP3    H149026   2.430   5.979   0.220
 8277TIP3    H249027   2.381   6.068   0.109
 8278TIP3   OH249028   1.932   6.047   0.734
 8278TIP3    H149029   1.979   6.052   0.817
 8278TIP3    H249030   1.932   6.136   0.701
 8279TIP3   OH249031   1.936   6.131   0.263
 8279TIP3    H149032   2.004   6.184   0.222
 8279TIP3    H249033   1.874   6.194   0.298
 8280TIP3   OH249034   3.032   6.443   1.260
 8280TIP3    H149035   3.027   6.364   1.207
 8280TIP3    H249036   2.942   6.457   1.289
 8281TIP3   OH249037   2.732   5.976   0.725
 8281TIP3    H149038   2.648   5.997   0.766
 8281TIP3    H249039   2.784   5.939   0.797
 8282TIP3   OH249040   2.206   6.229   0.627
 8282TIP3    H149041   2.116   6.245   0.598
 8282TIP3    H249042   2.217   6.134   0.618
 8283TIP3   OH249043   2.519   6.236   0.359
 8283TIP3    H149044   2.602   6.269   0.324
 8283TIP3    H249045   2.457   6.249   0.287
 8284TIP3   OH249046   3.260   5.876   1.088
 8284TIP3    H149047   3.193   5.914   1.146
 8284TIP3    H249048   3.212   5.812   1.036
 8285TIP3   OH249049   2.358   6.257   0.138
 8285TIP3    H149050   2.264   6.270   0.126
 8285TIP3    H249051   2.398   6.311   0.070
 8286TIP3   OH249052   3.509   7.538   1.707
 8286TIP3    H149053   3.487   7.553   1.615
 8286TIP3    H249054   3.600   7.565   1.715
 8287TIP3   OH249055   2.286   6.811   1.664
 8287TIP3    H149056   2.343   6.800   1.741
 8287TIP3    H249057   2.198   6.816   1.701
 8288TIP3   OH249058   2.834   6.376   0.954
 8288TIP3    H149059   2.900   6.323   0.910
 8288TIP3    H249060   2.810   6.326   1.032
 8289TIP3   OH249061   2.292   5.961   0.612
 8289TIP3    H149062   2.248   5.876   0.621
 8289TIP3    H249063   2.351   5.950   0.538
 8290TIP3   OH249064   2.744   6.242   1.187
 8290TIP3    H149065   2.655   6.275   1.204
 8290TIP3    H249066   2.783   6.233   1.274
 8291TIP3   OH249067   2.772   6.769   0.315
 8291TIP3    H149068   2.705   6.713   0.275
 8291TIP3    H249069   2.733   6.797   0.398
 8292TIP3   OH249070   3.481   6.750   1.189
 8292TIP3    H149071   3.539   6.811   1.143
 8292TIP3    H249072   3.410   6.733   1.127
 8293TIP3   OH249073   3.072   6.059   0.266
 8293TIP3    H149074   2.988   6.077   0.224
 8293TIP3    H249075   3.103   6.144   0.297
 8294TIP3   OH249076   2.895   6.761   1.527
 8294TIP3    H149077   2.926   6.727   1.611
 8294TIP3    H249078   2.878   6.854   1.543
 8295TIP3   OH249079   3.188   6.276   0.393
 8295TIP3    H149080   3.278   6.260   0.422
 8295TIP3    H249081   3.192   6.361   0.349
 8296TIP3   OH249082   2.300   6.685   0.898
 8296TIP3    H149083   2.349   6.679   0.816
 8296TIP3    H249084   2.349   6.631   0.959
 8297TIP3   OH249085   3.003   6.885   0.199
 8297TIP3    H149086   2.983   6.976   0.218
 8297TIP3    H249087   2.934   6.836   0.245
 8298TIP3   OH249088   2.022   6.551   1.639
 8298TIP3    H149089   2.111   6.531   1.669
 8298TIP3    H249090   1.973   6.471   1.656
 8299TIP3   OH249091   2.702   6.525   1.710
 8299TIP3    H149092   2.637   6.493   1.648
 8299TIP3    H249093   2.779   6.472   1.693
 8300TIP3   OH249094   3.131   7.071   1.554
 8300TIP3    H149095   3.040   7.060   1.527
 8300TIP3    H249096   3.127   7.080   1.649
 8301TIP3   OH249097   3.643   6.322   0.325
 8301TIP3    H149098   3.573   6.313   0.259
 8301TIP3    H249099   3.669   6.414   0.318
 8302TIP3   OH249100   3.767   6.933   1.643
 8302TIP3    H149101   3.675   6.916   1.665
 8302TIP3    H249102   3.778   6.892   1.557
 8303TIP3   OH249103   3.521   7.127   0.412
 8303TIP3    H149104   3.480   7.042   0.429
 8303TIP3    H249105   3.557   7.119   0.324
 8304TIP3   OH249106   3.283   6.679   1.004
 8304TIP3    H149107   3.187   6.675   1.005
 8304TIP3    H249108   3.310   6.594   0.968
 8305TIP3   OH249109   2.639   7.043   0.705
 8305TIP3    H149110   2.728   7.079   0.703
 8305TIP3    H249111   2.585   7.109   0.662
 8306TIP3   OH249112   2.056   6.573   0.155
 8306TIP3    H149113   2.120   6.625   0.203
 8306TIP3    H249114   1.977   6.576   0.208
 8307TIP3   OH249115   2.631   6.818   0.543
 8307TIP3    H149116   2.639   6.897   0.597
 8307TIP3    H249117   2.571   6.762   0.591
 8308TIP3   OH249118   2.739   7.268   1.282
 8308TIP3    H149119   2.728   7.361   1.302
 8308TIP3    H249120   2.833   7.252   1.293
 8309TIP3   OH249121   2.538   7.272   0.576
 8309TIP3    H149122   2.446   7.287   0.596
 8309TIP3    H249123   2.583   7.347   0.614
 8310TIP3   OH249124   3.041   6.836   1.302
 8310TIP3    H149125   2.977   6.810   1.368
 8310TIP3    H249126   3.126   6.818   1.342
 8311TIP3   OH249127   3.284   6.962   0.194
 8311TIP3    H149128   3.322   6.930   0.276
 8311TIP3    H249129   3.196   6.926   0.193
 8312TIP3   OH249130   3.330   7.248   1.490
 8312TIP3    H149131   3.259   7.186   1.503
 8312TIP3    H249132   3.303   7.301   1.415
 8313TIP3   OH249133   3.719   7.374   0.108
 8313TIP3    H149134   3.811   7.399   0.121
 8313TIP3    H249135   3.671   7.427   0.171
 8314TIP3   OH249136   2.194   5.975   1.452
 8314TIP3    H149137   2.106   6.006   1.475
 8314TIP3    H249138   2.215   5.910   1.519
 8315TIP3   OH249139   3.429   6.862   0.441
 8315TIP3    H149140   3.382   6.780   0.457
 8315TIP3    H249141   3.522   6.837   0.449
 8316TIP3   OH249142   2.140   7.158   1.278
 8316TIP3    H149143   2.168   7.084   1.332
 8316TIP3    H249144   2.149   7.234   1.336
 8317TIP3   OH249145   2.602   6.982   0.189
 8317TIP3    H149146   2.671   6.917   0.201
 8317TIP3    H249147   2.623   7.051   0.252
 8318TIP3   OH249148   2.218   6.724   0.320
 8318TIP3    H149149   2.162   6.776   0.378
 8318TIP3    H249150   2.266   6.788   0.268
 8319TIP3   OH249151   3.058   5.976   1.248
 8319TIP3    H149152   3.096   6.046   1.301
 8319TIP3    H249153   2.995   5.933   1.306
 8320TIP3   OH249154   3.106   5.937   0.514
 8320TIP3    H149155   3.093   5.982   0.430
 8320TIP3    H249156   3.143   6.004   0.571
 8321TIP3   OH249157   2.931   7.139   0.269
 8321TIP3    H149158   2.843   7.159   0.301
 8321TIP3    H249159   2.989   7.167   0.339
 8322TIP3   OH249160   2.784   6.103   0.484
 8322TIP3    H149161   2.839   6.179   0.499
 8322TIP3    H249162   2.764   6.070   0.572
 8323TIP3   OH249163   2.886   6.194   1.435
 8323TIP3    H149164   2.879   6.259   1.504
 8323TIP3    H249165   2.980   6.182   1.422
 8324TIP3   OH249166   2.874   5.798   0.565
 8324TIP3    H149167   2.825   5.859   0.620
 8324TIP3    H249168   2.959   5.840   0.552
 8325TIP3   OH249169   2.667   7.200   0.341
 8325TIP3    H149170   2.656   7.278   0.286
 8325TIP3    H249171   2.622   7.222   0.422
 8326TIP3   OH249172   2.473   5.966   0.398
 8326TIP3    H149173   2.494   6.059   0.403
 8326TIP3    H249174   2.558   5.923   0.392
 8327TIP3   OH249175   3.415   6.056   1.448
 8327TIP3    H149176   3.416   5.966   1.415
 8327TIP3    H249177   3.501   6.091   1.425
 8328TIP3   OH249178   3.340   6.410   0.927
 8328TIP3    H149179   3.258   6.364   0.943
 8328TIP3    H249180   3.405   6.360   0.975
 8329TIP3   OH249181   2.335   6.916   0.158
 8329TIP3    H149182   2.425   6.940   0.182
 8329TIP3    H249183   2.335   6.916   0.062
 8330TIP3   OH249184   2.086   6.305   0.106
 8330TIP3    H149185   2.083   6.399   0.126
 8330TIP3    H249186   2.023   6.294   0.034
 8331TIP3   OH249187   3.464   7.375   1.090
 8331TIP3    H149188   3.440   7.441   1.025
 8331TIP3    H249189   3.556   7.392   1.109
 8332TIP3   OH249190   2.198   5.754   0.912
 8332TIP3    H149191   2.191   5.744   0.818
 8332TIP3    H249192   2.175   5.669   0.948
 8333TIP3   OH249193   2.083   7.119   0.609
 8333TIP3    H149194   2.035   7.133   0.691
 8333TIP3    H249195   2.045   7.182   0.548
 8334TIP3   OH249196   2.037   7.404   1.671
 8334TIP3    H149197   2.108   7.396   1.735
 8334TIP3    H249198   1.992   7.320   1.675
 8335TIP3   OH249199   2.454   7.219   1.853
 8335TIP3    H149200   2.534   7.175   1.884
 8335TIP3    H249201   2.441   7.185   1.764
 8336TIP3   OH249202   3.008   7.282   0.036
 8336TIP3    H149203   2.966   7.221   0.096
 8336TIP3    H249204   3.102   7.268   0.049
 8337TIP3   OH249205   3.116   7.094   1.826
 8337TIP3    H149206   3.113   7.010   1.871
 8337TIP3    H249207   3.188   7.141   1.866
 8338TIP3   OH249208   3.269   7.230   0.106
 8338TIP3    H149209   3.284   7.141   0.137
 8338TIP3    H249210   3.347   7.252   0.055
 8339TIP3   OH249211   2.025   6.805   1.766
 8339TIP3    H149212   2.014   6.712   1.748
 8339TIP3    H249213   1.957   6.848   1.714
 8340TIP3   OH249214   2.500   6.667   9.971
 8340TIP3    H149215   2.523   6.663  10.064
 8340TIP3    H249216   2.551   6.739   9.937
 8341TIP3   OH249217   2.688   6.799   1.769
 8341TIP3    H149218   2.668   6.839   1.684
 8341TIP3    H249219   2.708   6.708   1.748
 8342TIP3   OH249220   3.254   6.831   1.488
 8342TIP3    H149221   3.348   6.844   1.476
 8342TIP3    H249222   3.220   6.918   1.510
 8343TIP3   OH249223   2.262   6.474   1.747
 8343TIP3    H149224   2.297   6.385   1.751
 8343TIP3    H249225   2.231   6.491   1.836
 8344TIP3   OH249226   2.573   6.597   0.232
 8344TIP3    H149227   2.514   6.581   0.306
 8344TIP3    H249228   2.617   6.513   0.219
 8345TIP3   OH249229   2.583   6.407   1.480
 8345TIP3    H149230   2.507   6.466   1.479
 8345TIP3    H249231   2.651   6.456   1.433
 8346TIP3   OH249232   2.699   6.359   0.173
 8346TIP3    H149233   2.670   6.328   0.087
 8346TIP3    H249234   2.793   6.375   0.162
 8347TIP3   OH249235   3.010   6.654   1.764
 8347TIP3    H149236   3.096   6.628   1.732
 8347TIP3    H249237   2.987   6.586   1.828
 8348TIP3   OH249238   3.568   6.720   0.044
 8348TIP3    H149239   3.645   6.705  -0.011
 8348TIP3    H249240   3.538   6.808   0.019
 8349TIP3   OH249241   2.608   6.134   1.533
 8349TIP3    H149242   2.588   6.095   1.447
 8349TIP3    H249243   2.601   6.229   1.518
 8350TIP3   OH249244   2.599   6.010   1.284
 8350TIP3    H149245   2.644   6.067   1.222
 8350TIP3    H249246   2.510   6.004   1.251
 8351TIP3   OH249247   2.786   6.557   1.363
 8351TIP3    H149248   2.824   6.622   1.422
 8351TIP3    H249249   2.734   6.608   1.302
 8352TIP3   OH249250   3.121   6.255   1.806
 8352TIP3    H149251   3.139   6.194   1.878
 8352TIP3    H249252   3.205   6.264   1.761
 8353TIP3   OH249253   3.267   6.614   1.652
 8353TIP3    H149254   3.250   6.695   1.604
 8353TIP3    H249255   3.361   6.600   1.642
 8354TIP3   OH249256   2.376   6.225   1.680
 8354TIP3    H149257   2.329   6.160   1.732
 8354TIP3    H249258   2.461   6.185   1.662
 8355TIP3   OH249259   2.628   5.763   1.400
 8355TIP3    H149260   2.611   5.845   1.353
 8355TIP3    H249261   2.559   5.704   1.371
 8356TIP3   OH249262   2.758   6.107   1.807
 8356TIP3    H149263   2.809   6.077   1.882
 8356TIP3    H249264   2.667   6.096   1.834
 8357TIP3   OH249265   3.022   6.028   1.666
 8357TIP3    H149266   3.050   6.113   1.701
 8357TIP3    H249267   3.093   5.969   1.689
 8358TIP3   OH249268   3.242   5.925   1.803
 8358TIP3    H149269   3.238   5.830   1.808
 8358TIP3    H249270   3.210   5.956   1.888
 8359TIP3   OH249271   2.253   6.020   1.814
 8359TIP3    H149272   2.231   5.941   1.765
 8359TIP3    H249273   2.171   6.048   1.855
 8360TIP3   OH249274   2.706   5.798   1.661
 8360TIP3    H149275   2.745   5.712   1.677
 8360TIP3    H249276   2.649   5.785   1.586
 8361TIP3   OH249277   2.665   5.818   1.942
 8361TIP3    H149278   2.670   5.796   1.849
 8361TIP3    H249279   2.604   5.891   1.947
 8362TIP3   OH249280   2.681   7.404   0.151
 8362TIP3    H149281   2.761   7.438   0.193
 8362TIP3    H249282   2.681   7.446   0.065
 8363TIP3   OH249283   2.071   6.998   0.191
 8363TIP3    H149284   2.165   6.983   0.201
 8363TIP3    H249285   2.057   7.005   0.097
 8364TIP3   OH249286   1.882   7.396   0.707
 8364TIP3    H149287   1.822   7.377   0.635
 8364TIP3    H249288   1.888   7.313   0.756
 8365TIP3   OH249289   1.973   7.172   0.858
 8365TIP3    H149290   1.972   7.090   0.908
 8365TIP3    H249291   2.016   7.235   0.915
 8366TIP3   OH249292   3.726   7.442   1.150
 8366TIP3    H149293   3.749   7.487   1.231
 8366TIP3    H249294   3.810   7.418   1.111
 8367TIP3   OH249295   3.661   7.333   1.445
 8367TIP3    H149296   3.639   7.253   1.397
 8367TIP3    H249297   3.714   7.304   1.518
 8368TIP3   OH249298   3.558   6.927   1.829
 8368TIP3    H149299   3.480   6.935   1.884
 8368TIP3    H249300   3.619   6.990   1.866
 8369TIP3   OH249301   3.691   6.761   0.474
 8369TIP3    H149302   3.773   6.810   0.478
 8369TIP3    H249303   3.705   6.687   0.533
 8370TIP3   OH249304   3.726   6.533   0.631
 8370TIP3    H149305   3.639   6.519   0.666
 8370TIP3    H249306   3.780   6.554   0.707
 8371TIP3   OH249307   3.749   6.852   1.154
 8371TIP3    H149308   3.789   6.772   1.119
 8371TIP3    H249309   3.807   6.923   1.123
 8372TIP3   OH249310   3.534   7.093   1.369
 8372TIP3    H149311   3.463   7.144   1.408
 8372TIP3    H249312   3.510   7.086   1.276
 8373TIP3   OH249313   3.685   6.589   0.259
 8373TIP3    H149314   3.635   6.632   0.189
 8373TIP3    H249315   3.682   6.652   0.332
 8374TIP3   OH249316   3.440   6.335   0.141
 8374TIP3    H149317   3.399   6.420   0.127
 8374TIP3    H249318   3.458   6.302   0.052
 8375TIP3   OH249319   3.460   6.459   0.680
 8375TIP3    H149320   3.453   6.372   0.639
 8375TIP3    H249321   3.417   6.449   0.765
 8376TIP3   OH249322   1.984   6.569   1.182
 8376TIP3    H149323   2.008   6.576   1.090
 8376TIP3    H249324   2.062   6.533   1.225
 8377TIP3   OH249325   3.537   6.594   1.604
 8377TIP3    H149326   3.603   6.528   1.582
 8377TIP3    H249327   3.554   6.666   1.543
 8378TIP3   OH249328   3.722   6.373   1.623
 8378TIP3    H149329   3.673   6.353   1.703
 8378TIP3    H249330   3.787   6.304   1.616
 8379TIP3   OH249331   3.543   6.012  -0.002
 8379TIP3    H149332   3.635   5.988  -0.006
 8379TIP3    H249333   3.521   6.007   0.091
 8380TIP3   OH249334   3.451   6.225   0.513
 8380TIP3    H149335   3.489   6.138   0.523
 8380TIP3    H249336   3.511   6.270   0.453
 8381TIP3   OH249337   3.523   6.254   1.069
 8381TIP3    H149338   3.617   6.264   1.056
 8381TIP3    H249339   3.508   6.276   1.161
 8382TIP3   OH249340   3.496   6.355   1.328
 8382TIP3    H149341   3.413   6.390   1.359
 8382TIP3    H249342   3.551   6.432   1.313
 8383TIP3   OH249343   1.954   6.078   1.545
 8383TIP3    H149344   1.965   6.160   1.592
 8383TIP3    H249345   1.899   6.024   1.603
 8384TIP3   OH249346   3.765   5.724   1.805
 8384TIP3    H149347   3.842   5.667   1.803
 8384TIP3    H249348   3.782   5.790   1.738
 8385TIP3   OH249349   3.547   5.968   0.534
 8385TIP3    H149350   3.582   5.928   0.614
 8385TIP3    H249351   3.473   5.912   0.510
 8386TIP3   OH249352   2.077   5.998   0.971
 8386TIP3    H149353   2.115   5.912   0.954
 8386TIP3    H249354   2.152   6.055   0.989
 8387TIP3   OH249355   1.895   6.314   1.039
 8387TIP3    H149356   1.971   6.304   0.982
 8387TIP3    H249357   1.917   6.387   1.097
 8388TIP3   OH249358   3.708   5.917   1.610
 8388TIP3    H149359   3.634   5.946   1.664
 8388TIP3    H249360   3.672   5.848   1.555
 8389TIP3   OH249361   3.807   5.963   0.032
 8389TIP3    H149362   3.886   5.961  -0.022
 8389TIP3    H249363   3.830   6.019   0.107
 8390TIP3   OH249364   1.825   5.894   0.360
 8390TIP3    H149365   1.771   5.927   0.431
 8390TIP3    H249366   1.872   5.970   0.327
 8391TIP3   OH249367   3.385   7.449   0.673
 8391TIP3    H149368   3.465   7.417   0.632
 8391TIP3    H249369   3.414   7.489   0.755
 8392TIP3   OH249370   1.954   5.733   1.304
 8392TIP3    H149371   1.889   5.739   1.374
 8392TIP3    H249372   1.931   5.803   1.243
 8393TIP3   OH249373   2.140   7.113   1.669
 8393TIP3    H149374   2.048   7.122   1.643
 8393TIP3    H249375   2.136   7.096   1.763
 8394TIP3   OH249376   2.481   7.188   1.336
 8394TIP3    H149377   2.441   7.270   1.306
 8394TIP3    H249378   2.575   7.204   1.328
 8395TIP3   OH249379   2.885   7.339   1.584
 8395TIP3    H149380   2.873   7.300   1.671
 8395TIP3    H249381   2.974   7.376   1.587
 8396TIP3   OH249382   3.138   7.462   1.590
 8396TIP3    H149383   3.213   7.402   1.583
 8396TIP3    H249384   3.160   7.520   1.662
 8397TIP3   OH249385   3.618   5.698   1.460
 8397TIP3    H149386   3.565   5.729   1.386
 8397TIP3    H249387   3.641   5.608   1.438
 8398TIP3   OH249388   2.159   7.408   1.406
 8398TIP3    H149389   2.084   7.459   1.375
 8398TIP3    H249390   2.153   7.412   1.501
 8399TIP3   OH249391   2.399   7.444   1.268
 8399TIP3    H149392   2.317   7.443   1.317
 8399TIP3    H249393   2.384   7.507   1.197
 8400TIP3   OH249394   2.917   7.487   1.107
 8400TIP3    H149395   2.832   7.504   1.066
 8400TIP3    H249396   2.920   7.547   1.182
 8401TIP3   OH249397   3.022   7.287   1.259
 8401TIP3    H149398   2.984   7.349   1.197
 8401TIP3    H249399   3.102   7.329   1.289
 8402TIP3   OH249400   3.273   7.423   1.280
 8402TIP3    H149401   3.237   7.506   1.249
 8402TIP3    H249402   3.336   7.398   1.212
 8403TIP3   OH249403   2.121   7.317   1.049
 8403TIP3    H149404   2.121   7.270   1.132
 8403TIP3    H249405   2.203   7.292   1.008
 8404TIP3   OH249406   2.351   7.219   0.938
 8404TIP3    H149407   2.341   7.125   0.949
 8404TIP3    H249408   2.438   7.239   0.971
 8405TIP3   OH249409   2.614   7.236   1.036
 8405TIP3    H149410   2.622   7.144   1.011
 8405TIP3    H249411   2.656   7.241   1.122
 8406TIP3   OH249412   2.876   5.820   0.897
 8406TIP3    H149413   2.819   5.755   0.939
 8406TIP3    H249414   2.964   5.785   0.908
 8407TIP3   OH249415   3.432   5.720   0.875
 8407TIP3    H149416   3.508   5.755   0.829
 8407TIP3    H249417   3.397   5.794   0.924
 8408TIP3   OH249418   3.651   5.816   0.744
 8408TIP3    H149419   3.713   5.744   0.736
 8408TIP3    H249420   3.706   5.893   0.759
 8409TIP3   OH249421   2.180   5.707   0.637
 8409TIP3    H149422   2.089   5.680   0.627
 8409TIP3    H249423   2.229   5.624   0.637
 8410TIP3   OH249424   1.974   5.679   0.255
 8410TIP3    H149425   2.060   5.721   0.245
 8410TIP3    H249426   1.919   5.747   0.294
 8411TIP3   OH249427   2.698   5.614   0.703
 8411TIP3    H149428   2.765   5.673   0.669
 8411TIP3    H249429   2.701   5.626   0.798
 8412TIP3   OH249430   3.127   5.696   0.927
 8412TIP3    H149431   3.193   5.685   0.858
 8412TIP3    H249432   3.105   5.606   0.954
 8413TIP3   OH249433   3.341   5.801   0.461
 8413TIP3    H149434   3.261   5.852   0.474
 8413TIP3    H249435   3.313   5.710   0.465
 8414TIP3   OH249436   1.977   7.287   0.425
 8414TIP3    H149437   1.918   7.238   0.367
 8414TIP3    H249438   1.971   7.377   0.394
 8415TIP3   OH249439   2.230   5.789   0.253
 8415TIP3    H149440   2.267   5.851   0.190
 8415TIP3    H249441   2.254   5.825   0.339
 8416TIP3   OH249442   2.739   5.880   0.333
 8416TIP3    H149443   2.780   5.826   0.400
 8416TIP3    H249444   2.756   5.970   0.361
 8417TIP3   OH249445   2.936   7.468   0.235
 8417TIP3    H149446   3.024   7.485   0.269
 8417TIP3    H249447   2.950   7.420   0.154
 8418TIP3   OH249448   3.595   7.362   0.525
 8418TIP3    H149449   3.566   7.277   0.491
 8418TIP3    H249450   3.610   7.414   0.446
 8419TIP3   OH249451   2.222   5.786   1.664
 8419TIP3    H149452   2.153   5.720   1.661
 8419TIP3    H249453   2.293   5.744   1.714
 8420TIP3   OH249454   2.377   5.627   1.837
 8420TIP3    H149455   2.452   5.567   1.835
 8420TIP3    H249456   2.304   5.573   1.865
 8421TIP3   OH249457   2.073   7.492   0.071
 8421TIP3    H149458   2.036   7.500   0.158
 8421TIP3    H249459   2.142   7.559   0.067
 8422TIP3   OH249460   3.252   5.649   1.781
 8422TIP3    H149461   3.242   5.609   1.868
 8422TIP3    H249462   3.344   5.637   1.760
 8423TIP3   OH249463   3.505   7.264   1.717
 8423TIP3    H149464   3.454   7.249   1.637
 8423TIP3    H249465   3.509   7.359   1.724
 8424TIP3   OH249466   4.982   6.685   0.632
 8424TIP3    H149467   4.967   6.780   0.627
 8424TIP3    H249468   4.912   6.647   0.579
 8425TIP3   OH249469   4.863   6.592   1.040
 8425TIP3    H149470   4.901   6.544   1.114
 8425TIP3    H249471   4.813   6.527   0.992
 8426TIP3   OH249472   4.064   6.446   1.161
 8426TIP3    H149473   4.094   6.388   1.231
 8426TIP3    H249474   4.145   6.488   1.129
 8427TIP3   OH249475   5.332   6.888   0.930
 8427TIP3    H149476   5.262   6.828   0.955
 8427TIP3    H249477   5.321   6.964   0.987
 8428TIP3   OH249478   4.206   6.958   0.970
 8428TIP3    H149479   4.184   6.874   0.929
 8428TIP3    H249480   4.301   6.954   0.983
 8429TIP3   OH249481   3.806   6.271   0.566
 8429TIP3    H149482   3.791   6.362   0.592
 8429TIP3    H249483   3.757   6.262   0.484
 8430TIP3   OH249484   3.919   6.569   0.827
 8430TIP3    H149485   3.954   6.480   0.839
 8430TIP3    H249486   3.997   6.625   0.824
 8431TIP3   OH249487   4.891   7.337   0.856
 8431TIP3    H149488   4.974   7.291   0.843
 8431TIP3    H249489   4.884   7.349   0.950
 8432TIP3   OH249490   4.697   6.823   1.072
 8432TIP3    H149491   4.740   6.746   1.035
 8432TIP3    H249492   4.759   6.858   1.136
 8433TIP3   OH249493   5.650   5.964   1.173
 8433TIP3    H149494   5.657   6.035   1.238
 8433TIP3    H249495   5.713   5.987   1.105
 8434TIP3   OH249496   5.012   6.271   1.012
 8434TIP3    H149497   5.003   6.178   1.034
 8434TIP3    H249498   4.970   6.280   0.927
 8435TIP3   OH249499   4.354   6.042   0.791
 8435TIP3    H149500   4.360   6.127   0.747
 8435TIP3    H249501   4.296   5.991   0.735
 8436TIP3   OH249502   5.128   6.113   0.686
 8436TIP3    H149503   5.168   6.058   0.754
 8436TIP3    H249504   5.202   6.158   0.645
 8437TIP3   OH249505   4.005   6.310   0.873
 8437TIP3    H149506   4.072   6.274   0.931
 8437TIP3    H249507   4.025   6.273   0.787
 8438TIP3   OH249508   4.453   6.457   0.846
 8438TIP3    H149509   4.544   6.434   0.866
 8438TIP3    H249510   4.422   6.385   0.791
 8439TIP3   OH249511   5.638   6.128   1.400
 8439TIP3    H149512   5.569   6.187   1.371
 8439TIP3    H249513   5.607   6.095   1.484
 8440TIP3   OH249514   4.244   5.984   1.224
 8440TIP3    H149515   4.203   6.043   1.161
 8440TIP3    H249516   4.188   5.988   1.301
 8441TIP3   OH249517   4.925   6.943   0.558
 8441TIP3    H149518   4.919   6.958   0.464
 8441TIP3    H249519   4.880   7.018   0.598
 8442TIP3   OH249520   4.449   6.756   1.189
 8442TIP3    H149521   4.404   6.830   1.228
 8442TIP3    H249522   4.524   6.794   1.145
 8443TIP3   OH249523   5.244   5.994   0.956
 8443TIP3    H149524   5.155   6.002   0.990
 8443TIP3    H249525   5.286   6.077   0.979
 8444TIP3   OH249526   4.201   6.150   1.000
 8444TIP3    H149527   4.263   6.204   1.048
 8444TIP3    H249528   4.254   6.105   0.934
 8445TIP3   OH249529   4.316   6.957   1.332
 8445TIP3    H149530   4.329   7.052   1.336
 8445TIP3    H249531   4.228   6.945   1.368
 8446TIP3   OH249532   3.941   6.889   0.472
 8446TIP3    H149533   3.943   6.939   0.391
 8446TIP3    H249534   3.963   6.952   0.540
 8447TIP3   OH249535   5.288   7.116   1.089
 8447TIP3    H149536   5.195   7.104   1.105
 8447TIP3    H249537   5.297   7.208   1.063
 8448TIP3   OH249538   5.379   5.909   1.198
 8448TIP3    H149539   5.338   5.935   1.115
 8448TIP3    H249540   5.472   5.924   1.184
 8449TIP3   OH249541   4.582   5.654   1.016
 8449TIP3    H149542   4.557   5.562   1.024
 8449TIP3    H249543   4.501   5.702   1.033
 8450TIP3   OH249544   5.128   7.242   0.751
 8450TIP3    H149545   5.171   7.158   0.737
 8450TIP3    H249546   5.194   7.307   0.725
 8451TIP3   OH249547   5.282   7.024   0.693
 8451TIP3    H149548   5.294   6.967   0.617
 8451TIP3    H249549   5.309   6.971   0.768
 8452TIP3   OH249550   5.379   6.871   1.433
 8452TIP3    H149551   5.376   6.818   1.353
 8452TIP3    H249552   5.397   6.960   1.401
 8453TIP3   OH249553   4.827   6.595   0.414
 8453TIP3    H149554   4.771   6.665   0.379
 8453TIP3    H249555   4.904   6.595   0.357
 8454TIP3   OH249556   4.912   6.458   0.062
 8454TIP3    H149557   4.971   6.484   0.133
 8454TIP3    H249558   4.953   6.380   0.024
 8455TIP3   OH249559   5.546   6.538   1.292
 8455TIP3    H149560   5.480   6.605   1.274
 8455TIP3    H249561   5.608   6.545   1.219
 8456TIP3   OH249562   5.221   6.625   0.520
 8456TIP3    H149563   5.142   6.644   0.571
 8456TIP3    H249564   5.275   6.573   0.579
 8457TIP3   OH249565   5.171   6.374   1.447
 8457TIP3    H149566   5.166   6.444   1.512
 8457TIP3    H249567   5.113   6.402   1.376
 8458TIP3   OH249568   4.339   6.630   0.655
 8458TIP3    H149569   4.319   6.583   0.573
 8458TIP3    H249570   4.388   6.566   0.707
 8459TIP3   OH249571   4.489   6.979   0.964
 8459TIP3    H149572   4.488   6.988   0.868
 8459TIP3    H249573   4.568   6.929   0.982
 8460TIP3   OH249574   4.310   6.554   1.061
 8460TIP3    H149575   4.368   6.529   0.989
 8460TIP3    H249576   4.358   6.623   1.108
 8461TIP3   OH249577   5.032   7.076   1.167
 8461TIP3    H149578   4.989   7.147   1.214
 8461TIP3    H249579   4.986   6.997   1.196
 8462TIP3   OH249580   4.499   6.966   1.545
 8462TIP3    H149581   4.444   7.017   1.606
 8462TIP3    H249582   4.441   6.945   1.472
 8463TIP3   OH249583   5.077   6.552   0.293
 8463TIP3    H149584   5.128   6.584   0.368
 8463TIP3    H249585   5.138   6.554   0.220
 8464TIP3   OH249586   4.145   6.511   1.510
 8464TIP3    H149587   4.153   6.567   1.587
 8464TIP3    H249588   4.056   6.527   1.478
 8465TIP3   OH249589   4.795   7.172   0.647
 8465TIP3    H149590   4.817   7.218   0.728
 8465TIP3    H249591   4.753   7.239   0.593
 8466TIP3   OH249592   4.307   7.138   1.657
 8466TIP3    H149593   4.316   7.177   1.569
 8466TIP3    H249594   4.213   7.124   1.667
 8467TIP3   OH249595   5.412   5.714   0.326
 8467TIP3    H149596   5.329   5.735   0.369
 8467TIP3    H249597   5.431   5.790   0.270
 8468TIP3   OH249598   4.274   6.519   0.404
 8468TIP3    H149599   4.208   6.581   0.374
 8468TIP3    H249600   4.256   6.439   0.355
 8469TIP3   OH249601   5.546   7.102   0.148
 8469TIP3    H149602   5.556   7.193   0.118
 8469TIP3    H249603   5.634   7.075   0.171
 8470TIP3   OH249604   3.854   6.817   1.411
 8470TIP3    H149605   3.810   6.827   1.326
 8470TIP3    H249606   3.868   6.723   1.419
 8471TIP3   OH249607   3.954   7.023   1.078
 8471TIP3    H149608   4.040   6.995   1.044
 8471TIP3    H249609   3.975   7.081   1.151
 8472TIP3   OH249610   5.596   7.115   1.662
 8472TIP3    H149611   5.586   7.020   1.664
 8472TIP3    H249612   5.520   7.149   1.710
 8473TIP3   OH249613   4.733   7.106   1.510
 8473TIP3    H149614   4.729   7.193   1.550
 8473TIP3    H249615   4.647   7.068   1.528
 8474TIP3   OH249616   4.740   7.401   0.495
 8474TIP3    H149617   4.733   7.461   0.421
 8474TIP3    H249618   4.684   7.439   0.562
 8475TIP3   OH249619   4.178   7.304   0.690
 8475TIP3    H149620   4.190   7.285   0.783
 8475TIP3    H249621   4.114   7.239   0.660
 8476TIP3   OH249622   5.016   7.441   0.264
 8476TIP3    H149623   5.061   7.378   0.207
 8476TIP3    H249624   5.017   7.400   0.351
 8477TIP3   OH249625   5.014   7.370   0.529
 8477TIP3    H149626   4.918   7.371   0.533
 8477TIP3    H249627   5.041   7.302   0.590
 8478TIP3   OH249628   5.361   6.255   1.619
 8478TIP3    H149629   5.298   6.306   1.568
 8478TIP3    H249630   5.363   6.170   1.576
 8479TIP3   OH249631   4.067   6.984   1.459
 8479TIP3    H149632   4.060   7.007   1.552
 8479TIP3    H249633   3.996   6.923   1.444
 8480TIP3   OH249634   4.333   5.778   1.061
 8480TIP3    H149635   4.257   5.773   1.004
 8480TIP3    H249636   4.316   5.856   1.115
 8481TIP3   OH249637   4.797   5.794   1.423
 8481TIP3    H149638   4.839   5.754   1.499
 8481TIP3    H249639   4.703   5.791   1.444
 8482TIP3   OH249640   5.090   6.105   1.503
 8482TIP3    H149641   5.046   6.091   1.587
 8482TIP3    H249642   5.101   6.199   1.498
 8483TIP3   OH249643   5.236   6.516   0.076
 8483TIP3    H149644   5.196   6.539  -0.008
 8483TIP3    H249645   5.316   6.567   0.080
 8484TIP3   OH249646   4.685   6.044   0.157
 8484TIP3    H149647   4.648   5.989   0.226
 8484TIP3    H249648   4.611   6.064   0.100
 8485TIP3   OH249649   4.362   6.302   1.168
 8485TIP3    H149650   4.308   6.293   1.246
 8485TIP3    H249651   4.351   6.394   1.142
 8486TIP3   OH249652   4.327   6.286   0.665
 8486TIP3    H149653   4.232   6.275   0.660
 8486TIP3    H249654   4.357   6.273   0.575
 8487TIP3   OH249655   4.832   6.337   0.511
 8487TIP3    H149656   4.815   6.427   0.485
 8487TIP3    H249657   4.907   6.310   0.459
 8488TIP3   OH249658   4.827   6.320   1.634
 8488TIP3    H149659   4.781   6.247   1.677
 8488TIP3    H249660   4.902   6.338   1.691
 8489TIP3   OH249661   4.901   6.255   0.763
 8489TIP3    H149662   4.871   6.294   0.681
 8489TIP3    H249663   4.974   6.199   0.738
 8490TIP3   OH249664   4.169   6.279   1.361
 8490TIP3    H149665   4.164   6.345   1.430
 8490TIP3    H249666   4.150   6.196   1.406
 8491TIP3   OH249667   4.395   6.040   0.100
 8491TIP3    H149668   4.361   6.006   0.183
 8491TIP3    H249669   4.364   6.131   0.096
 8492TIP3   OH249670   3.795   6.045   0.758
 8492TIP3    H149671   3.848   6.057   0.837
 8492TIP3    H249672   3.802   6.128   0.711
 8493TIP3   OH249673   3.845   6.139   0.245
 8493TIP3    H149674   3.917   6.190   0.207
 8493TIP3    H249675   3.778   6.204   0.266
 8494TIP3   OH249676   4.982   6.423   1.239
 8494TIP3    H149677   5.000   6.368   1.163
 8494TIP3    H249678   4.908   6.381   1.282
 8495TIP3   OH249679   4.638   5.988   0.745
 8495TIP3    H149680   4.548   5.993   0.777
 8495TIP3    H249681   4.688   5.955   0.819
 8496TIP3   OH249682   4.067   6.195   0.635
 8496TIP3    H149683   3.984   6.209   0.589
 8496TIP3    H249684   4.088   6.103   0.618
 8497TIP3   OH249685   4.383   6.209   0.405
 8497TIP3    H149686   4.477   6.204   0.422
 8497TIP3    H249687   4.377   6.251   0.319
 8498TIP3   OH249688   4.980   6.001   1.051
 8498TIP3    H149689   4.951   6.003   1.142
 8498TIP3    H249690   4.916   5.946   1.007
 8499TIP3   OH249691   4.294   6.304   0.159
 8499TIP3    H149692   4.200   6.297   0.142
 8499TIP3    H249693   4.328   6.353   0.084
 8500TIP3   OH249694   5.390   7.508   1.733
 8500TIP3    H149695   5.394   7.533   1.641
 8500TIP3    H249696   5.477   7.529   1.768
 8501TIP3   OH249697   4.133   6.661   1.739
 8501TIP3    H149698   4.207   6.690   1.793
 8501TIP3    H249699   4.059   6.713   1.771
 8502TIP3   OH249700   4.708   6.373   0.927
 8502TIP3    H149701   4.768   6.327   0.869
 8502TIP3    H249702   4.687   6.309   0.995
 8503TIP3   OH249703   4.167   5.936   0.606
 8503TIP3    H149704   4.123   5.855   0.631
 8503TIP3    H249705   4.202   5.919   0.519
 8504TIP3   OH249706   4.624   6.220   1.144
 8504TIP3    H149707   4.536   6.257   1.156
 8504TIP3    H249708   4.673   6.251   1.220
 8505TIP3   OH249709   4.660   6.810   0.319
 8505TIP3    H149710   4.596   6.757   0.270
 8505TIP3    H249711   4.621   6.819   0.406
 8506TIP3   OH249712   5.374   6.732   1.196
 8506TIP3    H149713   5.435   6.783   1.143
 8506TIP3    H249714   5.299   6.716   1.138
 8507TIP3   OH249715   4.950   6.059   0.225
 8507TIP3    H149716   4.858   6.061   0.200
 8507TIP3    H249717   4.970   6.148   0.253
 8508TIP3   OH249718   4.783   6.827   1.514
 8508TIP3    H149719   4.823   6.812   1.599
 8508TIP3    H249720   4.760   6.920   1.514
 8509TIP3   OH249721   5.053   6.285   0.355
 8509TIP3    H149722   5.144   6.259   0.337
 8509TIP3    H249723   5.053   6.380   0.338
 8510TIP3   OH249724   4.168   6.700   0.861
 8510TIP3    H149725   4.222   6.686   0.784
 8510TIP3    H249726   4.210   6.648   0.930
 8511TIP3   OH249727   4.889   6.965   0.275
 8511TIP3    H149728   4.850   7.052   0.269
 8511TIP3    H249729   4.814   6.906   0.284
 8512TIP3   OH249730   3.868   6.542   1.456
 8512TIP3    H149731   3.836   6.489   1.529
 8512TIP3    H249732   3.799   6.536   1.390
 8513TIP3   OH249733   4.623   6.501   1.699
 8513TIP3    H149734   4.553   6.480   1.638
 8513TIP3    H249735   4.700   6.455   1.665
 8514TIP3   OH249736   5.010   7.073   1.521
 8514TIP3    H149737   4.919   7.085   1.494
 8514TIP3    H249738   5.008   7.078   1.616
 8515TIP3   OH249739   5.530   6.309   0.362
 8515TIP3    H149740   5.450   6.297   0.312
 8515TIP3    H249741   5.555   6.400   0.347
 8516TIP3   OH249742   5.570   6.830   1.622
 8516TIP3    H149743   5.490   6.843   1.572
 8516TIP3    H249744   5.640   6.832   1.556
 8517TIP3   OH249745   5.433   7.128   0.400
 8517TIP3    H149746   5.388   7.048   0.426
 8517TIP3    H249747   5.460   7.112   0.310
 8518TIP3   OH249748   5.163   6.679   1.017
 8518TIP3    H149749   5.068   6.678   1.002
 8518TIP3    H249750   5.193   6.593   0.986
 8519TIP3   OH249751   4.426   7.032   0.698
 8519TIP3    H149752   4.451   7.115   0.658
 8519TIP3    H249753   4.332   7.024   0.680
 8520TIP3   OH249754   3.933   6.557   0.143
 8520TIP3    H149755   3.993   6.607   0.198
 8520TIP3    H249756   3.849   6.562   0.189
 8521TIP3   OH249757   4.524   6.815   0.554
 8521TIP3    H149758   4.509   6.894   0.606
 8521TIP3    H249759   4.461   6.752   0.588
 8522TIP3   OH249760   4.617   7.272   1.296
 8522TIP3    H149761   4.627   7.364   1.323
 8522TIP3    H249762   4.693   7.228   1.333
 8523TIP3   OH249763   4.430   7.286   0.584
 8523TIP3    H149764   4.340   7.304   0.611
 8523TIP3    H249765   4.482   7.355   0.625
 8524TIP3   OH249766   4.901   6.849   1.263
 8524TIP3    H149767   4.866   6.839   1.352
 8524TIP3    H249768   4.960   6.775   1.252
 8525TIP3   OH249769   5.170   6.981   0.232
 8525TIP3    H149770   5.211   6.949   0.313
 8525TIP3    H249771   5.076   6.970   0.246
 8526TIP3   OH249772   5.204   7.265   1.499
 8526TIP3    H149773   5.134   7.199   1.493
 8526TIP3    H249774   5.187   7.325   1.427
 8527TIP3   OH249775   5.583   7.371   0.088
 8527TIP3    H149776   5.673   7.401   0.099
 8527TIP3    H249777   5.533   7.417   0.155
 8528TIP3   OH249778   4.096   6.018   1.457
 8528TIP3    H149779   4.011   6.052   1.484
 8528TIP3    H249780   4.112   5.944   1.515
 8529TIP3   OH249781   5.334   6.869   0.454
 8529TIP3    H149782   5.283   6.789   0.472
 8529TIP3    H249783   5.425   6.841   0.460
 8530TIP3   OH249784   4.025   7.198   1.288
 8530TIP3    H149785   4.044   7.125   1.347
 8530TIP3    H249786   4.036   7.276   1.343
 8531TIP3   OH249787   4.440   6.985   0.207
 8531TIP3    H149788   4.520   6.936   0.225
 8531TIP3    H249789   4.455   7.072   0.244
 8532TIP3   OH249790   4.092   6.708   0.310
 8532TIP3    H149791   4.048   6.760   0.377
 8532TIP3    H249792   4.135   6.773   0.253
 8533TIP3   OH249793   4.907   6.020   1.317
 8533TIP3    H149794   4.980   6.037   1.378
 8533TIP3    H249795   4.866   5.941   1.352
 8534TIP3   OH249796   4.990   5.960   0.488
 8534TIP3    H149797   4.983   5.997   0.400
 8534TIP3    H249798   5.029   6.030   0.541
 8535TIP3   OH249799   4.759   7.209   0.280
 8535TIP3    H149800   4.663   7.203   0.286
 8535TIP3    H249801   4.782   7.271   0.349
 8536TIP3   OH249802   4.629   6.152   0.519
 8536TIP3    H149803   4.699   6.217   0.516
 8536TIP3    H249804   4.641   6.108   0.603
 8537TIP3   OH249805   4.788   6.269   1.361
 8537TIP3    H149806   4.795   6.290   1.454
 8537TIP3    H249807   4.823   6.180   1.354
 8538TIP3   OH249808   4.760   5.822   0.549
 8538TIP3    H149809   4.722   5.871   0.622
 8538TIP3    H249810   4.844   5.865   0.532
 8539TIP3   OH249811   4.488   7.230   0.321
 8539TIP3    H149812   4.458   7.310   0.279
 8539TIP3    H249813   4.468   7.242   0.413
 8540TIP3   OH249814   4.301   5.950   0.355
 8540TIP3    H149815   4.306   6.042   0.381
 8540TIP3    H249816   4.391   5.917   0.367
 8541TIP3   OH249817   5.346   6.010   1.462
 8541TIP3    H149818   5.252   6.025   1.471
 8541TIP3    H249819   5.357   5.976   1.373
 8542TIP3   OH249820   5.239   6.415   0.947
 8542TIP3    H149821   5.155   6.373   0.967
 8542TIP3    H249822   5.304   6.354   0.982
 8543TIP3   OH249823   4.192   6.904   0.134
 8543TIP3    H149824   4.278   6.930   0.166
 8543TIP3    H249825   4.201   6.907   0.039
 8544TIP3   OH249826   4.020   6.301   0.096
 8544TIP3    H149827   3.991   6.391   0.109
 8544TIP3    H249828   4.002   6.283   0.004
 8545TIP3   OH249829   5.342   7.399   1.081
 8545TIP3    H149830   5.322   7.459   1.010
 8545TIP3    H249831   5.437   7.407   1.094
 8546TIP3   OH249832   4.077   5.768   0.946
 8546TIP3    H149833   4.070   5.751   0.852
 8546TIP3    H249834   4.049   5.687   0.988
 8547TIP3   OH249835   3.975   7.128   0.621
 8547TIP3    H149836   3.922   7.145   0.699
 8547TIP3    H249837   3.930   7.175   0.550
 8548TIP3   OH249838   3.958   7.409   1.699
 8548TIP3    H149839   3.996   7.396   1.786
 8548TIP3    H249840   3.892   7.340   1.691
 8549TIP3   OH249841   4.310   7.223   1.922
 8549TIP3    H149842   4.374   7.177   1.977
 8549TIP3    H249843   4.328   7.193   1.833
 8550TIP3   OH249844   4.772   7.256   0.003
 8550TIP3    H149845   4.791   7.165  -0.020
 8550TIP3    H249846   4.783   7.260   0.098
 8551TIP3   OH249847   5.009   7.075   1.793
 8551TIP3    H149848   4.979   6.984   1.797
 8551TIP3    H249849   5.079   7.081   1.858
 8552TIP3   OH249850   5.158   7.250   0.130
 8552TIP3    H149851   5.171   7.159   0.158
 8552TIP3    H249852   5.222   7.263   0.060
 8553TIP3   OH249853   3.905   6.790   1.835
 8553TIP3    H149854   3.837   6.728   1.862
 8553TIP3    H249855   3.862   6.844   1.768
 8554TIP3   OH249856   4.358   6.690   9.966
 8554TIP3    H149857   4.367   6.698  10.061
 8554TIP3    H249858   4.444   6.711   9.931
 8555TIP3   OH249859   4.560   6.773   1.741
 8555TIP3    H149860   4.557   6.816   1.655
 8555TIP3    H249861   4.597   6.687   1.723
 8556TIP3   OH249862   5.135   6.816   1.546
 8556TIP3    H149863   5.221   6.837   1.510
 8556TIP3    H249864   5.083   6.895   1.534
 8557TIP3   OH249865   4.000   6.425   1.811
 8557TIP3    H149866   4.055   6.488   1.764
 8557TIP3    H249867   3.990   6.462   1.899
 8558TIP3   OH249868   4.450   6.650   0.228
 8558TIP3    H149869   4.407   6.602   0.299
 8558TIP3    H249870   4.512   6.587   0.191
 8559TIP3   OH249871   4.423   6.444   1.503
 8559TIP3    H149872   4.332   6.475   1.504
 8559TIP3    H249873   4.473   6.517   1.466
 8560TIP3   OH249874   4.642   6.514   0.096
 8560TIP3    H149875   4.641   6.581   0.028
 8560TIP3    H249876   4.732   6.479   0.094
 8561TIP3   OH249877   4.996   6.598   1.864
 8561TIP3    H149878   5.051   6.551   1.801
 8561TIP3    H249879   4.952   6.529   1.914
 8562TIP3   OH249880   5.456   6.671   0.066
 8562TIP3    H149881   5.519   6.651  -0.003
 8562TIP3    H249882   5.430   6.761   0.050
 8563TIP3   OH249883   4.470   6.180   1.564
 8563TIP3    H149884   4.480   6.129   1.483
 8563TIP3    H249885   4.460   6.270   1.534
 8564TIP3   OH249886   4.495   6.036   1.324
 8564TIP3    H149887   4.549   6.075   1.255
 8564TIP3    H249888   4.409   6.024   1.283
 8565TIP3   OH249889   4.572   6.657   1.423
 8565TIP3    H149890   4.647   6.711   1.446
 8565TIP3    H249891   4.540   6.694   1.341
 8566TIP3   OH249892   5.039   6.301   1.827
 8566TIP3    H149893   5.018   6.211   1.803
 8566TIP3    H249894   5.131   6.298   1.854
 8567TIP3   OH249895   5.185   6.563   1.646
 8567TIP3    H149896   5.157   6.650   1.616
 8567TIP3    H249897   5.271   6.578   1.684
 8568TIP3   OH249898   4.300   6.203   1.785
 8568TIP3    H149899   4.214   6.168   1.763
 8568TIP3    H249900   4.349   6.199   1.703
 8569TIP3   OH249901   4.522   5.785   1.437
 8569TIP3    H149902   4.510   5.874   1.404
 8569TIP3    H249903   4.459   5.733   1.388
 8570TIP3   OH249904   4.676   6.114   1.743
 8570TIP3    H149905   4.630   6.090   1.824
 8570TIP3    H249906   4.607   6.128   1.679
 8571TIP3   OH249907   4.958   6.056   1.741
 8571TIP3    H149908   4.863   6.048   1.753
 8571TIP3    H249909   4.995   5.994   1.804
 8572TIP3   OH249910   5.104   5.904   1.922
 8572TIP3    H149911   5.098   5.812   1.895
 8572TIP3    H249912   5.078   5.904   2.014
 8573TIP3   OH249913   4.056   6.057   1.773
 8573TIP3    H149914   4.078   5.964   1.779
 8573TIP3    H249915   4.047   6.085   1.864
 8574TIP3   OH249916   4.516   5.669   1.684
 8574TIP3    H149917   4.571   5.593   1.668
 8574TIP3    H249918   4.512   5.714   1.600
 8575TIP3   OH249919   4.615   5.811   1.897
 8575TIP3    H149920   4.586   5.761   1.820
 8575TIP3    H249921   4.556   5.886   1.899
 8576TIP3   OH249922   4.437   7.481   0.212
 8576TIP3    H149923   4.463   7.549   0.275
 8576TIP3    H249924   4.503   7.486   0.143
 8577TIP3   OH249925   3.964   7.018   0.233
 8577TIP3    H149926   4.049   6.993   0.199
 8577TIP3    H249927   3.902   6.991   0.165
 8578TIP3   OH249928   3.806   7.403   0.695
 8578TIP3    H149929   3.733   7.390   0.634
 8578TIP3    H249930   3.802   7.327   0.753
 8579TIP3   OH249931   3.857   7.190   0.867
 8579TIP3    H149932   3.859   7.109   0.918
 8579TIP3    H249933   3.890   7.257   0.927
 8580TIP3   OH249934   5.613   7.442   1.131
 8580TIP3    H149935   5.642   7.499   1.203
 8580TIP3    H249936   5.692   7.399   1.100
 8581TIP3   OH249937   5.566   7.311   1.466
 8581TIP3    H149938   5.529   7.250   1.402
 8581TIP3    H249939   5.593   7.256   1.539
 8582TIP3   OH249940   5.398   6.899   1.929
 8582TIP3    H149941   5.324   6.959   1.918
 8582TIP3    H249942   5.473   6.957   1.943
 8583TIP3   OH249943   5.588   6.761   0.485
 8583TIP3    H149944   5.669   6.813   0.484
 8583TIP3    H249945   5.605   6.693   0.549
 8584TIP3   OH249946   5.627   6.542   0.652
 8584TIP3    H149947   5.539   6.524   0.686
 8584TIP3    H249948   5.679   6.563   0.729
 8585TIP3   OH249949   5.651   6.824   1.159
 8585TIP3    H149950   5.678   6.743   1.118
 8585TIP3    H249951   5.709   6.891   1.122
 8586TIP3   OH249952   5.401   7.128   1.340
 8586TIP3    H149953   5.329   7.171   1.386
 8586TIP3    H249954   5.371   7.122   1.249
 8587TIP3   OH249955   5.577   6.570   0.289
 8587TIP3    H149956   5.525   6.607   0.217
 8587TIP3    H249957   5.574   6.637   0.357
 8588TIP3   OH249958   5.300   6.286   0.219
 8588TIP3    H149959   5.275   6.359   0.161
 8588TIP3    H249960   5.292   6.208   0.164
 8589TIP3   OH249961   5.361   6.460   0.701
 8589TIP3    H149962   5.358   6.371   0.666
 8589TIP3    H249963   5.317   6.455   0.785
 8590TIP3   OH249964   3.858   6.610   1.090
 8590TIP3    H149965   3.863   6.601   0.995
 8590TIP3    H249966   3.934   6.561   1.122
 8591TIP3   OH249967   5.447   6.600   1.736
 8591TIP3    H149968   5.509   6.531   1.710
 8591TIP3    H249969   5.487   6.681   1.705
 8592TIP3   OH249970   5.601   6.383   1.664
 8592TIP3    H149971   5.521   6.334   1.646
 8592TIP3    H249972   5.663   6.318   1.698
 8593TIP3   OH249973   5.293   6.058   0.069
 8593TIP3    H149974   5.355   5.991   0.097
 8593TIP3    H249975   5.212   6.010   0.049
 8594TIP3   OH249976   5.364   6.210   0.571
 8594TIP3    H149977   5.389   6.118   0.565
 8594TIP3    H249978   5.415   6.253   0.502
 8595TIP3   OH249979   5.399   6.211   1.050
 8595TIP3    H149980   5.487   6.230   1.017
 8595TIP3    H249981   5.404   6.227   1.144
 8596TIP3   OH249982   5.422   6.295   1.315
 8596TIP3    H149983   5.336   6.316   1.353
 8596TIP3    H249984   5.467   6.380   1.311
 8597TIP3   OH249985   3.868   6.135   1.585
 8597TIP3    H149986   3.934   6.129   1.655
 8597TIP3    H249987   3.814   6.057   1.596
 8598TIP3   OH249988   5.630   5.758   1.805
 8598TIP3    H149989   5.690   5.684   1.789
 8598TIP3    H249990   5.645   5.817   1.731
 8599TIP3   OH249991   5.423   5.943   0.545
 8599TIP3    H149992   5.466   5.901   0.620
 8599TIP3    H249993   5.348   5.886   0.526
 8600TIP3   OH249994   3.950   6.011   0.996
 8600TIP3    H149995   3.986   5.923   0.983
 8600TIP3    H249996   4.027   6.068   1.003
 8601TIP3   OH249997   3.798   6.301   1.063
 8601TIP3    H149998   3.852   6.294   0.985
 8601TIP3    H249999   3.854   6.343   1.128
 8602TIP3   OH250000   5.540   5.996   1.655
 8602TIP3    H150001   5.486   5.998   1.734
 8602TIP3    H250002   5.477   5.978   1.584
 8603TIP3   OH250003   5.506   5.902   0.142
 8603TIP3    H150004   5.557   5.849   0.081
 8603TIP3    H250005   5.569   5.968   0.174
 8604TIP3   OH250006   3.762   5.896   0.360
 8604TIP3    H150007   3.710   5.933   0.431
 8604TIP3    H250008   3.803   5.972   0.319
 8605TIP3   OH250009   5.297   7.442   0.660
 8605TIP3    H150010   5.383   7.414   0.630
 8605TIP3    H250011   5.315   7.495   0.738
 8606TIP3   OH250012   3.858   5.760   1.320
 8606TIP3    H150013   3.787   5.743   1.381
 8606TIP3    H250014   3.823   5.826   1.260
 8607TIP3   OH250015   4.039   7.093   1.717
 8607TIP3    H150016   3.957   7.140   1.701
 8607TIP3    H250017   4.036   7.072   1.810
 8608TIP3   OH250018   4.364   7.222   1.395
 8608TIP3    H150019   4.331   7.310   1.379
 8608TIP3    H250020   4.456   7.225   1.367
 8609TIP3   OH250021   4.745   7.363   1.620
 8609TIP3    H150022   4.751   7.322   1.706
 8609TIP3    H250023   4.831   7.404   1.608
 8610TIP3   OH250024   5.003   7.466   1.601
 8610TIP3    H150025   5.071   7.401   1.587
 8610TIP3    H250026   5.030   7.512   1.681
 8611TIP3   OH250027   5.476   5.664   1.461
 8611TIP3    H150028   5.399   5.663   1.403
 8611TIP3    H250029   5.512   5.576   1.453
 8612TIP3   OH250030   4.048   7.433   1.436
 8612TIP3    H150031   3.977   7.489   1.404
 8612TIP3    H250032   4.033   7.426   1.530
 8613TIP3   OH250033   4.306   7.486   1.343
 8613TIP3    H150034   4.216   7.481   1.376
 8613TIP3    H250035   4.297   7.522   1.255
 8614TIP3   OH250036   4.807   7.476   1.114
 8614TIP3    H150037   4.723   7.494   1.071
 8614TIP3    H250038   4.814   7.543   1.182
 8615TIP3   OH250039   4.935   7.303   1.284
 8615TIP3    H150040   4.881   7.353   1.222
 8615TIP3    H250041   5.011   7.359   1.300
 8616TIP3   OH250042   5.183   7.453   1.297
 8616TIP3    H150043   5.146   7.539   1.274
 8616TIP3    H250044   5.235   7.428   1.221
 8617TIP3   OH250045   3.989   7.347   1.059
 8617TIP3    H150046   3.989   7.303   1.144
 8617TIP3    H250047   4.071   7.318   1.018
 8618TIP3   OH250048   4.220   7.235   0.955
 8618TIP3    H150049   4.210   7.140   0.960
 8618TIP3    H250050   4.307   7.253   0.991
 8619TIP3   OH250051   4.484   7.241   1.055
 8619TIP3    H150052   4.494   7.151   1.026
 8619TIP3    H250053   4.529   7.245   1.139
 8620TIP3   OH250054   4.787   5.829   0.929
 8620TIP3    H150055   4.716   5.777   0.968
 8620TIP3    H250056   4.833   5.768   0.872
 8621TIP3   OH250057   5.352   5.743   0.884
 8621TIP3    H150058   5.432   5.774   0.842
 8621TIP3    H250059   5.303   5.822   0.905
 8622TIP3   OH250060   5.569   5.824   0.743
 8622TIP3    H150061   5.629   5.752   0.725
 8622TIP3    H250062   5.624   5.902   0.748
 8623TIP3   OH250063   4.051   5.695   0.681
 8623TIP3    H150064   3.962   5.661   0.675
 8623TIP3    H250065   4.107   5.618   0.668
 8624TIP3   OH250066   3.913   5.669   0.251
 8624TIP3    H150067   4.000   5.701   0.227
 8624TIP3    H250068   3.867   5.746   0.284
 8625TIP3   OH250069   4.598   5.612   0.735
 8625TIP3    H150070   4.690   5.625   0.716
 8625TIP3    H250071   4.590   5.630   0.829
 8626TIP3   OH250072   4.882   5.627   0.764
 8626TIP3    H150073   4.939   5.631   0.687
 8626TIP3    H250074   4.889   5.537   0.795
 8627TIP3   OH250075   5.201   5.783   0.492
 8627TIP3    H150076   5.126   5.841   0.484
 8627TIP3    H250077   5.163   5.698   0.516
 8628TIP3   OH250078   3.861   7.224   0.384
 8628TIP3    H150079   3.768   7.211   0.365
 8628TIP3    H250080   3.906   7.161   0.327
 8629TIP3   OH250081   4.164   5.766   0.193
 8629TIP3    H150082   4.230   5.752   0.125
 8629TIP3    H250083   4.203   5.828   0.253
 8630TIP3   OH250084   4.570   5.923   0.379
 8630TIP3    H150085   4.627   5.859   0.423
 8630TIP3    H250086   4.589   6.006   0.423
 8631TIP3   OH250087   4.753   7.533   0.252
 8631TIP3    H150088   4.847   7.516   0.247
 8631TIP3    H250089   4.724   7.536   0.161
 8632TIP3   OH250090   5.522   7.353   0.517
 8632TIP3    H150091   5.484   7.270   0.489
 8632TIP3    H250092   5.507   7.413   0.444
 8633TIP3   OH250093   4.115   5.788   1.639
 8633TIP3    H150094   4.056   5.724   1.678
 8633TIP3    H250095   4.196   5.781   1.690
 8634TIP3   OH250096   4.291   5.710   1.839
 8634TIP3    H150097   4.372   5.685   1.794
 8634TIP3    H250098   4.263   5.631   1.885
 8635TIP3   OH250099   4.193   7.451   0.076
 8635TIP3    H150100   4.117   7.453   0.134
 8635TIP3    H250101   4.268   7.454   0.135
 8636TIP3   OH250102   5.126   5.648   1.816
 8636TIP3    H150103   5.133   5.600   1.899
 8636TIP3    H250104   5.216   5.650   1.782
 8637TIP3   OH250105   5.349   7.235   1.744
 8637TIP3    H150106   5.300   7.230   1.662
 8637TIP3    H250107   5.370   7.328   1.753
 8638TIP3   OH250108   6.891   6.687   0.620
 8638TIP3    H150109   6.874   6.780   0.607
 8638TIP3    H250110   6.822   6.642   0.571
 8639TIP3   OH250111   6.741   6.604   1.026
 8639TIP3    H150112   6.757   6.569   1.114
 8639TIP3    H250113   6.689   6.537   0.983
 8640TIP3   OH250114   5.953   6.527   1.241
 8640TIP3    H150115   5.978   6.437   1.263
 8640TIP3    H250116   5.982   6.578   1.317
 8641TIP3   OH250117   7.131   6.898   0.875
 8641TIP3    H150118   7.088   6.820   0.911
 8641TIP3    H250119   7.128   6.962   0.945
 8642TIP3   OH250120   6.105   6.966   0.959
 8642TIP3    H150121   6.083   6.886   0.911
 8642TIP3    H250122   6.200   6.960   0.971
 8643TIP3   OH250123   5.716   6.287   0.579
 8643TIP3    H150124   5.698   6.376   0.607
 8643TIP3    H250125   5.657   6.272   0.505
 8644TIP3   OH250126   5.831   6.579   0.839
 8644TIP3    H150127   5.869   6.491   0.842
 8644TIP3    H250128   5.906   6.638   0.826
 8645TIP3   OH250129   6.805   7.366   0.984
 8645TIP3    H150130   6.820   7.279   1.022
 8645TIP3    H250131   6.755   7.413   1.051
 8646TIP3   OH250132   6.606   6.847   1.050
 8646TIP3    H150133   6.651   6.767   1.023
 8646TIP3    H250134   6.660   6.882   1.121
 8647TIP3   OH250135   7.389   6.019   1.172
 8647TIP3    H150136   7.369   6.073   1.249
 8647TIP3    H250137   7.435   6.078   1.112
 8648TIP3   OH250138   6.869   6.272   1.070
 8648TIP3    H150139   6.880   6.179   1.091
 8648TIP3    H250140   6.856   6.274   0.975
 8649TIP3   OH250141   6.270   6.056   0.781
 8649TIP3    H150142   6.279   6.137   0.730
 8649TIP3    H250143   6.210   6.002   0.730
 8650TIP3   OH250144   6.992   6.120   0.638
 8650TIP3    H150145   7.028   6.093   0.722
 8650TIP3    H250146   7.066   6.159   0.592
 8651TIP3   OH250147   5.908   6.313   0.868
 8651TIP3    H150148   5.972   6.269   0.924
 8651TIP3    H250149   5.931   6.286   0.779
 8652TIP3   OH250150   6.381   6.473   0.779
 8652TIP3    H150151   6.460   6.441   0.822
 8652TIP3    H250152   6.346   6.397   0.734
 8653TIP3   OH250153   7.337   6.204   1.367
 8653TIP3    H150154   7.282   6.276   1.337
 8653TIP3    H250155   7.393   6.243   1.434
 8654TIP3   OH250156   6.113   5.993   1.218
 8654TIP3    H150157   6.094   6.049   1.143
 8654TIP3    H250158   6.040   6.008   1.279
 8655TIP3   OH250159   6.865   6.935   0.505
 8655TIP3    H150160   6.848   6.923   0.411
 8655TIP3    H250161   6.807   7.006   0.531
 8656TIP3   OH250162   6.368   6.754   1.160
 8656TIP3    H150163   6.321   6.823   1.207
 8656TIP3    H250164   6.445   6.797   1.123
 8657TIP3   OH250165   7.064   6.087   0.896
 8657TIP3    H150166   7.009   6.043   0.962
 8657TIP3    H250167   7.123   6.142   0.947
 8658TIP3   OH250168   6.104   6.146   0.984
 8658TIP3    H150169   6.157   6.213   1.028
 8658TIP3    H250170   6.163   6.108   0.919
 8659TIP3   OH250171   6.237   6.943   1.316
 8659TIP3    H150172   6.237   7.039   1.316
 8659TIP3    H250173   6.149   6.920   1.345
 8660TIP3   OH250174   5.824   6.907   0.459
 8660TIP3    H150175   5.806   6.962   0.382
 8660TIP3    H250176   5.857   6.968   0.524
 8661TIP3   OH250177   7.111   7.098   1.069
 8661TIP3    H150178   7.018   7.107   1.089
 8661TIP3    H250179   7.142   7.188   1.059
 8662TIP3   OH250180   7.159   5.863   1.113
 8662TIP3    H150181   7.080   5.916   1.121
 8662TIP3    H250182   7.230   5.924   1.134
 8663TIP3   OH250183   6.475   5.669   1.026
 8663TIP3    H150184   6.457   5.575   1.028
 8663TIP3    H250185   6.391   5.710   1.046
 8664TIP3   OH250186   6.969   7.238   0.641
 8664TIP3    H150187   7.020   7.156   0.642
 8664TIP3    H250188   7.028   7.303   0.679
 8665TIP3   OH250189   7.111   7.004   0.625
 8665TIP3    H150190   7.035   6.960   0.589
 8665TIP3    H250191   7.126   6.962   0.709
 8666TIP3   OH250192   7.234   6.838   1.388
 8666TIP3    H150193   7.238   6.774   1.317
 8666TIP3    H250194   7.257   6.921   1.347
 8667TIP3   OH250195   6.736   6.597   0.406
 8667TIP3    H150196   6.672   6.659   0.370
 8667TIP3    H250197   6.802   6.589   0.338
 8668TIP3   OH250198   6.761   6.452   0.097
 8668TIP3    H150199   6.841   6.473   0.146
 8668TIP3    H250200   6.786   6.381   0.039
 8669TIP3   OH250201   7.465   6.511   1.175
 8669TIP3    H150202   7.379   6.553   1.175
 8669TIP3    H250203   7.519   6.567   1.120
 8670TIP3   OH250204   7.115   6.650   0.471
 8670TIP3    H150205   7.041   6.671   0.529
 8670TIP3    H250206   7.169   6.589   0.522
 8671TIP3   OH250207   6.972   6.419   1.466
 8671TIP3    H150208   6.973   6.485   1.536
 8671TIP3    H250209   6.904   6.449   1.406
 8672TIP3   OH250210   6.237   6.645   0.610
 8672TIP3    H150211   6.210   6.596   0.532
 8672TIP3    H250212   6.290   6.582   0.660
 8673TIP3   OH250213   6.388   6.988   0.943
 8673TIP3    H150214   6.384   6.992   0.847
 8673TIP3    H250215   6.468   6.940   0.963
 8674TIP3   OH250216   6.237   6.580   0.992
 8674TIP3    H150217   6.301   6.553   0.925
 8674TIP3    H250218   6.287   6.639   1.049
 8675TIP3   OH250219   6.853   7.140   1.157
 8675TIP3    H150220   6.861   7.207   1.225
 8675TIP3    H250221   6.812   7.066   1.201
 8676TIP3   OH250222   6.388   6.969   1.552
 8676TIP3    H150223   6.321   7.019   1.598
 8676TIP3    H250224   6.347   6.946   1.468
 8677TIP3   OH250225   6.976   6.553   0.254
 8677TIP3    H150226   7.025   6.585   0.329
 8677TIP3    H250227   7.015   6.598   0.179
 8678TIP3   OH250228   6.022   6.590   1.509
 8678TIP3    H150229   6.036   6.667   1.565
 8678TIP3    H250230   5.929   6.569   1.520
 8679TIP3   OH250231   6.723   7.167   0.545
 8679TIP3    H150232   6.800   7.191   0.596
 8679TIP3    H250233   6.669   7.246   0.546
 8680TIP3   OH250234   6.159   7.130   1.627
 8680TIP3    H150235   6.176   7.164   1.539
 8680TIP3    H250236   6.063   7.130   1.634
 8681TIP3   OH250237   7.317   5.682   0.315
 8681TIP3    H150238   7.241   5.734   0.342
 8681TIP3    H250239   7.378   5.746   0.277
 8682TIP3   OH250240   6.154   6.550   0.354
 8682TIP3    H150241   6.086   6.616   0.341
 8682TIP3    H250242   6.126   6.476   0.301
 8683TIP3   OH250243   7.444   7.081   0.189
 8683TIP3    H150244   7.451   7.171   0.157
 8683TIP3    H250245   7.415   7.090   0.280
 8684TIP3   OH250246   5.751   6.813   1.417
 8684TIP3    H150247   5.708   6.821   1.331
 8684TIP3    H250248   5.755   6.719   1.432
 8685TIP3   OH250249   5.852   7.000   1.081
 8685TIP3    H150250   5.939   6.982   1.046
 8685TIP3    H250251   5.868   7.056   1.157
 8686TIP3   OH250252   7.462   7.159   1.683
 8686TIP3    H150253   7.449   7.069   1.653
 8686TIP3    H250254   7.374   7.193   1.697
 8687TIP3   OH250255   6.610   7.146   1.503
 8687TIP3    H150256   6.614   7.217   1.567
 8687TIP3    H250257   6.541   7.089   1.535
 8688TIP3   OH250258   6.618   7.416   0.490
 8688TIP3    H150259   6.577   7.446   0.409
 8688TIP3    H250260   6.561   7.449   0.559
 8689TIP3   OH250261   6.060   7.331   0.701
 8689TIP3    H150262   6.077   7.312   0.793
 8689TIP3    H250263   6.007   7.257   0.671
 8690TIP3   OH250264   6.860   7.446   0.167
 8690TIP3    H150265   6.892   7.373   0.114
 8690TIP3    H250266   6.867   7.415   0.258
 8691TIP3   OH250267   6.890   7.412   0.442
 8691TIP3    H150268   6.798   7.423   0.465
 8691TIP3    H250269   6.924   7.349   0.506
 8692TIP3   OH250270   7.278   6.213   1.714
 8692TIP3    H150271   7.229   6.267   1.776
 8692TIP3    H250272   7.255   6.123   1.736
 8693TIP3   OH250273   5.989   6.945   1.440
 8693TIP3    H150274   6.019   6.914   1.526
 8693TIP3    H250275   5.903   6.904   1.429
 8694TIP3   OH250276   6.217   5.772   1.086
 8694TIP3    H150277   6.146   5.760   1.023
 8694TIP3    H250278   6.192   5.850   1.135
 8695TIP3   OH250279   6.686   5.802   1.447
 8695TIP3    H150280   6.725   5.744   1.513
 8695TIP3    H250281   6.592   5.797   1.463
 8696TIP3   OH250282   6.970   6.146   1.520
 8696TIP3    H150283   6.927   6.137   1.605
 8696TIP3    H250284   6.979   6.240   1.507
 8697TIP3   OH250285   7.078   6.710   0.056
 8697TIP3    H150286   7.042   6.698  -0.032
 8697TIP3    H250287   7.062   6.802   0.077
 8698TIP3   OH250288   6.525   6.099   0.175
 8698TIP3    H150289   6.517   6.036   0.247
 8698TIP3    H250290   6.452   6.077   0.117
 8699TIP3   OH250291   6.233   6.340   1.128
 8699TIP3    H150292   6.173   6.337   1.202
 8699TIP3    H250293   6.221   6.427   1.091
 8700TIP3   OH250294   6.249   6.284   0.625
 8700TIP3    H150295   6.154   6.275   0.624
 8700TIP3    H250296   6.275   6.279   0.533
 8701TIP3   OH250297   6.748   6.360   0.545
 8701TIP3    H150298   6.723   6.445   0.506
 8701TIP3    H250299   6.818   6.328   0.489
 8702TIP3   OH250300   6.659   6.344   1.641
 8702TIP3    H150301   6.626   6.265   1.682
 8702TIP3    H250302   6.739   6.366   1.690
 8703TIP3   OH250303   6.829   6.285   0.796
 8703TIP3    H150304   6.793   6.331   0.720
 8703TIP3    H250305   6.875   6.210   0.758
 8704TIP3   OH250306   6.061   6.293   1.337
 8704TIP3    H150307   6.113   6.319   1.412
 8704TIP3    H250308   6.010   6.217   1.367
 8705TIP3   OH250309   6.272   6.029   0.076
 8705TIP3    H150310   6.228   6.036   0.161
 8705TIP3    H250311   6.215   6.080   0.017
 8706TIP3   OH250312   5.711   6.054   0.750
 8706TIP3    H150313   5.758   6.066   0.833
 8706TIP3    H250314   5.712   6.140   0.709
 8707TIP3   OH250315   5.677   6.102   0.245
 8707TIP3    H150316   5.751   6.146   0.202
 8707TIP3    H250317   5.628   6.173   0.286
 8708TIP3   OH250318   6.791   6.455   1.256
 8708TIP3    H150319   6.829   6.393   1.194
 8708TIP3    H250320   6.719   6.408   1.296
 8709TIP3   OH250321   6.550   6.000   0.778
 8709TIP3    H150322   6.458   6.011   0.801
 8709TIP3    H250323   6.592   5.967   0.858
 8710TIP3   OH250324   5.982   6.213   0.623
 8710TIP3    H150325   5.894   6.227   0.587
 8710TIP3    H250326   5.996   6.118   0.615
 8711TIP3   OH250327   6.291   6.261   0.352
 8711TIP3    H150328   6.375   6.298   0.325
 8711TIP3    H250329   6.229   6.293   0.286
 8712TIP3   OH250330   6.894   5.993   1.100
 8712TIP3    H150331   6.859   6.005   1.188
 8712TIP3    H250332   6.826   5.943   1.054
 8713TIP3   OH250333   6.116   6.346   0.158
 8713TIP3    H150334   6.028   6.312   0.143
 8713TIP3    H250335   6.147   6.368   0.070
 8714TIP3   OH250336   7.316   7.549   1.713
 8714TIP3    H150337   7.335   7.549   1.619
 8714TIP3    H250338   7.402   7.544   1.754
 8715TIP3   OH250339   6.047   6.809   1.679
 8715TIP3    H150340   6.107   6.800   1.752
 8715TIP3    H250341   5.960   6.809   1.719
 8716TIP3   OH250342   6.594   6.375   0.928
 8716TIP3    H150343   6.670   6.330   0.890
 8716TIP3    H250344   6.563   6.317   0.997
 8717TIP3   OH250345   6.078   5.951   0.607
 8717TIP3    H150346   6.032   5.869   0.625
 8717TIP3    H250347   6.111   5.940   0.518
 8718TIP3   OH250348   6.483   6.227   1.140
 8718TIP3    H150349   6.399   6.273   1.141
 8718TIP3    H250350   6.527   6.255   1.221
 8719TIP3   OH250351   6.560   6.787   0.297
 8719TIP3    H150352   6.500   6.728   0.252
 8719TIP3    H250353   6.513   6.813   0.376
 8720TIP3   OH250354   7.230   6.667   1.163
 8720TIP3    H150355   7.290   6.732   1.127
 8720TIP3    H250356   7.154   6.670   1.104
 8721TIP3   OH250357   6.794   6.088   0.257
 8721TIP3    H150358   6.705   6.114   0.234
 8721TIP3    H250359   6.836   6.170   0.285
 8722TIP3   OH250360   6.606   6.789   1.489
 8722TIP3    H150361   6.657   6.760   1.564
 8722TIP3    H250362   6.549   6.858   1.523
 8723TIP3   OH250363   6.947   6.298   0.361
 8723TIP3    H150364   7.033   6.269   0.393
 8723TIP3    H250365   6.965   6.382   0.318
 8724TIP3   OH250366   6.073   6.721   0.825
 8724TIP3    H150367   6.121   6.706   0.743
 8724TIP3    H250368   6.120   6.669   0.889
 8725TIP3   OH250369   6.785   6.931   0.231
 8725TIP3    H150370   6.745   7.018   0.235
 8725TIP3    H250371   6.714   6.870   0.248
 8726TIP3   OH250372   5.741   6.548   1.491
 8726TIP3    H150373   5.713   6.495   1.566
 8726TIP3    H250374   5.675   6.532   1.424
 8727TIP3   OH250375   6.455   6.530   1.681
 8727TIP3    H150376   6.387   6.501   1.620
 8727TIP3    H250377   6.532   6.477   1.659
 8728TIP3   OH250378   6.884   7.092   1.499
 8728TIP3    H150379   6.791   7.100   1.478
 8728TIP3    H250380   6.891   7.119   1.590
 8729TIP3   OH250381   7.411   6.301   0.294
 8729TIP3    H150382   7.409   6.225   0.235
 8729TIP3    H250383   7.437   6.374   0.237
 8730TIP3   OH250384   7.429   6.911   1.572
 8730TIP3    H150385   7.346   6.877   1.540
 8730TIP3    H250386   7.493   6.884   1.506
 8731TIP3   OH250387   7.290   7.093   0.434
 8731TIP3    H150388   7.238   7.082   0.513
 8731TIP3    H250389   7.281   7.010   0.387
 8732TIP3   OH250390   7.018   6.665   0.982
 8732TIP3    H150391   6.923   6.661   0.996
 8732TIP3    H250392   7.038   6.590   0.926
 8733TIP3   OH250393   6.302   7.038   0.679
 8733TIP3    H150394   6.314   7.126   0.644
 8733TIP3    H250395   6.207   7.027   0.685
 8734TIP3   OH250396   5.812   6.547   0.151
 8734TIP3    H150397   5.872   6.612   0.189
 8734TIP3    H250398   5.733   6.553   0.205
 8735TIP3   OH250399   6.401   6.844   0.507
 8735TIP3    H150400   6.383   6.919   0.565
 8735TIP3    H250401   6.345   6.774   0.540
 8736TIP3   OH250402   6.492   7.271   1.289
 8736TIP3    H150403   6.508   7.364   1.305
 8736TIP3    H250404   6.550   7.225   1.350
 8737TIP3   OH250405   6.303   7.297   0.580
 8737TIP3    H150406   6.215   7.320   0.609
 8737TIP3    H250407   6.360   7.359   0.624
 8738TIP3   OH250408   6.757   6.898   1.280
 8738TIP3    H150409   6.692   6.865   1.342
 8738TIP3    H250410   6.840   6.865   1.313
 8739TIP3   OH250411   7.056   6.969   0.156
 8739TIP3    H150412   7.115   6.939   0.226
 8739TIP3    H250413   6.969   6.956   0.192
 8740TIP3   OH250414   7.098   7.259   1.455
 8740TIP3    H150415   7.028   7.195   1.470
 8740TIP3    H250416   7.054   7.332   1.410
 8741TIP3   OH250417   7.448   7.348   0.113
 8741TIP3    H150418   7.537   7.381   0.106
 8741TIP3    H250419   7.403   7.412   0.168
 8742TIP3   OH250420   5.913   6.069   1.405
 8742TIP3    H150421   5.821   6.096   1.398
 8742TIP3    H250422   5.915   6.011   1.482
 8743TIP3   OH250423   7.250   6.841   0.323
 8743TIP3    H150424   7.201   6.778   0.376
 8743TIP3    H250425   7.340   6.808   0.323
 8744TIP3   OH250426   5.911   7.175   1.295
 8744TIP3    H150427   5.942   7.105   1.352
 8744TIP3    H250428   5.903   7.251   1.353
 8745TIP3   OH250429   6.338   6.997   0.184
 8745TIP3    H150430   6.405   6.932   0.206
 8745TIP3    H250431   6.349   7.066   0.249
 8746TIP3   OH250432   5.964   6.737   0.287
 8746TIP3    H150433   5.915   6.783   0.356
 8746TIP3    H250434   6.000   6.807   0.233
 8747TIP3   OH250435   6.786   6.039   1.348
 8747TIP3    H150436   6.855   6.067   1.409
 8747TIP3    H250437   6.751   5.958   1.387
 8748TIP3   OH250438   6.856   5.940   0.481
 8748TIP3    H150439   6.830   5.987   0.402
 8748TIP3    H250440   6.893   6.008   0.538
 8749TIP3   OH250441   6.641   7.159   0.276
 8749TIP3    H150442   6.550   7.184   0.289
 8749TIP3    H250443   6.681   7.168   0.362
 8750TIP3   OH250444   6.571   6.148   0.545
 8750TIP3    H150445   6.626   6.226   0.551
 8750TIP3    H250446   6.570   6.113   0.634
 8751TIP3   OH250447   6.624   6.269   1.373
 8751TIP3    H150448   6.632   6.296   1.465
 8751TIP3    H250449   6.675   6.188   1.368
 8752TIP3   OH250450   6.642   5.809   0.595
 8752TIP3    H150451   6.614   5.875   0.658
 8752TIP3    H250452   6.725   5.843   0.560
 8753TIP3   OH250453   6.378   7.230   0.324
 8753TIP3    H150454   6.343   7.303   0.274
 8753TIP3    H250455   6.352   7.248   0.415
 8754TIP3   OH250456   6.221   5.993   0.358
 8754TIP3    H150457   6.230   6.088   0.371
 8754TIP3    H250458   6.309   5.958   0.373
 8755TIP3   OH250459   7.189   5.990   1.458
 8755TIP3    H150460   7.107   6.030   1.487
 8755TIP3    H250461   7.245   6.063   1.433
 8756TIP3   OH250462   7.075   6.422   0.854
 8756TIP3    H150463   6.989   6.381   0.842
 8756TIP3    H250464   7.118   6.368   0.920
 8757TIP3   OH250465   6.070   6.945   0.133
 8757TIP3    H150466   6.160   6.962   0.160
 8757TIP3    H250467   6.074   6.937   0.038
 8758TIP3   OH250468   5.848   6.280   0.104
 8758TIP3    H150469   5.834   6.373   0.124
 8758TIP3    H250470   5.792   6.264   0.028
 8759TIP3   OH250471   7.228   7.347   1.081
 8759TIP3    H150472   7.212   7.423   1.024
 8759TIP3    H250473   7.322   7.352   1.101
 8760TIP3   OH250474   5.976   5.758   0.943
 8760TIP3    H150475   5.973   5.747   0.848
 8760TIP3    H250476   5.951   5.673   0.978
 8761TIP3   OH250477   5.898   7.117   0.630
 8761TIP3    H150478   5.844   7.126   0.709
 8761TIP3    H250479   5.858   7.176   0.567
 8762TIP3   OH250480   5.883   7.429   1.706
 8762TIP3    H150481   5.947   7.439   1.775
 8762TIP3    H250482   5.872   7.334   1.696
 8763TIP3   OH250483   6.215   7.173   1.894
 8763TIP3    H150484   6.302   7.136   1.906
 8763TIP3    H250485   6.196   7.160   1.801
 8764TIP3   OH250486   6.620   7.265   0.012
 8764TIP3    H150487   6.540   7.221  -0.015
 8764TIP3    H250488   6.649   7.217   0.090
 8765TIP3   OH250489   6.896   7.187   1.752
 8765TIP3    H150490   6.840   7.116   1.783
 8765TIP3    H250491   6.959   7.201   1.823
 8766TIP3   OH250492   6.981   7.225   0.050
 8766TIP3    H150493   7.002   7.139   0.087
 8766TIP3    H250494   7.062   7.254   0.007
 8767TIP3   OH250495   5.793   6.777   1.781
 8767TIP3    H150496   5.809   6.683   1.781
 8767TIP3    H250497   5.707   6.787   1.740
 8768TIP3   OH250498   6.277   6.681   9.951
 8768TIP3    H150499   6.313   6.670  10.039
 8768TIP3    H250500   6.325   6.755   9.914
 8769TIP3   OH250501   6.446   6.797   1.761
 8769TIP3    H150502   6.425   6.844   1.681
 8769TIP3    H250503   6.466   6.708   1.733
 8770TIP3   OH250504   6.972   6.835   1.455
 8770TIP3    H150505   7.065   6.842   1.435
 8770TIP3    H250506   6.946   6.925   1.478
 8771TIP3   OH250507   5.883   6.518   1.790
 8771TIP3    H150508   5.964   6.468   1.780
 8771TIP3    H250509   5.869   6.521   1.885
 8772TIP3   OH250510   6.376   6.610   0.200
 8772TIP3    H150511   6.302   6.598   0.260
 8772TIP3    H250512   6.420   6.525   0.199
 8773TIP3   OH250513   6.251   6.434   1.496
 8773TIP3    H150514   6.175   6.492   1.506
 8773TIP3    H250515   6.312   6.484   1.442
 8774TIP3   OH250516   6.515   6.372   0.204
 8774TIP3    H150517   6.521   6.278   0.188
 8774TIP3    H250518   6.599   6.407   0.175
 8775TIP3   OH250519   6.747   6.704   1.719
 8775TIP3    H150520   6.835   6.673   1.697
 8775TIP3    H250521   6.723   6.652   1.796
 8776TIP3   OH250522   7.349   6.726   9.999
 8776TIP3    H150523   7.263   6.712  10.039
 8776TIP3    H250524   7.331   6.728   9.905
 8777TIP3   OH250525   6.327   6.174   1.567
 8777TIP3    H150526   6.343   6.125   1.486
 8777TIP3    H250527   6.312   6.264   1.538
 8778TIP3   OH250528   6.362   6.035   1.326
 8778TIP3    H150529   6.415   6.077   1.258
 8778TIP3    H250530   6.276   6.023   1.286
 8779TIP3   OH250531   6.432   6.595   1.376
 8779TIP3    H150532   6.502   6.648   1.414
 8779TIP3    H250533   6.409   6.641   1.295
 8780TIP3   OH250534   6.878   6.357   1.823
 8780TIP3    H150535   6.868   6.263   1.809
 8780TIP3    H250536   6.967   6.367   1.856
 8781TIP3   OH250537   7.012   6.638   1.644
 8781TIP3    H150538   7.000   6.708   1.579
 8781TIP3    H250539   7.105   6.615   1.638
 8782TIP3   OH250540   6.173   6.178   1.800
 8782TIP3    H150541   6.092   6.129   1.787
 8782TIP3    H250542   6.216   6.177   1.714
 8783TIP3   OH250543   6.409   5.785   1.443
 8783TIP3    H150544   6.392   5.872   1.406
 8783TIP3    H250545   6.343   5.728   1.403
 8784TIP3   OH250546   6.543   6.110   1.736
 8784TIP3    H150547   6.499   6.080   1.816
 8784TIP3    H250548   6.473   6.123   1.673
 8785TIP3   OH250549   6.827   6.098   1.750
 8785TIP3    H150550   6.734   6.076   1.752
 8785TIP3    H250551   6.871   6.020   1.784
 8786TIP3   OH250552   6.978   5.889   1.846
 8786TIP3    H150553   6.981   5.795   1.827
 8786TIP3    H250554   6.961   5.894   1.940
 8787TIP3   OH250555   5.959   5.987   1.777
 8787TIP3    H150556   5.960   5.905   1.728
 8787TIP3    H250557   5.981   5.963   1.867
 8788TIP3   OH250558   6.423   5.693   1.701
 8788TIP3    H150559   6.471   5.611   1.691
 8788TIP3    H250560   6.416   5.729   1.613
 8789TIP3   OH250561   6.501   5.797   1.944
 8789TIP3    H150562   6.490   5.760   1.856
 8789TIP3    H250563   6.454   5.880   1.941
 8790TIP3   OH250564   6.308   7.427   0.138
 8790TIP3    H150565   6.390   7.471   0.160
 8790TIP3    H250566   6.274   7.477   0.063
 8791TIP3   OH250567   5.805   7.012   0.203
 8791TIP3    H150568   5.899   7.016   0.184
 8791TIP3    H250569   5.772   6.945   0.143
 8792TIP3   OH250570   5.684   7.402   0.735
 8792TIP3    H150571   5.619   7.385   0.666
 8792TIP3    H250572   5.692   7.318   0.781
 8793TIP3   OH250573   5.764   7.171   0.869
 8793TIP3    H150574   5.757   7.088   0.917
 8793TIP3    H250575   5.794   7.234   0.935
 8794TIP3   OH250576   7.502   7.343   1.160
 8794TIP3    H150577   7.489   7.308   1.248
 8794TIP3    H250578   7.531   7.434   1.174
 8795TIP3   OH250579   7.451   7.262   1.419
 8795TIP3    H150580   7.395   7.190   1.389
 8795TIP3    H250581   7.481   7.234   1.506
 8796TIP3   OH250582   7.329   6.884   1.929
 8796TIP3    H150583   7.244   6.914   1.959
 8796TIP3    H250584   7.386   6.960   1.937
 8797TIP3   OH250585   7.513   6.732   0.359
 8797TIP3    H150586   7.588   6.789   0.375
 8797TIP3    H250587   7.502   6.684   0.441
 8798TIP3   OH250588   7.470   6.593   0.597
 8798TIP3    H150589   7.384   6.555   0.614
 8798TIP3    H250590   7.494   6.636   0.679
 8799TIP3   OH250591   7.449   6.826   1.113
 8799TIP3    H150592   7.515   6.778   1.064
 8799TIP3    H250593   7.471   6.918   1.098
 8800TIP3   OH250594   7.262   7.097   1.302
 8800TIP3    H150595   7.204   7.153   1.353
 8800TIP3    H250596   7.222   7.093   1.215
 8801TIP3   OH250597   7.495   6.543   0.148
 8801TIP3    H150598   7.444   6.601   0.091
 8801TIP3    H250599   7.516   6.597   0.224
 8802TIP3   OH250600   7.376   6.082   0.112
 8802TIP3    H150601   7.388   6.121   0.026
 8802TIP3    H250602   7.291   6.036   0.106
 8803TIP3   OH250603   7.233   6.463   0.633
 8803TIP3    H150604   7.222   6.379   0.589
 8803TIP3    H250605   7.181   6.456   0.713
 8804TIP3   OH250606   5.732   6.566   1.091
 8804TIP3    H150607   5.762   6.579   1.001
 8804TIP3    H250608   5.812   6.554   1.141
 8805TIP3   OH250609   7.280   6.566   1.632
 8805TIP3    H150610   7.337   6.498   1.595
 8805TIP3    H250611   7.316   6.582   1.720
 8806TIP3   OH250612   7.473   6.333   1.574
 8806TIP3    H150613   7.399   6.300   1.626
 8806TIP3    H250614   7.544   6.271   1.592
 8807TIP3   OH250615   7.136   5.939   0.083
 8807TIP3    H150616   7.114   5.854   0.121
 8807TIP3    H250617   7.055   5.970   0.045
 8808TIP3   OH250618   7.204   6.235   0.471
 8808TIP3    H150619   7.233   6.148   0.496
 8808TIP3    H250620   7.270   6.264   0.407
 8809TIP3   OH250621   7.214   6.269   1.040
 8809TIP3    H150622   7.309   6.259   1.041
 8809TIP3    H250623   7.194   6.309   1.125
 8810TIP3   OH250624   7.177   6.409   1.279
 8810TIP3    H150625   7.107   6.408   1.345
 8810TIP3    H250626   7.183   6.502   1.254
 8811TIP3   OH250627   5.747   6.162   1.744
 8811TIP3    H150628   5.824   6.108   1.759
 8811TIP3    H250629   5.678   6.101   1.720
 8812TIP3   OH250630   7.555   5.660   1.800
 8812TIP3    H150631   7.642   5.625   1.779
 8812TIP3    H250632   7.550   5.743   1.752
 8813TIP3   OH250633   7.268   5.983   0.553
 8813TIP3    H150634   7.304   5.941   0.631
 8813TIP3    H250635   7.207   5.919   0.517
 8814TIP3   OH250636   5.861   6.008   0.991
 8814TIP3    H150637   5.891   5.918   0.977
 8814TIP3    H250638   5.941   6.060   0.987
 8815TIP3   OH250639   5.653   6.310   0.995
 8815TIP3    H150640   5.735   6.296   0.947
 8815TIP3    H250641   5.664   6.395   1.037
 8816TIP3   OH250642   7.463   5.884   1.657
 8816TIP3    H150643   7.389   5.915   1.709
 8816TIP3    H250644   7.423   5.846   1.578
 8817TIP3   OH250645   7.505   5.842   0.193
 8817TIP3    H150646   7.599   5.827   0.178
 8817TIP3    H250647   7.486   5.921   0.143
 8818TIP3   OH250648   5.682   5.882   0.414
 8818TIP3    H150649   5.600   5.895   0.461
 8818TIP3    H250650   5.692   5.960   0.359
 8819TIP3   OH250651   7.145   7.435   0.701
 8819TIP3    H150652   7.207   7.421   0.631
 8819TIP3    H250653   7.192   7.488   0.766
 8820TIP3   OH250654   5.708   5.734   1.314
 8820TIP3    H150655   5.631   5.727   1.371
 8820TIP3    H250656   5.692   5.813   1.262
 8821TIP3   OH250657   5.873   7.154   1.682
 8821TIP3    H150658   5.783   7.142   1.651
 8821TIP3    H250659   5.874   7.112   1.768
 8822TIP3   OH250660   6.239   7.212   1.373
 8822TIP3    H150661   6.194   7.293   1.351
 8822TIP3    H250662   6.330   7.227   1.347
 8823TIP3   OH250663   6.629   7.378   1.659
 8823TIP3    H150664   6.610   7.342   1.745
 8823TIP3    H250665   6.721   7.405   1.664
 8824TIP3   OH250666   6.892   7.452   1.671
 8824TIP3    H150667   6.907   7.359   1.688
 8824TIP3    H250668   6.926   7.496   1.749
 8825TIP3   OH250669   7.309   5.748   1.459
 8825TIP3    H150670   7.260   5.831   1.461
 8825TIP3    H250671   7.258   5.691   1.401
 8826TIP3   OH250672   5.900   7.427   1.424
 8826TIP3    H150673   5.827   7.480   1.393
 8826TIP3    H250674   5.896   7.433   1.519
 8827TIP3   OH250675   6.151   7.463   1.313
 8827TIP3    H150676   6.063   7.461   1.350
 8827TIP3    H250677   6.141   7.506   1.228
 8828TIP3   OH250678   6.663   7.505   1.185
 8828TIP3    H150679   6.584   7.525   1.136
 8828TIP3    H250680   6.653   7.554   1.267
 8829TIP3   OH250681   6.892   7.381   1.295
 8829TIP3    H150682   6.811   7.424   1.268
 8829TIP3    H250683   6.959   7.449   1.286
 8830TIP3   OH250684   7.123   7.539   1.274
 8830TIP3    H150685   7.133   7.632   1.252
 8830TIP3    H250686   7.146   7.493   1.194
 8831TIP3   OH250687   5.874   7.334   1.069
 8831TIP3    H150688   5.875   7.287   1.152
 8831TIP3    H250689   5.959   7.315   1.029
 8832TIP3   OH250690   6.110   7.243   0.959
 8832TIP3    H150691   6.100   7.148   0.958
 8832TIP3    H250692   6.198   7.258   0.992
 8833TIP3   OH250693   6.376   7.245   1.042
 8833TIP3    H150694   6.388   7.156   1.008
 8833TIP3    H250695   6.419   7.244   1.127
 8834TIP3   OH250696   6.683   5.850   0.973
 8834TIP3    H150697   6.612   5.791   0.995
 8834TIP3    H250698   6.751   5.793   0.937
 8835TIP3   OH250699   7.223   5.715   0.884
 8835TIP3    H150700   7.290   5.768   0.841
 8835TIP3    H250701   7.193   5.768   0.958
 8836TIP3   OH250702   7.422   5.857   0.748
 8836TIP3    H150703   7.474   5.779   0.728
 8836TIP3    H250704   7.487   5.927   0.753
 8837TIP3   OH250705   5.960   5.708   0.670
 8837TIP3    H150706   5.868   5.681   0.660
 8837TIP3    H250707   6.010   5.626   0.663
 8838TIP3   OH250708   5.841   5.676   0.327
 8838TIP3    H150709   5.926   5.713   0.303
 8838TIP3    H250710   5.794   5.748   0.368
 8839TIP3   OH250711   6.469   5.633   0.734
 8839TIP3    H150712   6.535   5.689   0.692
 8839TIP3    H250713   6.481   5.648   0.828
 8840TIP3   OH250714   6.879   5.684   0.886
 8840TIP3    H150715   6.963   5.683   0.839
 8840TIP3    H250716   6.868   5.595   0.918
 8841TIP3   OH250717   7.096   5.810   0.431
 8841TIP3    H150718   7.016   5.862   0.436
 8841TIP3    H250719   7.067   5.720   0.444
 8842TIP3   OH250720   5.788   7.293   0.457
 8842TIP3    H150721   5.696   7.304   0.481
 8842TIP3    H250722   5.804   7.360   0.391
 8843TIP3   OH250723   6.081   5.780   0.249
 8843TIP3    H150724   6.139   5.751   0.179
 8843TIP3    H250725   6.126   5.854   0.288
 8844TIP3   OH250726   6.486   5.940   0.397
 8844TIP3    H150727   6.527   5.867   0.444
 8844TIP3    H250728   6.512   6.018   0.447
 8845TIP3   OH250729   6.577   7.474   0.208
 8845TIP3    H150730   6.661   7.520   0.206
 8845TIP3    H250731   6.586   7.405   0.143
 8846TIP3   OH250732   7.328   7.369   0.500
 8846TIP3    H150733   7.322   7.278   0.473
 8846TIP3    H250734   7.332   7.419   0.419
 8847TIP3   OH250735   5.963   5.733   1.661
 8847TIP3    H150736   5.902   5.666   1.692
 8847TIP3    H250737   6.043   5.717   1.711
 8848TIP3   OH250738   6.179   5.693   1.830
 8848TIP3    H150739   6.263   5.707   1.786
 8848TIP3    H250740   6.183   5.602   1.859
 8849TIP3   OH250741   5.963   7.398   0.108
 8849TIP3    H150742   5.900   7.436   0.170
 8849TIP3    H250743   6.048   7.411   0.149
 8850TIP3   OH250744   7.028   5.623   1.780
 8850TIP3    H150745   7.022   5.582   1.866
 8850TIP3    H250746   7.120   5.611   1.755
 8851TIP3   OH250747   7.220   7.288   1.707
 8851TIP3    H150748   7.174   7.282   1.624
 8851TIP3    H250749   7.241   7.381   1.717
 8852TIP3   OH250750   7.567   6.339   0.530
 8852TIP3    H150751   7.532   6.426   0.552
 8852TIP3    H250752   7.520   6.314   0.450
 8853TIP3   OH250753   7.574   6.798   1.366
 8853TIP3    H150754   7.522   6.803   1.286
 8853TIP3    H250755   7.573   6.706   1.390
 8854TIP3   OH250756   7.565   7.075   1.076
 8854TIP3    H150757   7.660   7.069   1.077
 8854TIP3    H250758   7.545   7.159   1.118
 8855TIP3   OH250759   7.587   6.088   0.673
 8855TIP3    H150760   7.581   6.182   0.659
 8855TIP3    H250761   7.565   6.049   0.588
 8856TIP3   OH250762   7.594   6.525   1.417
 8856TIP3    H150763   7.555   6.465   1.481
 8856TIP3    H250764   7.552   6.502   1.334
 8857TIP3   OH250765   7.571   6.759   1.756
 8857TIP3    H150766   7.507   6.709   1.807
 8857TIP3    H250767   7.518   6.819   1.703
 8858TIP3   OH250768   7.451   7.514   0.700
 8858TIP3    H150769   7.411   7.463   0.629
 8858TIP3    H250770   7.467   7.450   0.769
 8859TIP3   OH250771   7.507   7.305   0.883
 8859TIP3    H150772   7.466   7.219   0.880
 8859TIP3    H250773   7.512   7.327   0.976
 8860TIP3   OH250774  -0.033   6.658   1.020
 8860TIP3    H150775  -0.004   6.569   1.003
 8860TIP3    H250776   0.049   6.708   1.031
 8861TIP3   OH250777   7.625   6.112   1.632
 8861TIP3    H150778   7.715   6.080   1.635
 8861TIP3    H250779   7.572   6.033   1.637
 8862TIP3   OH250780   7.496   6.260   1.066
 8862TIP3    H150781   7.585   6.267   1.031
 8862TIP3    H250782   7.485   6.340   1.117
 8863TIP3   OH250783   7.510   5.993   0.426
 8863TIP3    H150784   7.421   5.995   0.463
 8863TIP3    H250785   7.501   5.941   0.346
 8864TIP3   OH250786   7.517   5.788   1.265
 8864TIP3    H150787   7.460   5.771   1.340
 8864TIP3    H250788   7.478   5.864   1.222
 8865TIP3   OH250789   0.804   7.502   1.021
 8865TIP3    H150790   0.791   7.407   1.028
 8865TIP3    H250791   0.720   7.540   1.046
 8866TIP3   OH250792   1.648   7.473   0.261
 8866TIP3    H150793   1.552   7.466   0.270
 8866TIP3    H250794   1.665   7.567   0.263
 8867TIP3   OH250795   0.558   7.613   1.068
 8867TIP3    H150796   0.473   7.599   1.027
 8867TIP3    H250797   0.580   7.704   1.049
 8868TIP3   OH250798   1.056   7.593   1.460
 8868TIP3    H150799   1.129   7.558   1.510
 8868TIP3    H250800   0.979   7.548   1.494
 8869TIP3   OH250801   0.302   7.567   0.977
 8869TIP3    H150802   0.259   7.569   0.891
 8869TIP3    H250803   0.231   7.581   1.040
 8870TIP3   OH250804   0.752   7.549   1.370
 8870TIP3    H150805   0.741   7.643   1.353
 8870TIP3    H250806   0.674   7.509   1.329
 8871TIP3   OH250807   0.727   7.474   1.629
 8871TIP3    H150808   0.809   7.430   1.649
 8871TIP3    H250809   0.727   7.484   1.534
 8872TIP3   OH250810   1.854   7.598   1.742
 8872TIP3    H150811   1.920   7.534   1.715
 8872TIP3    H250812   1.905   7.670   1.780
 8873TIP3   OH250813   0.139   7.609   1.200
 8873TIP3    H150814   0.045   7.597   1.216
 8873TIP3    H250815   0.156   7.700   1.227
 8874TIP3   OH250816   1.600   7.540   1.461
 8874TIP3    H150817   1.544   7.531   1.384
 8874TIP3    H250818   1.657   7.463   1.458
 8875TIP3   OH250819   1.503   7.596   0.942
 8875TIP3    H150820   1.529   7.688   0.951
 8875TIP3    H250821   1.412   7.599   0.912
 8876TIP3   OH250822   0.247   7.556   0.703
 8876TIP3    H150823   0.168   7.540   0.651
 8876TIP3    H250824   0.308   7.487   0.676
 8877TIP3   OH250825   0.152   7.558   0.144
 8877TIP3    H150826   0.164   7.563   0.049
 8877TIP3    H250827   0.136   7.648   0.172
 8878TIP3   OH250828   0.773   7.466   0.740
 8878TIP3    H150829   0.818   7.541   0.700
 8878TIP3    H250830   0.788   7.476   0.834
 8879TIP3   OH250831   1.257   7.510   0.829
 8879TIP3    H150832   1.319   7.460   0.776
 8879TIP3    H250833   1.194   7.444   0.861
 8880TIP3   OH250834   1.383   7.609   0.509
 8880TIP3    H150835   1.372   7.555   0.431
 8880TIP3    H250836   1.419   7.549   0.575
 8881TIP3   OH250837   0.476   7.607   1.648
 8881TIP3    H150838   0.554   7.553   1.635
 8881TIP3    H250839   0.418   7.553   1.702
 8882TIP3   OH250840   1.348   7.490   1.870
 8882TIP3    H150841   1.344   7.449   1.956
 8882TIP3    H250842   1.441   7.491   1.848
 8883TIP3   OH250843   2.659   7.504   0.980
 8883TIP3    H150844   2.649   7.410   0.990
 8883TIP3    H250845   2.574   7.540   1.007
 8884TIP3   OH250846   3.596   7.526   0.302
 8884TIP3    H150847   3.508   7.547   0.332
 8884TIP3    H250848   3.637   7.612   0.285
 8885TIP3   OH250849   2.422   7.629   1.052
 8885TIP3    H150850   2.338   7.609   1.010
 8885TIP3    H250851   2.431   7.723   1.044
 8886TIP3   OH250852   2.965   7.561   1.393
 8886TIP3    H150853   3.038   7.543   1.452
 8886TIP3    H250854   2.895   7.503   1.422
 8887TIP3   OH250855   2.174   7.576   0.950
 8887TIP3    H150856   2.154   7.565   0.857
 8887TIP3    H250857   2.140   7.496   0.992
 8888TIP3   OH250858   2.654   7.531   1.325
 8888TIP3    H150859   2.651   7.625   1.309
 8888TIP3    H250860   2.565   7.500   1.306
 8889TIP3   OH250861   2.654   7.497   1.600
 8889TIP3    H150862   2.725   7.435   1.615
 8889TIP3    H250863   2.646   7.502   1.504
 8890TIP3   OH250864   3.772   7.606   1.651
 8890TIP3    H150865   3.842   7.544   1.670
 8890TIP3    H250866   3.794   7.684   1.702
 8891TIP3   OH250867   1.921   7.533   1.339
 8891TIP3    H150868   1.872   7.463   1.383
 8891TIP3    H250869   1.881   7.614   1.371
 8892TIP3   OH250870   3.491   7.549   1.433
 8892TIP3    H150871   3.419   7.511   1.382
 8892TIP3    H250872   3.560   7.483   1.430
 8893TIP3   OH250873   3.366   7.578   0.924
 8893TIP3    H150874   3.400   7.667   0.934
 8893TIP3    H250875   3.280   7.589   0.885
 8894TIP3   OH250876   2.119   7.531   0.684
 8894TIP3    H150877   2.033   7.489   0.682
 8894TIP3    H250878   2.180   7.461   0.661
 8895TIP3   OH250879   1.949   7.541   0.311
 8895TIP3    H150880   2.016   7.606   0.331
 8895TIP3    H250881   1.866   7.590   0.312
 8896TIP3   OH250882   2.673   7.483   0.689
 8896TIP3    H150883   2.674   7.576   0.667
 8896TIP3    H250884   2.680   7.481   0.784
 8897TIP3   OH250885   3.141   7.571   0.750
 8897TIP3    H150886   3.205   7.519   0.702
 8897TIP3    H250887   3.070   7.510   0.770
 8898TIP3   OH250888   3.357   7.592   0.430
 8898TIP3    H150889   3.297   7.539   0.378
 8898TIP3    H250890   3.361   7.550   0.515
 8899TIP3   OH250891   2.376   7.520   1.664
 8899TIP3    H150892   2.466   7.489   1.662
 8899TIP3    H250893   2.334   7.469   1.733
 8900TIP3   OH250894   3.257   7.591   1.808
 8900TIP3    H150895   3.232   7.538   1.884
 8900TIP3    H250896   3.348   7.568   1.792
 8901TIP3   OH250897   4.547   7.504   0.994
 8901TIP3    H150898   4.539   7.409   1.002
 8901TIP3    H250899   4.465   7.539   1.029
 8902TIP3   OH250900   5.481   7.520   0.298
 8902TIP3    H150901   5.388   7.517   0.323
 8902TIP3    H250902   5.498   7.612   0.280
 8903TIP3   OH250903   4.307   7.603   1.092
 8903TIP3    H150904   4.227   7.589   1.042
 8903TIP3    H250905   4.324   7.696   1.084
 8904TIP3   OH250906   4.855   7.581   1.389
 8904TIP3    H150907   4.909   7.547   1.460
 8904TIP3    H250908   4.767   7.547   1.407
 8905TIP3   OH250909   4.071   7.590   0.950
 8905TIP3    H150910   4.059   7.576   0.856
 8905TIP3    H250911   4.024   7.519   0.992
 8906TIP3   OH250912   4.577   7.544   1.373
 8906TIP3    H150913   4.570   7.639   1.379
 8906TIP3    H250914   4.486   7.513   1.376
 8907TIP3   OH250915   4.512   7.499   1.700
 8907TIP3    H150916   4.549   7.519   1.787
 8907TIP3    H250917   4.581   7.448   1.657
 8908TIP3   OH250918   5.652   7.558   1.800
 8908TIP3    H150919   5.732   7.521   1.760
 8908TIP3    H250920   5.672   7.650   1.813
 8909TIP3   OH250921   3.833   7.593   1.373
 8909TIP3    H150922   3.792   7.590   1.459
 8909TIP3    H250923   3.846   7.686   1.355
 8910TIP3   OH250924   5.431   7.547   1.455
 8910TIP3    H150925   5.353   7.521   1.406
 8910TIP3    H250926   5.484   7.467   1.460
 8911TIP3   OH250927   5.263   7.591   0.897
 8911TIP3    H150928   5.274   7.681   0.927
 8911TIP3    H250929   5.177   7.590   0.854
 8912TIP3   OH250930   4.037   7.546   0.681
 8912TIP3    H150931   3.950   7.505   0.675
 8912TIP3    H250932   4.098   7.475   0.662
 8913TIP3   OH250933   3.964   7.445   0.233
 8913TIP3    H150934   3.958   7.533   0.273
 8913TIP3    H250935   3.938   7.386   0.303
 8914TIP3   OH250936   4.575   7.486   0.702
 8914TIP3    H150937   4.573   7.579   0.682
 8914TIP3    H250938   4.580   7.483   0.798
 8915TIP3   OH250939   5.024   7.558   0.747
 8915TIP3    H150940   5.052   7.512   0.668
 8915TIP3    H250941   4.963   7.498   0.790
 8916TIP3   OH250942   5.230   7.561   0.407
 8916TIP3    H150943   5.154   7.533   0.356
 8916TIP3    H250944   5.224   7.510   0.488
 8917TIP3   OH250945   4.256   7.521   1.805
 8917TIP3    H150946   4.335   7.493   1.759
 8917TIP3    H250947   4.217   7.439   1.837
 8918TIP3   OH250948   5.133   7.550   1.835
 8918TIP3    H150949   5.119   7.495   1.913
 8918TIP3    H250950   5.225   7.535   1.813
 8919TIP3   OH250951   6.422   7.514   1.005
 8919TIP3    H150952   6.422   7.419   1.010
 8919TIP3    H250953   6.333   7.539   1.029
 8920TIP3   OH250954   7.321   7.533   0.271
 8920TIP3    H150955   7.226   7.544   0.281
 8920TIP3    H250956   7.353   7.621   0.249
 8921TIP3   OH250957   6.168   7.597   1.073
 8921TIP3    H150958   6.087   7.586   1.024
 8921TIP3    H250959   6.181   7.692   1.077
 8922TIP3   OH250960   6.719   7.571   1.467
 8922TIP3    H150961   6.805   7.557   1.506
 8922TIP3    H250962   6.661   7.509   1.512
 8923TIP3   OH250963   5.926   7.588   0.945
 8923TIP3    H150964   5.909   7.576   0.852
 8923TIP3    H250965   5.880   7.516   0.987
 8924TIP3   OH250966   6.411   7.547   1.355
 8924TIP3    H150967   6.407   7.639   1.331
 8924TIP3    H250968   6.322   7.514   1.341
 8925TIP3   OH250969   6.416   7.549   1.631
 8925TIP3    H150970   6.482   7.484   1.654
 8925TIP3    H250971   6.411   7.546   1.535
 8926TIP3   OH250972   7.571   7.530   1.820
 8926TIP3    H150973   7.559   7.479   1.900
 8926TIP3    H250974   7.596   7.617   1.850
 8927TIP3   OH250975   5.703   7.606   1.343
 8927TIP3    H150976   5.620   7.607   1.390
 8927TIP3    H250977   5.735   7.696   1.349
 8928TIP3   OH250978   7.348   7.520   1.438
 8928TIP3    H150979   7.263   7.518   1.394
 8928TIP3    H250980   7.378   7.429   1.438
 8929TIP3   OH250981   7.155   7.576   0.958
 8929TIP3    H150982   7.184   7.667   0.952
 8929TIP3    H250983   7.064   7.579   0.926
 8930TIP3   OH250984   5.898   7.558   0.671
 8930TIP3    H150985   5.815   7.511   0.680
 8930TIP3    H250986   5.963   7.490   0.659
 8931TIP3   OH250987   5.768   7.506   0.274
 8931TIP3    H150988   5.805   7.594   0.287
 8931TIP3    H250989   5.675   7.517   0.293
 8932TIP3   OH250990   6.455   7.484   0.707
 8932TIP3    H150991   6.450   7.577   0.685
 8932TIP3    H250992   6.464   7.482   0.802
 8933TIP3   OH250993   6.915   7.551   0.812
 8933TIP3    H150994   6.975   7.500   0.758
 8933TIP3    H250995   6.868   7.486   0.864
 8934TIP3   OH250996   7.053   7.589   0.309
 8934TIP3    H150997   7.001   7.575   0.230
 8934TIP3    H250998   7.010   7.536   0.376
 8935TIP3   OH250999   6.170   7.601   1.746
 8935TIP3    H151000   6.250   7.568   1.704
 8935TIP3    H251001   6.141   7.529   1.802
 8936TIP3   OH251002   6.997   7.506   1.929
 8936TIP3    H151003   6.977   7.533   2.019
 8936TIP3    H251004   7.036   7.419   1.938
 8937TIP3   OH251005   7.549   7.596   1.256
 8937TIP3    H151006   7.488   7.575   1.327
 8937TIP3    H251007   7.548   7.691   1.251
 8938TIP3   OH251008   1.229   1.040   2.569
 8938TIP3    H151009   1.204   1.126   2.535
 8938TIP3    H251010   1.163   0.981   2.533
 8939TIP3   OH251011   1.520   1.298   2.773
 8939TIP3    H151012   1.476   1.292   2.857
 8939TIP3    H251013   1.613   1.306   2.795
 8940TIP3   OH251014   0.495   1.347   2.934
 8940TIP3    H151015   0.468   1.263   2.896
 8940TIP3    H251016   0.465   1.343   3.025
 8941TIP3   OH251017   0.111   0.773   2.475
 8941TIP3    H151018   0.106   0.764   2.570
 8941TIP3    H251019   0.024   0.747   2.444
 8942TIP3   OH251020   0.123   0.735   2.758
 8942TIP3    H151021   0.177   0.658   2.743
 8942TIP3    H251022   0.175   0.790   2.817
 8943TIP3   OH251023   1.432   0.452   2.650
 8943TIP3    H151024   1.474   0.405   2.577
 8943TIP3    H251025   1.360   0.499   2.610
 8944TIP3   OH251026   0.258   0.500   2.693
 8944TIP3    H151027   0.338   0.454   2.718
 8944TIP3    H251028   0.211   0.437   2.638
 8945TIP3   OH251029   0.772   0.824   2.683
 8945TIP3    H151030   0.799   0.786   2.766
 8945TIP3    H251031   0.765   0.749   2.624
 8946TIP3   OH251032   1.173   1.292   2.460
 8946TIP3    H151033   1.149   1.284   2.368
 8946TIP3    H251034   1.113   1.358   2.495
 8947TIP3   OH251035   0.189   1.322   2.280
 8947TIP3    H151036   0.187   1.375   2.200
 8947TIP3    H251037   0.194   1.386   2.351
 8948TIP3   OH251038   1.447   1.360   2.491
 8948TIP3    H151039   1.353   1.340   2.495
 8948TIP3    H251040   1.478   1.346   2.580
 8949TIP3   OH251041   1.067   0.841   2.460
 8949TIP3    H151042   0.976   0.833   2.489
 8949TIP3    H251043   1.061   0.845   2.364
 8950TIP3   OH251044   1.112   0.774   2.028
 8950TIP3    H151045   1.163   0.818   2.096
 8950TIP3    H251046   1.176   0.735   1.970
 8951TIP3   OH251047   1.450   0.963   2.426
 8951TIP3    H151048   1.387   0.987   2.493
 8951TIP3    H251049   1.518   0.915   2.473
 8952TIP3   OH251050   0.544   0.982   2.608
 8952TIP3    H151051   0.487   0.943   2.542
 8952TIP3    H251052   0.609   0.914   2.627
 8953TIP3   OH251053   1.302   0.878   2.208
 8953TIP3    H151054   1.343   0.911   2.289
 8953TIP3    H251055   1.357   0.912   2.138
 8954TIP3   OH251056   1.680   0.162   2.213
 8954TIP3    H151057   1.584   0.158   2.218
 8954TIP3    H251058   1.698   0.204   2.129
 8955TIP3   OH251059   0.357   0.900   2.411
 8955TIP3    H151060   0.336   0.962   2.341
 8955TIP3    H251061   0.272   0.863   2.436
 8956TIP3   OH251062   1.868   1.519   2.001
 8956TIP3    H151063   1.880   1.604   2.043
 8956TIP3    H251064   1.957   1.491   1.978
 8957TIP3   OH251065   0.059   1.393   2.954
 8957TIP3    H151066   0.009   1.313   2.968
 8957TIP3    H251067   0.133   1.386   3.014
 8958TIP3   OH251068   0.422   1.664   2.537
 8958TIP3    H151069   0.443   1.626   2.622
 8958TIP3    H251070   0.347   1.613   2.506
 8959TIP3   OH251071   1.473   0.964   2.009
 8959TIP3    H151072   1.405   0.960   1.942
 8959TIP3    H251073   1.526   0.886   1.995
 8960TIP3   OH251074   0.997   0.386   2.098
 8960TIP3    H151075   0.925   0.380   2.162
 8960TIP3    H251076   0.956   0.420   2.019
 8961TIP3   OH251077   0.751   0.604   2.526
 8961TIP3    H151078   0.730   0.523   2.572
 8961TIP3    H251079   0.705   0.597   2.442
 8962TIP3   OH251080   1.227   0.618   2.529
 8962TIP3    H151081   1.173   0.696   2.527
 8962TIP3    H251082   1.262   0.610   2.440
 8963TIP3   OH251083   0.614   0.427   1.951
 8963TIP3    H151084   0.648   0.338   1.942
 8963TIP3    H251085   0.554   0.438   1.878
 8964TIP3   OH251086   0.913   0.390   2.753
 8964TIP3    H151087   0.832   0.341   2.771
 8964TIP3    H251088   0.939   0.426   2.838
 8965TIP3   OH251089   0.638   0.573   2.278
 8965TIP3    H151090   0.695   0.500   2.255
 8965TIP3    H251091   0.624   0.620   2.195
 8966TIP3   OH251092   0.597   0.721   2.044
 8966TIP3    H151093   0.548   0.713   1.963
 8966TIP3    H251094   0.687   0.736   2.016
 8967TIP3   OH251095   0.847   0.688   2.912
 8967TIP3    H151096   0.829   0.599   2.944
 8967TIP3    H251097   0.853   0.741   2.992
 8968TIP3   OH251098   0.830   1.173   2.254
 8968TIP3    H151099   0.786   1.103   2.206
 8968TIP3    H251100   0.797   1.164   2.344
 8969TIP3   OH251101   1.261   0.450   2.066
 8969TIP3    H151102   1.168   0.431   2.078
 8969TIP3    H251103   1.287   0.496   2.146
 8970TIP3   OH251104   1.331   0.613   2.277
 8970TIP3    H151105   1.425   0.607   2.297
 8970TIP3    H251106   1.320   0.701   2.242
 8971TIP3   OH251107   0.423   1.104   2.829
 8971TIP3    H151108   0.455   1.062   2.750
 8971TIP3    H251109   0.361   1.042   2.866
 8972TIP3   OH251110   1.081   1.266   2.199
 8972TIP3    H151111   1.094   1.232   2.111
 8972TIP3    H251112   0.992   1.238   2.223
 8973TIP3   OH251113   1.783   0.694   2.194
 8973TIP3    H151114   1.730   0.714   2.117
 8973TIP3    H251115   1.841   0.770   2.204
 8974TIP3   OH251116   1.489   1.574   2.300
 8974TIP3    H151117   1.481   1.505   2.365
 8974TIP3    H251118   1.538   1.643   2.344
 8975TIP3   OH251119   0.649   1.424   2.556
 8975TIP3    H151120   0.672   1.502   2.505
 8975TIP3    H251121   0.592   1.457   2.625
 8976TIP3   OH251122   0.201   0.913   1.984
 8976TIP3    H151123   0.229   0.962   2.061
 8976TIP3    H251124   0.123   0.865   2.013
 8977TIP3   OH251125   0.725   1.167   2.503
 8977TIP3    H151126   0.690   1.254   2.521
 8977TIP3    H251127   0.660   1.107   2.541
 8978TIP3   OH251128   0.676   1.682   2.443
 8978TIP3    H151129   0.582   1.687   2.464
 8978TIP3    H251130   0.717   1.743   2.504
 8979TIP3   OH251131   1.358   1.249   2.029
 8979TIP3    H151132   1.358   1.237   2.124
 8979TIP3    H251133   1.277   1.209   1.999
 8980TIP3   OH251134   1.891   1.769   2.124
 8980TIP3    H151135   1.928   1.858   2.125
 8980TIP3    H251136   1.796   1.784   2.126
 8981TIP3   OH251137   1.480   1.189   2.271
 8981TIP3    H151138   1.476   1.107   2.320
 8981TIP3    H251139   1.483   1.258   2.337
 8982TIP3   OH251140   0.832   1.408   1.899
 8982TIP3    H151141   0.847   1.324   1.856
 8982TIP3    H251142   0.776   1.387   1.974
 8983TIP3   OH251143   0.682   1.367   2.125
 8983TIP3    H151144   0.731   1.306   2.181
 8983TIP3    H251145   0.705   1.454   2.158
 8984TIP3   OH251146   0.292   1.081   2.191
 8984TIP3    H151147   0.241   1.147   2.238
 8984TIP3    H251148   0.354   1.132   2.139
 8985TIP3   OH251149   1.151   0.263   2.301
 8985TIP3    H151150   1.104   0.282   2.220
 8985TIP3    H251151   1.117   0.325   2.365
 8986TIP3   OH251152   1.036   0.414   2.514
 8986TIP3    H151153   1.096   0.488   2.523
 8986TIP3    H251154   0.985   0.415   2.595
 8987TIP3   OH251155   1.068   0.137   2.542
 8987TIP3    H151156   1.053   0.231   2.551
 8987TIP3    H251157   1.109   0.127   2.456
 8988TIP3   OH251158   0.744   1.629   2.186
 8988TIP3    H151159   0.677   1.674   2.134
 8988TIP3    H251160   0.722   1.649   2.277
 8989TIP3   OH251161   0.440   1.266   2.031
 8989TIP3    H151162   0.514   1.310   2.074
 8989TIP3    H251163   0.479   1.222   1.955
 8990TIP3   OH251164   0.185   1.535   2.463
 8990TIP3    H151165   0.152   1.542   2.553
 8990TIP3    H251166   0.132   1.597   2.413
 8991TIP3   OH251167   1.045   1.578   1.880
 8991TIP3    H151168   0.977   1.512   1.895
 8991TIP3    H251169   1.127   1.530   1.885
 8992TIP3   OH251170   1.490   1.639   2.025
 8992TIP3    H151171   1.494   1.596   2.110
 8992TIP3    H251172   1.550   1.713   2.033
 8993TIP3   OH251173   0.635   1.131   1.870
 8993TIP3    H151174   0.645   1.084   1.952
 8993TIP3    H251175   0.723   1.133   1.832
 8994TIP3   OH251176   1.111   1.157   1.940
 8994TIP3    H151177   1.033   1.167   1.886
 8994TIP3    H251178   1.159   1.083   1.902
 8995TIP3   OH251179   0.703   0.984   2.097
 8995TIP3    H151180   0.633   0.925   2.126
 8995TIP3    H251181   0.765   0.928   2.050
 8996TIP3   OH251182   0.847   0.800   1.952
 8996TIP3    H151183   0.845   0.780   1.858
 8996TIP3    H251184   0.939   0.788   1.977
 8997TIP3   OH251185   1.718   1.089   1.861
 8997TIP3    H151186   1.711   1.048   1.775
 8997TIP3    H251187   1.722   1.183   1.842
 8998TIP3   OH251188   0.199   1.410   2.002
 8998TIP3    H151189   0.282   1.364   2.008
 8998TIP3    H251190   0.138   1.346   1.964
 8999TIP3   OH251191   0.090   1.845   2.541
 8999TIP3    H151192   0.003   1.840   2.580
 8999TIP3    H251193   0.079   1.808   2.453
 9000TIP3   OH251194   0.108   1.547   2.732
 9000TIP3    H151195   0.094   1.485   2.804
 9000TIP3    H251196   0.168   1.612   2.768
 9001TIP3   OH251197   1.780   1.152   2.197
 9001TIP3    H151198   1.857   1.209   2.200
 9001TIP3    H251199   1.780   1.108   2.282
 9002TIP3   OH251200   1.814   1.002   2.426
 9002TIP3    H151201   1.752   0.936   2.458
 9002TIP3    H251202   1.885   1.001   2.490
 9003TIP3   OH251203   1.892   1.311   2.949
 9003TIP3    H151204   1.971   1.263   2.925
 9003TIP3    H251205   1.882   1.295   3.043
 9004TIP3   OH251206   1.869   0.942   2.043
 9004TIP3    H151207   1.813   0.967   1.970
 9004TIP3    H251208   1.852   1.008   2.110
 9005TIP3   OH251209   1.630   0.741   1.970
 9005TIP3    H151210   1.683   0.748   1.891
 9005TIP3    H251211   1.596   0.652   1.969
 9006TIP3   OH251212   1.651   0.792   2.530
 9006TIP3    H151213   1.618   0.725   2.470
 9006TIP3    H251214   1.735   0.759   2.559
 9007TIP3   OH251215   0.241   0.920   2.951
 9007TIP3    H151216   0.168   0.951   3.004
 9007TIP3    H251217   0.306   0.891   3.015
 9008TIP3   OH251218   1.578   0.476   1.945
 9008TIP3    H151219   1.645   0.408   1.959
 9008TIP3    H251220   1.511   0.432   1.893
 9009TIP3   OH251221   1.590   0.586   2.360
 9009TIP3    H151222   1.603   0.493   2.378
 9009TIP3    H251223   1.663   0.609   2.302
 9010TIP3   OH251224   1.569   0.309   2.435
 9010TIP3    H151225   1.647   0.269   2.396
 9010TIP3    H251226   1.496   0.274   2.384
 9011TIP3   OH251227   0.059   0.723   3.140
 9011TIP3    H151228   0.128   0.705   3.204
 9011TIP3    H251229   0.051   0.819   3.139
 9012TIP3   OH251230   1.782   0.297   1.998
 9012TIP3    H151231   1.840   0.254   1.936
 9012TIP3    H251232   1.837   0.360   2.044
 9013TIP3   OH251233   0.296   1.690   2.874
 9013TIP3    H151234   0.314   1.672   2.967
 9013TIP3    H251235   0.377   1.666   2.829
 9014TIP3   OH251236   0.530   1.564   2.773
 9014TIP3    H151237   0.515   1.491   2.834
 9014TIP3    H251238   0.621   1.589   2.789
 9015TIP3   OH251239   0.802   1.625   2.780
 9015TIP3    H151240   0.801   1.704   2.725
 9015TIP3    H251241   0.894   1.598   2.781
 9016TIP3   OH251242   1.512   0.103   2.640
 9016TIP3    H151243   1.529   0.161   2.566
 9016TIP3    H251244   1.517   0.015   2.604
 9017TIP3   OH251245   0.093   0.043   2.117
 9017TIP3    H151246   0.027   0.067   2.053
 9017TIP3    H251247   0.045  -0.004   2.185
 9018TIP3   OH251248   0.804   0.115   2.441
 9018TIP3    H151249   0.886   0.102   2.488
 9018TIP3    H251250   0.781   0.028   2.408
 9019TIP3   OH251251   1.407   0.157   2.278
 9019TIP3    H151252   1.318   0.191   2.274
 9019TIP3    H251253   1.397   0.062   2.277
 9020TIP3   OH251254   0.050   1.714   2.298
 9020TIP3    H151255  -0.026   1.703   2.242
 9020TIP3    H251256   0.109   1.771   2.247
 9021TIP3   OH251257   0.829   0.363   2.317
 9021TIP3    H151258   0.805   0.276   2.349
 9021TIP3    H251259   0.885   0.399   2.386
 9022TIP3   OH251260   1.614   1.793   2.442
 9022TIP3    H151261   1.531   1.807   2.486
 9022TIP3    H251262   1.647   1.881   2.423
 9023TIP3   OH251263   0.146   1.688   1.957
 9023TIP3    H151264   0.175   1.743   2.030
 9023TIP3    H251265   0.171   1.599   1.982
 9024TIP3   OH251266   3.187   1.182   2.572
 9024TIP3    H151267   3.163   1.240   2.500
 9024TIP3    H251268   3.108   1.131   2.590
 9025TIP3   OH251269   3.310   1.376   2.738
 9025TIP3    H151270   3.286   1.312   2.671
 9025TIP3    H251271   3.366   1.439   2.692
 9026TIP3   OH251272   1.903   0.695   2.581
 9026TIP3    H151273   1.941   0.780   2.603
 9026TIP3    H251274   1.979   0.637   2.571
 9027TIP3   OH251275   2.004   0.947   2.636
 9027TIP3    H151276   2.098   0.963   2.625
 9027TIP3    H251277   1.989   0.958   2.729
 9028TIP3   OH251278   2.749   1.176   3.020
 9028TIP3    H151279   2.805   1.099   3.030
 9028TIP3    H251280   2.810   1.250   3.018
 9029TIP3   OH251281   2.357   0.375   2.922
 9029TIP3    H151282   2.409   0.412   2.852
 9029TIP3    H251283   2.408   0.301   2.954
 9030TIP3   OH251284   3.163   0.375   2.643
 9030TIP3    H151285   3.178   0.283   2.666
 9030TIP3    H251286   3.127   0.414   2.722
 9031TIP3   OH251287   2.124   0.692   2.826
 9031TIP3    H151288   2.114   0.783   2.854
 9031TIP3    H251289   2.137   0.643   2.907
 9032TIP3   OH251290   2.629   0.687   2.623
 9032TIP3    H151291   2.634   0.775   2.661
 9032TIP3    H251292   2.712   0.646   2.646
 9033TIP3   OH251293   3.113   1.338   2.365
 9033TIP3    H151294   3.069   1.316   2.283
 9033TIP3    H251295   3.103   1.433   2.373
 9034TIP3   OH251296   2.149   0.533   3.044
 9034TIP3    H151297   2.080   0.488   3.093
 9034TIP3    H251298   2.214   0.465   3.027
 9035TIP3   OH251299   2.023   1.288   2.204
 9035TIP3    H151300   2.039   1.342   2.127
 9035TIP3    H251301   2.051   1.342   2.278
 9036TIP3   OH251302   2.939   0.907   2.298
 9036TIP3    H151303   2.880   0.977   2.270
 9036TIP3    H251304   3.021   0.925   2.252
 9037TIP3   OH251305   3.030   0.829   1.947
 9037TIP3    H151306   3.073   0.848   2.030
 9037TIP3    H251307   3.081   0.757   1.909
 9038TIP3   OH251308   3.333   1.024   2.395
 9038TIP3    H151309   3.291   1.077   2.462
 9038TIP3    H251310   3.385   0.960   2.444
 9039TIP3   OH251311   3.195   0.935   2.170
 9039TIP3    H151312   3.239   0.972   2.246
 9039TIP3    H251313   3.249   0.960   2.096
 9040TIP3   OH251314   3.040   1.610   2.358
 9040TIP3    H151315   2.997   1.689   2.392
 9040TIP3    H251316   2.974   1.570   2.301
 9041TIP3   OH251317   3.546   0.086   2.083
 9041TIP3    H151318   3.485   0.111   2.152
 9041TIP3    H251319   3.605   0.161   2.075
 9042TIP3   OH251320   2.401   0.897   2.228
 9042TIP3    H151321   2.329   0.956   2.207
 9042TIP3    H251322   2.389   0.877   2.321
 9043TIP3   OH251323   2.907   1.855   2.348
 9043TIP3    H151324   2.909   1.840   2.253
 9043TIP3    H251325   2.929   1.948   2.357
 9044TIP3   OH251326   2.263   1.807   2.617
 9044TIP3    H151327   2.302   1.824   2.702
 9044TIP3    H251328   2.190   1.748   2.635
 9045TIP3   OH251329   3.207   1.805   2.064
 9045TIP3    H151330   3.251   1.727   2.032
 9045TIP3    H251331   3.230   1.810   2.157
 9046TIP3   OH251332   3.253   1.788   2.337
 9046TIP3    H151333   3.187   1.719   2.344
 9046TIP3    H251334   3.294   1.790   2.423
 9047TIP3   OH251335   2.465   0.131   3.009
 9047TIP3    H151336   2.425   0.067   2.950
 9047TIP3    H251337   2.439   0.103   3.097
 9048TIP3   OH251338   3.353   1.004   1.956
 9048TIP3    H151339   3.349   0.974   1.866
 9048TIP3    H251340   3.442   1.038   1.966
 9049TIP3   OH251341   2.435   0.502   2.681
 9049TIP3    H151342   2.356   0.535   2.640
 9049TIP3    H251343   2.500   0.571   2.666
 9050TIP3   OH251344   2.974   0.665   2.437
 9050TIP3    H151345   2.946   0.750   2.404
 9050TIP3    H251346   3.061   0.652   2.400
 9051TIP3   OH251347   2.871   0.589   2.696
 9051TIP3    H151348   2.927   0.596   2.619
 9051TIP3    H251349   2.894   0.505   2.735
 9052TIP3   OH251350   2.568   0.378   1.920
 9052TIP3    H151351   2.480   0.340   1.921
 9052TIP3    H251352   2.554   0.472   1.921
 9053TIP3   OH251353   1.933   0.466   2.152
 9053TIP3    H151354   2.005   0.503   2.101
 9053TIP3    H251355   1.881   0.541   2.180
 9054TIP3   OH251356   2.149   0.552   2.597
 9054TIP3    H151357   2.147   0.607   2.676
 9054TIP3    H251358   2.164   0.463   2.630
 9055TIP3   OH251359   2.541   0.648   1.907
 9055TIP3    H151360   2.478   0.684   1.845
 9055TIP3    H251361   2.617   0.706   1.901
 9056TIP3   OH251362   2.781   0.846   2.807
 9056TIP3    H151363   2.835   0.769   2.790
 9056TIP3    H251364   2.823   0.889   2.882
 9057TIP3   OH251365   2.757   1.110   2.211
 9057TIP3    H151366   2.697   1.073   2.147
 9057TIP3    H251367   2.700   1.150   2.277
 9058TIP3   OH251368   3.121   0.457   2.149
 9058TIP3    H151369   3.132   0.394   2.220
 9058TIP3    H251370   3.149   0.541   2.187
 9059TIP3   OH251371   3.210   0.678   2.287
 9059TIP3    H151372   3.299   0.660   2.320
 9059TIP3    H251373   3.216   0.765   2.248
 9060TIP3   OH251374   2.951   1.292   2.139
 9060TIP3    H151375   2.904   1.375   2.148
 9060TIP3    H251376   2.886   1.226   2.164
 9061TIP3   OH251377   3.676   0.721   2.218
 9061TIP3    H151378   3.656   0.678   2.135
 9061TIP3    H251379   3.699   0.811   2.195
 9062TIP3   OH251380   2.384   1.416   2.446
 9062TIP3    H151381   2.413   1.507   2.457
 9062TIP3    H251382   2.291   1.422   2.425
 9063TIP3   OH251383   2.122   0.875   1.972
 9063TIP3    H151384   2.170   0.934   2.029
 9063TIP3    H251385   2.030   0.885   1.998
 9064TIP3   OH251386   2.588   1.244   2.388
 9064TIP3    H151387   2.512   1.298   2.408
 9064TIP3    H251388   2.615   1.207   2.472
 9065TIP3   OH251389   2.453   1.686   2.458
 9065TIP3    H151390   2.384   1.727   2.511
 9065TIP3    H251391   2.533   1.734   2.480
 9066TIP3   OH251392   3.363   1.334   2.024
 9066TIP3    H151393   3.394   1.286   2.101
 9066TIP3    H251394   3.285   1.286   1.995
 9067TIP3   OH251395   3.468   1.213   2.244
 9067TIP3    H151396   3.413   1.151   2.292
 9067TIP3    H251397   3.556   1.198   2.279
 9068TIP3   OH251398   2.704   1.422   1.895
 9068TIP3    H151399   2.723   1.340   1.848
 9068TIP3    H251400   2.670   1.393   1.979
 9069TIP3   OH251401   2.574   1.377   2.139
 9069TIP3    H151402   2.585   1.329   2.221
 9069TIP3    H251403   2.567   1.469   2.166
 9070TIP3   OH251404   2.207   1.080   2.144
 9070TIP3    H151405   2.134   1.128   2.183
 9070TIP3    H251406   2.261   1.147   2.103
 9071TIP3   OH251407   3.157   0.306   2.374
 9071TIP3    H151408   3.167   0.343   2.462
 9071TIP3    H251409   3.084   0.245   2.382
 9072TIP3   OH251410   2.842   1.545   2.180
 9072TIP3    H151411   2.751   1.562   2.202
 9072TIP3    H251412   2.870   1.623   2.130
 9073TIP3   OH251413   2.585   1.639   2.219
 9073TIP3    H151414   2.595   1.726   2.180
 9073TIP3    H251415   2.533   1.655   2.298
 9074TIP3   OH251416   2.345   1.285   2.018
 9074TIP3    H151417   2.417   1.326   2.068
 9074TIP3    H251418   2.388   1.242   1.945
 9075TIP3   OH251419   2.105   0.593   1.986
 9075TIP3    H151420   2.123   0.687   1.982
 9075TIP3    H251421   2.137   0.560   1.902
 9076TIP3   OH251422   2.117   0.044   2.739
 9076TIP3    H151423   2.090   0.034   2.648
 9076TIP3    H251424   2.150  -0.043   2.764
 9077TIP3   OH251425   2.118   1.478   2.388
 9077TIP3    H151426   2.083   1.511   2.470
 9077TIP3    H251427   2.129   1.555   2.333
 9078TIP3   OH251428   2.893   1.621   1.855
 9078TIP3    H151429   2.824   1.556   1.872
 9078TIP3    H251430   2.970   1.568   1.836
 9079TIP3   OH251431   3.336   1.591   1.951
 9079TIP3    H151432   3.341   1.502   1.986
 9079TIP3    H251433   3.399   1.593   1.880
 9080TIP3   OH251434   2.488   1.145   1.832
 9080TIP3    H151435   2.508   1.084   1.903
 9080TIP3    H251436   2.574   1.167   1.794
 9081TIP3   OH251437   3.117   1.256   1.921
 9081TIP3    H151438   3.057   1.253   1.995
 9081TIP3    H251439   3.103   1.173   1.875
 9082TIP3   OH251440   2.577   0.988   2.038
 9082TIP3    H151441   2.520   0.943   2.101
 9082TIP3    H251442   2.631   0.919   2.001
 9083TIP3   OH251443   2.751   0.830   1.892
 9083TIP3    H151444   2.759   0.871   1.806
 9083TIP3    H251445   2.842   0.822   1.923
 9084TIP3   OH251446   3.613   1.103   1.916
 9084TIP3    H151447   3.628   1.057   1.833
 9084TIP3    H251448   3.623   1.195   1.895
 9085TIP3   OH251449   2.668   1.879   2.102
 9085TIP3    H151450   2.760   1.854   2.095
 9085TIP3    H251451   2.654   1.940   2.030
 9086TIP3   OH251452   2.108   1.394   1.939
 9086TIP3    H151453   2.195   1.371   1.972
 9086TIP3    H251454   2.081   1.317   1.889
 9087TIP3   OH251455   1.898   1.803   2.486
 9087TIP3    H151456   1.808   1.771   2.474
 9087TIP3    H251457   1.940   1.736   2.541
 9088TIP3   OH251458   2.051   1.612   2.633
 9088TIP3    H151459   2.022   1.665   2.707
 9088TIP3    H251460   2.088   1.533   2.674
 9089TIP3   OH251461   3.724   1.169   2.339
 9089TIP3    H151462   3.809   1.210   2.356
 9089TIP3    H251463   3.705   1.119   2.418
 9090TIP3   OH251464   3.674   1.026   2.562
 9090TIP3    H151465   3.607   0.959   2.572
 9090TIP3    H251466   3.717   1.030   2.648
 9091TIP3   OH251467   3.732   0.980   2.134
 9091TIP3    H151468   3.684   1.020   2.062
 9091TIP3    H251469   3.726   1.044   2.205
 9092TIP3   OH251470   3.603   0.624   1.972
 9092TIP3    H151471   3.645   0.665   1.896
 9092TIP3    H251472   3.558   0.547   1.936
 9093TIP3   OH251473   3.463   0.834   2.554
 9093TIP3    H151474   3.469   0.760   2.494
 9093TIP3    H251475   3.423   0.798   2.633
 9094TIP3   OH251476   3.525   0.377   1.855
 9094TIP3    H151477   3.587   0.345   1.920
 9094TIP3    H251478   3.450   0.317   1.862
 9095TIP3   OH251479   3.470   0.627   2.373
 9095TIP3    H151480   3.479   0.531   2.374
 9095TIP3    H251481   3.541   0.657   2.315
 9096TIP3   OH251482   3.509   0.351   2.367
 9096TIP3    H151483   3.516   0.309   2.453
 9096TIP3    H251484   3.448   0.295   2.319
 9097TIP3   OH251485   2.178   0.312   2.722
 9097TIP3    H151486   2.168   0.217   2.725
 9097TIP3    H251487   2.238   0.331   2.794
 9098TIP3   OH251488   3.725   0.283   2.017
 9098TIP3    H151489   3.787   0.244   1.956
 9098TIP3    H251490   3.777   0.348   2.066
 9099TIP3   OH251491   1.957   0.207   2.249
 9099TIP3    H151492   1.864   0.185   2.245
 9099TIP3    H251493   1.960   0.301   2.230
 9100TIP3   OH251494   3.426   0.036   2.781
 9100TIP3    H151495   3.341   0.057   2.742
 9100TIP3    H251496   3.407   0.021   2.873
 9101TIP3   OH251497   3.551   0.201   2.590
 9101TIP3    H151498   3.514   0.133   2.647
 9101TIP3    H251499   3.645   0.196   2.606
 9102TIP3   OH251500   2.029   0.059   2.475
 9102TIP3    H151501   2.018   0.118   2.400
 9102TIP3    H251502   2.047  -0.026   2.435
 9103TIP3   OH251503   2.112   0.107   2.038
 9103TIP3    H151504   2.050   0.127   1.967
 9103TIP3    H251505   2.069   0.140   2.117
 9104TIP3   OH251506   3.164   0.113   2.729
 9104TIP3    H151507   3.077   0.084   2.701
 9104TIP3    H251508   3.154   0.133   2.822
 9105TIP3   OH251509   3.348   0.148   2.260
 9105TIP3    H151510   3.276   0.201   2.293
 9105TIP3    H251511   3.325   0.058   2.284
 9106TIP3   OH251512   2.135   1.707   2.239
 9106TIP3    H151513   2.046   1.719   2.203
 9106TIP3    H251514   2.150   1.784   2.293
 9107TIP3   OH251515   2.321   0.249   1.909
 9107TIP3    H151516   2.347   0.191   1.838
 9107TIP3    H251517   2.268   0.195   1.967
 9108TIP3   OH251518   2.930   1.790   2.068
 9108TIP3    H151519   3.024   1.808   2.067
 9108TIP3    H251520   2.913   1.747   1.984
 9109TIP3   OH251521   2.265   1.731   1.992
 9109TIP3    H151522   2.239   1.708   2.081
 9109TIP3    H251523   2.331   1.665   1.969
 9110TIP3   OH251524   3.849   0.592   2.396
 9110TIP3    H151525   3.826   0.606   2.487
 9110TIP3    H251526   3.788   0.648   2.347
 9111TIP3   OH251527   3.814   1.033   2.804
 9111TIP3    H151528   3.872   0.960   2.825
 9111TIP3    H251529   3.835   1.100   2.869
 9112TIP3   OH251530   5.208   0.564   2.525
 9112TIP3    H151531   5.212   0.507   2.602
 9112TIP3    H251532   5.284   0.539   2.473
 9113TIP3   OH251533   3.922   0.519   2.680
 9113TIP3    H151534   3.956   0.461   2.748
 9113TIP3    H251535   3.991   0.522   2.614
 9114TIP3   OH251536   4.426   0.688   2.783
 9114TIP3    H151537   4.451   0.595   2.783
 9114TIP3    H251538   4.382   0.701   2.699
 9115TIP3   OH251539   5.239   0.365   2.715
 9115TIP3    H151540   5.239   0.393   2.807
 9115TIP3    H251541   5.322   0.318   2.705
 9116TIP3   OH251542   3.967   1.292   2.384
 9116TIP3    H151543   3.991   1.384   2.370
 9116TIP3    H251544   4.010   1.269   2.466
 9117TIP3   OH251545   4.587   0.095   2.801
 9117TIP3    H151546   4.609   0.002   2.807
 9117TIP3    H251547   4.500   0.096   2.760
 9118TIP3   OH251548   4.848   1.021   2.326
 9118TIP3    H151549   4.776   1.084   2.323
 9118TIP3    H251550   4.917   1.065   2.376
 9119TIP3   OH251551   4.847   0.816   1.997
 9119TIP3    H151552   4.865   0.793   2.088
 9119TIP3    H251553   4.906   0.760   1.946
 9120TIP3   OH251554   4.378   1.138   2.558
 9120TIP3    H151555   4.376   1.084   2.479
 9120TIP3    H251556   4.422   1.218   2.531
 9121TIP3   OH251557   5.344   0.076   2.115
 9121TIP3    H151558   5.301   0.112   2.193
 9121TIP3    H251559   5.416   0.137   2.097
 9122TIP3   OH251560   4.337   0.985   2.331
 9122TIP3    H151561   4.247   0.991   2.301
 9122TIP3    H251562   4.357   0.891   2.328
 9123TIP3   OH251563   5.613   1.360   2.033
 9123TIP3    H151564   5.544   1.384   1.970
 9123TIP3    H251565   5.695   1.371   1.984
 9124TIP3   OH251566   4.039   1.560   2.402
 9124TIP3    H151567   4.114   1.534   2.455
 9124TIP3    H251568   4.048   1.655   2.393
 9125TIP3   OH251569   5.093   1.809   2.113
 9125TIP3    H151570   5.170   1.754   2.100
 9125TIP3    H251571   5.083   1.815   2.208
 9126TIP3   OH251572   4.913   1.614   2.352
 9126TIP3    H151573   4.972   1.686   2.370
 9126TIP3    H251574   4.937   1.546   2.415
 9127TIP3   OH251575   4.773   0.351   2.070
 9127TIP3    H151576   4.709   0.349   2.141
 9127TIP3    H251577   4.740   0.288   2.006
 9128TIP3   OH251578   4.294   0.694   2.547
 9128TIP3    H151579   4.231   0.624   2.533
 9128TIP3    H251580   4.340   0.703   2.463
 9129TIP3   OH251581   4.914   0.761   2.262
 9129TIP3    H151582   4.888   0.848   2.291
 9129TIP3    H251583   5.008   0.757   2.279
 9130TIP3   OH251584   4.445   0.415   1.950
 9130TIP3    H151585   4.408   0.411   2.038
 9130TIP3    H251586   4.386   0.472   1.902
 9131TIP3   OH251587   3.830   0.254   2.597
 9131TIP3    H151588   3.856   0.344   2.620
 9131TIP3    H251589   3.818   0.256   2.502
 9132TIP3   OH251590   3.885   0.453   2.164
 9132TIP3    H151591   3.920   0.516   2.100
 9132TIP3    H251592   3.877   0.503   2.245
 9133TIP3   OH251593   4.486   0.411   2.760
 9133TIP3    H151594   4.432   0.385   2.686
 9133TIP3    H251595   4.571   0.368   2.745
 9134TIP3   OH251596   4.131   0.477   2.506
 9134TIP3    H151597   4.086   0.459   2.423
 9134TIP3    H251598   4.197   0.408   2.513
 9135TIP3   OH251599   4.425   0.722   2.307
 9135TIP3    H151600   4.514   0.687   2.321
 9135TIP3    H251601   4.409   0.709   2.214
 9136TIP3   OH251602   5.203   0.326   2.996
 9136TIP3    H151603   5.160   0.400   3.039
 9136TIP3    H251604   5.131   0.278   2.955
 9137TIP3   OH251605   4.395   0.720   2.034
 9137TIP3    H151606   4.350   0.689   1.955
 9137TIP3    H251607   4.459   0.783   2.003
 9138TIP3   OH251608   4.637   1.257   2.295
 9138TIP3    H151609   4.584   1.203   2.237
 9138TIP3    H251610   4.576   1.292   2.359
 9139TIP3   OH251611   4.982   0.506   2.145
 9139TIP3    H151612   4.911   0.449   2.116
 9139TIP3    H251613   4.939   0.585   2.177
 9140TIP3   OH251614   5.188   0.689   2.229
 9140TIP3    H151615   5.255   0.647   2.284
 9140TIP3    H251616   5.147   0.616   2.182
 9141TIP3   OH251617   4.136   1.267   2.596
 9141TIP3    H151618   4.216   1.215   2.589
 9141TIP3    H251619   4.166   1.358   2.597
 9142TIP3   OH251620   4.851   1.395   2.188
 9142TIP3    H151621   4.884   1.460   2.249
 9142TIP3    H251622   4.791   1.341   2.239
 9143TIP3   OH251623   5.611   0.647   2.211
 9143TIP3    H151624   5.590   0.642   2.118
 9143TIP3    H251625   5.616   0.741   2.229
 9144TIP3   OH251626   5.550   1.568   2.213
 9144TIP3    H151627   5.481   1.624   2.177
 9144TIP3    H251628   5.573   1.510   2.141
 9145TIP3   OH251629   5.225   0.906   2.806
 9145TIP3    H151630   5.136   0.937   2.792
 9145TIP3    H251631   5.215   0.825   2.856
 9146TIP3   OH251632   3.986   0.933   2.039
 9146TIP3    H151633   4.035   0.980   2.106
 9146TIP3    H251634   3.895   0.936   2.069
 9147TIP3   OH251635   4.750   1.397   1.825
 9147TIP3    H151636   4.701   1.323   1.790
 9147TIP3    H251637   4.824   1.357   1.872
 9148TIP3   OH251638   4.102   1.106   2.222
 9148TIP3    H151639   4.046   1.155   2.282
 9148TIP3    H251640   4.152   1.174   2.176
 9149TIP3   OH251641   5.037   0.386   2.394
 9149TIP3    H151642   5.025   0.423   2.306
 9149TIP3    H251643   5.086   0.453   2.441
 9150TIP3   OH251644   4.683   0.615   2.353
 9150TIP3    H151645   4.755   0.673   2.328
 9150TIP3    H251646   4.719   0.561   2.423
 9151TIP3   OH251647   4.784   0.414   2.512
 9151TIP3    H151648   4.782   0.377   2.600
 9151TIP3    H251649   4.870   0.391   2.478
 9152TIP3   OH251650   4.329   0.343   2.218
 9152TIP3    H151651   4.293   0.341   2.307
 9152TIP3    H251652   4.424   0.347   2.231
 9153TIP3   OH251653   4.263   1.312   2.112
 9153TIP3    H151654   4.330   1.282   2.173
 9153TIP3    H251655   4.299   1.295   2.025
 9154TIP3   OH251656   3.973   0.653   2.001
 9154TIP3    H151657   3.987   0.748   2.006
 9154TIP3    H251658   3.993   0.630   1.910
 9155TIP3   OH251659   4.842   1.647   1.875
 9155TIP3    H151660   4.801   1.561   1.860
 9155TIP3    H251661   4.936   1.629   1.877
 9156TIP3   OH251662   5.354   1.706   2.056
 9156TIP3    H151663   5.359   1.631   1.996
 9156TIP3    H251664   5.370   1.782   2.000
 9157TIP3   OH251665   4.412   1.229   1.890
 9157TIP3    H151666   4.435   1.174   1.965
 9157TIP3    H251667   4.486   1.223   1.831
 9158TIP3   OH251668   4.967   1.303   1.961
 9158TIP3    H151669   4.932   1.326   2.048
 9158TIP3    H251670   4.983   1.208   1.966
 9159TIP3   OH251671   4.480   1.099   2.127
 9159TIP3    H151672   4.434   1.053   2.197
 9159TIP3    H251673   4.524   1.029   2.077
 9160TIP3   OH251674   4.589   0.907   1.959
 9160TIP3    H151675   4.591   0.916   1.864
 9160TIP3    H251676   4.677   0.876   1.982
 9161TIP3   OH251677   4.019   1.439   2.056
 9161TIP3    H151678   4.098   1.397   2.089
 9161TIP3    H251679   3.992   1.384   1.982
 9162TIP3   OH251680   5.600   0.868   2.514
 9162TIP3    H151681   5.509   0.849   2.536
 9162TIP3    H251682   5.646   0.867   2.598
 9163TIP3   OH251683   5.659   0.920   2.254
 9163TIP3    H151684   5.673   1.015   2.246
 9163TIP3    H251685   5.641   0.906   2.347
 9164TIP3   OH251686   5.575   0.633   1.937
 9164TIP3    H151687   5.568   0.696   1.866
 9164TIP3    H251688   5.516   0.562   1.912
 9165TIP3   OH251689   5.340   0.814   2.573
 9165TIP3    H151690   5.284   0.739   2.557
 9165TIP3    H251691   5.306   0.854   2.653
 9166TIP3   OH251692   5.408   0.421   1.870
 9166TIP3    H151693   5.436   0.352   1.930
 9166TIP3    H251694   5.312   0.422   1.877
 9167TIP3   OH251695   5.400   0.505   2.338
 9167TIP3    H151696   5.429   0.416   2.355
 9167TIP3    H251697   5.475   0.548   2.298
 9168TIP3   OH251698   5.457   0.236   2.415
 9168TIP3    H151699   5.463   0.227   2.510
 9168TIP3    H251700   5.370   0.204   2.393
 9169TIP3   OH251701   3.859   0.649   2.927
 9169TIP3    H151702   3.868   0.628   2.834
 9169TIP3    H251703   3.908   0.730   2.938
 9170TIP3   OH251704   5.550   0.241   2.031
 9170TIP3    H151705   5.603   0.196   1.965
 9170TIP3    H251706   5.614   0.289   2.084
 9171TIP3   OH251707   3.774   0.267   2.335
 9171TIP3    H151708   3.684   0.298   2.333
 9171TIP3    H251709   3.819   0.318   2.268
 9172TIP3   OH251710   4.771   0.288   2.761
 9172TIP3    H151711   4.716   0.211   2.770
 9172TIP3    H251712   4.860   0.257   2.779
 9173TIP3   OH251713   5.376   7.644   2.696
 9173TIP3    H151714   5.411   7.733   2.693
 9173TIP3    H251715   5.310   7.646   2.765
 9174TIP3   OH251716   5.484   0.229   2.696
 9174TIP3    H151717   5.484   0.220   2.792
 9174TIP3    H251718   5.556   0.288   2.678
 9175TIP3   OH251719   5.033   0.186   2.820
 9175TIP3    H151720   5.089   0.231   2.757
 9175TIP3    H251721   5.079   0.104   2.838
 9176TIP3   OH251722   5.200   0.162   2.337
 9176TIP3    H151723   5.141   0.233   2.363
 9176TIP3    H251724   5.145   0.085   2.331
 9177TIP3   OH251725   4.156   0.308   1.983
 9177TIP3    H151726   4.210   0.237   1.948
 9177TIP3    H251727   4.192   0.326   2.070
 9178TIP3   OH251728   4.594   0.359   2.282
 9178TIP3    H151729   4.616   0.308   2.361
 9178TIP3    H251730   4.617   0.449   2.305
 9179TIP3   OH251731   4.830   1.887   2.019
 9179TIP3    H151732   4.909   1.871   2.071
 9179TIP3    H251733   4.824   1.811   1.961
 9180TIP3   OH251734   4.079   1.671   1.920
 9180TIP3    H151735   4.053   1.604   1.983
 9180TIP3    H251736   4.110   1.621   1.844
 9181TIP3   OH251737   6.856   1.121   2.498
 9181TIP3    H151738   6.811   1.205   2.483
 9181TIP3    H251739   6.792   1.055   2.473
 9182TIP3   OH251740   6.755   0.915   2.906
 9182TIP3    H151741   6.806   0.846   2.865
 9182TIP3    H251742   6.665   0.885   2.902
 9183TIP3   OH251743   5.741   0.619   2.466
 9183TIP3    H151744   5.708   0.700   2.505
 9183TIP3    H251745   5.702   0.618   2.379
 9184TIP3   OH251746   5.760   0.834   2.734
 9184TIP3    H151747   5.716   0.779   2.799
 9184TIP3    H251748   5.853   0.826   2.755
 9185TIP3   OH251749   6.960   1.619   3.024
 9185TIP3    H151750   6.948   1.532   2.986
 9185TIP3    H251751   6.886   1.629   3.084
 9186TIP3   OH251752   6.577   1.248   3.061
 9186TIP3    H151753   6.534   1.199   3.131
 9186TIP3    H251754   6.667   1.215   3.060
 9187TIP3   OH251755   6.289   0.358   2.599
 9187TIP3    H151756   6.282   0.453   2.590
 9187TIP3    H251757   6.212   0.323   2.554
 9188TIP3   OH251758   6.965   0.529   2.502
 9188TIP3    H151759   6.994   0.509   2.591
 9188TIP3    H251760   7.046   0.547   2.454
 9189TIP3   OH251761   5.872   0.528   2.814
 9189TIP3    H151762   5.923   0.521   2.895
 9189TIP3    H251763   5.938   0.532   2.745
 9190TIP3   OH251764   6.408   0.832   2.662
 9190TIP3    H151765   6.460   0.801   2.736
 9190TIP3    H251766   6.346   0.761   2.645
 9191TIP3   OH251767   6.754   1.372   2.437
 9191TIP3    H151768   6.710   1.398   2.356
 9191TIP3    H251769   6.723   1.434   2.503
 9192TIP3   OH251770   5.701   1.202   2.244
 9192TIP3    H151771   5.681   1.254   2.166
 9192TIP3    H251772   5.670   1.255   2.317
 9193TIP3   OH251773   6.965   1.622   2.625
 9193TIP3    H151774   6.998   1.555   2.565
 9193TIP3    H251775   7.030   1.692   2.621
 9194TIP3   OH251776   7.024   1.446   2.416
 9194TIP3    H151777   7.085   1.380   2.381
 9194TIP3    H251778   6.939   1.402   2.418
 9195TIP3   OH251779   6.736   0.912   2.338
 9195TIP3    H151780   6.665   0.966   2.305
 9195TIP3    H251781   6.799   0.909   2.266
 9196TIP3   OH251782   6.752   0.861   1.946
 9196TIP3    H151783   6.806   0.887   2.021
 9196TIP3    H251784   6.801   0.788   1.906
 9197TIP3   OH251785   7.065   1.019   2.358
 9197TIP3    H151786   6.997   1.051   2.418
 9197TIP3    H251787   7.112   0.952   2.408
 9198TIP3   OH251788   6.306   1.034   2.502
 9198TIP3    H151789   6.254   0.982   2.440
 9198TIP3    H251790   6.344   0.970   2.561
 9199TIP3   OH251791   6.439   1.319   2.837
 9199TIP3    H151792   6.412   1.236   2.798
 9199TIP3    H251793   6.482   1.293   2.919
 9200TIP3   OH251794   6.948   0.902   2.140
 9200TIP3    H151795   6.994   0.945   2.213
 9200TIP3    H251796   7.002   0.922   2.064
 9201TIP3   OH251797   6.697   1.606   2.580
 9201TIP3    H151798   6.788   1.613   2.608
 9201TIP3    H251799   6.690   1.664   2.504
 9202TIP3   OH251800   7.311   0.080   2.165
 9202TIP3    H151801   7.237   0.124   2.206
 9202TIP3    H251802   7.372   0.150   2.141
 9203TIP3   OH251803   6.151   0.915   2.295
 9203TIP3    H151804   6.080   0.975   2.272
 9203TIP3    H251805   6.111   0.828   2.291
 9204TIP3   OH251806   7.498   1.463   2.017
 9204TIP3    H151807   7.514   1.555   2.037
 9204TIP3    H251808   7.585   1.422   2.018
 9205TIP3   OH251809   6.728   1.780   2.370
 9205TIP3    H151810   6.710   1.784   2.276
 9205TIP3    H251811   6.694   1.862   2.405
 9206TIP3   OH251812   6.014   1.809   2.574
 9206TIP3    H151813   6.051   1.893   2.602
 9206TIP3    H251814   5.940   1.795   2.633
 9207TIP3   OH251815   7.001   1.746   2.041
 9207TIP3    H151816   7.054   1.675   2.003
 9207TIP3    H251817   7.011   1.737   2.135
 9208TIP3   OH251818   6.993   1.704   2.312
 9208TIP3    H151819   6.907   1.722   2.349
 9208TIP3    H251820   7.016   1.617   2.346
 9209TIP3   OH251821   7.097   0.940   1.914
 9209TIP3    H151822   7.064   0.960   1.827
 9209TIP3    H251823   7.181   0.898   1.899
 9210TIP3   OH251824   6.689   0.310   2.198
 9210TIP3    H151825   6.609   0.320   2.251
 9210TIP3    H251826   6.660   0.263   2.120
 9211TIP3   OH251827   6.256   0.628   2.550
 9211TIP3    H151828   6.163   0.616   2.567
 9211TIP3    H251829   6.263   0.639   2.455
 9212TIP3   OH251830   6.750   0.702   2.523
 9212TIP3    H151831   6.745   0.777   2.464
 9212TIP3    H251832   6.826   0.652   2.491
 9213TIP3   OH251833   6.856   0.686   2.781
 9213TIP3    H151834   6.814   0.695   2.695
 9213TIP3    H251835   6.900   0.602   2.777
 9214TIP3   OH251836   6.382   0.402   1.962
 9214TIP3    H151837   6.337   0.392   2.046
 9214TIP3    H251838   6.318   0.447   1.906
 9215TIP3   OH251839   5.679   0.413   2.650
 9215TIP3    H151840   5.739   0.437   2.720
 9215TIP3    H251841   5.693   0.479   2.582
 9216TIP3   OH251842   5.739   0.400   2.165
 9216TIP3    H151843   5.808   0.425   2.103
 9216TIP3    H251844   5.699   0.483   2.192
 9217TIP3   OH251845   5.995   0.543   2.559
 9217TIP3    H151846   5.910   0.570   2.525
 9217TIP3    H251847   6.009   0.456   2.524
 9218TIP3   OH251848   6.298   0.635   2.277
 9218TIP3    H151849   6.392   0.653   2.280
 9218TIP3    H251850   6.271   0.662   2.190
 9219TIP3   OH251851   6.252   0.695   2.018
 9219TIP3    H151852   6.219   0.646   1.942
 9219TIP3    H251853   6.332   0.737   1.986
 9220TIP3   OH251854   6.563   0.712   2.864
 9220TIP3    H151855   6.652   0.676   2.862
 9220TIP3    H251856   6.531   0.691   2.952
 9221TIP3   OH251857   6.063   0.297   2.451
 9221TIP3    H151858   6.016   0.218   2.478
 9221TIP3    H251859   6.088   0.281   2.360
 9222TIP3   OH251860   6.542   1.088   2.242
 9222TIP3    H151861   6.468   1.065   2.185
 9222TIP3    H251862   6.505   1.148   2.307
 9223TIP3   OH251863   6.953   0.357   2.126
 9223TIP3    H151864   6.859   0.355   2.143
 9223TIP3    H251865   6.975   0.450   2.122
 9224TIP3   OH251866   7.024   0.627   2.097
 9224TIP3    H151867   7.119   0.631   2.102
 9224TIP3    H251868   6.994   0.712   2.130
 9225TIP3   OH251869   6.704   1.261   2.103
 9225TIP3    H151870   6.677   1.345   2.139
 9225TIP3    H251871   6.652   1.196   2.150
 9226TIP3   OH251872   7.661   0.769   2.074
 9226TIP3    H151873   7.595   0.701   2.061
 9226TIP3    H251874   7.613   0.842   2.111
 9227TIP3   OH251875   7.318   1.494   2.233
 9227TIP3    H151876   7.273   1.412   2.253
 9227TIP3    H251877   7.375   1.473   2.159
 9228TIP3   OH251878   6.335   1.464   2.575
 9228TIP3    H151879   6.306   1.548   2.538
 9228TIP3    H251880   6.273   1.448   2.646
 9229TIP3   OH251881   5.863   0.841   2.079
 9229TIP3    H151882   5.918   0.916   2.102
 9229TIP3    H251883   5.785   0.852   2.134
 9230TIP3   OH251884   6.399   1.265   2.397
 9230TIP3    H151885   6.389   1.337   2.459
 9230TIP3    H251886   6.362   1.189   2.441
 9231TIP3   OH251887   6.254   1.708   2.483
 9231TIP3    H151888   6.165   1.736   2.505
 9231TIP3    H251889   6.310   1.779   2.516
 9232TIP3   OH251890   7.143   1.284   2.016
 9232TIP3    H151891   7.155   1.262   2.108
 9232TIP3    H251892   7.063   1.238   1.990
 9233TIP3   OH251893   7.541   1.727   2.087
 9233TIP3    H151894   7.592   1.775   2.021
 9233TIP3    H251895   7.466   1.784   2.105
 9234TIP3   OH251896   7.199   1.247   2.292
 9234TIP3    H151897   7.143   1.171   2.310
 9234TIP3    H251898   7.287   1.217   2.315
 9235TIP3   OH251899   6.444   1.391   1.907
 9235TIP3    H151900   6.454   1.305   1.865
 9235TIP3    H251901   6.407   1.371   1.993
 9236TIP3   OH251902   6.322   1.376   2.156
 9236TIP3    H151903   6.347   1.327   2.234
 9236TIP3    H251904   6.333   1.468   2.181
 9237TIP3   OH251905   5.954   1.082   2.190
 9237TIP3    H151906   5.873   1.124   2.219
 9237TIP3    H251907   6.003   1.151   2.146
 9238TIP3   OH251908   6.829   0.295   2.439
 9238TIP3    H151909   6.784   0.306   2.355
 9238TIP3    H251910   6.874   0.378   2.453
 9239TIP3   OH251911   6.632   1.500   2.223
 9239TIP3    H151912   6.543   1.529   2.242
 9239TIP3    H251913   6.676   1.577   2.188
 9240TIP3   OH251914   6.534   0.532   2.535
 9240TIP3    H151915   6.606   0.595   2.534
 9240TIP3    H251916   6.457   0.583   2.558
 9241TIP3   OH251917   6.635   0.292   2.640
 9241TIP3    H151918   6.596   0.376   2.616
 9241TIP3    H251919   6.713   0.285   2.585
 9242TIP3   OH251920   6.385   1.625   2.253
 9242TIP3    H151921   6.405   1.708   2.209
 9242TIP3    H251922   6.336   1.652   2.331
 9243TIP3   OH251923   6.244   0.371   2.208
 9243TIP3    H151924   6.240   0.462   2.238
 9243TIP3    H251925   6.317   0.333   2.256
 9244TIP3   OH251926   7.125   0.798   2.765
 9244TIP3    H151927   7.036   0.772   2.788
 9244TIP3    H251928   7.181   0.750   2.826
 9245TIP3   OH251929   6.085   1.280   2.048
 9245TIP3    H151930   6.158   1.323   2.092
 9245TIP3    H251931   6.126   1.231   1.977
 9246TIP3   OH251932   5.849   0.577   1.969
 9246TIP3    H151933   5.876   0.657   2.014
 9246TIP3    H251934   5.757   0.592   1.947
 9247TIP3   OH251935   6.015   0.060   2.771
 9247TIP3    H151936   5.976   0.051   2.684
 9247TIP3    H251937   6.003  -0.025   2.812
 9248TIP3   OH251938   5.558   1.375   2.410
 9248TIP3    H151939   5.566   1.455   2.358
 9248TIP3    H251940   5.475   1.386   2.457
 9249TIP3   OH251941   6.644   1.578   1.885
 9249TIP3    H151942   6.576   1.512   1.898
 9249TIP3    H251943   6.724   1.528   1.870
 9250TIP3   OH251944   7.137   1.543   1.921
 9250TIP3    H151945   7.156   1.459   1.963
 9250TIP3    H251946   7.209   1.557   1.860
 9251TIP3   OH251947   6.211   1.120   1.865
 9251TIP3    H151948   6.234   1.072   1.944
 9251TIP3    H251949   6.294   1.136   1.821
 9252TIP3   OH251950   6.895   1.201   1.923
 9252TIP3    H151951   6.828   1.213   1.991
 9252TIP3    H251952   6.853   1.145   1.858
 9253TIP3   OH251953   6.319   1.007   2.093
 9253TIP3    H151954   6.268   0.965   2.162
 9253TIP3    H251955   6.367   0.935   2.052
 9254TIP3   OH251956   6.476   0.834   1.946
 9254TIP3    H151957   6.470   0.855   1.853
 9254TIP3    H251958   6.570   0.838   1.965
 9255TIP3   OH251959   7.464   1.050   1.873
 9255TIP3    H151960   7.420   0.980   1.826
 9255TIP3    H251961   7.415   1.129   1.851
 9256TIP3   OH251962   6.479   1.852   2.132
 9256TIP3    H151963   6.568   1.824   2.110
 9256TIP3    H251964   6.462   1.926   2.073
 9257TIP3   OH251965   5.861   1.359   1.911
 9257TIP3    H151966   5.937   1.343   1.967
 9257TIP3    H251967   5.849   1.278   1.863
 9258TIP3   OH251968   7.433   1.120   2.352
 9258TIP3    H151969   7.452   1.071   2.272
 9258TIP3    H251970   7.449   1.057   2.423
 9259TIP3   OH251971   7.449   0.897   2.520
 9259TIP3    H151972   7.355   0.877   2.513
 9259TIP3    H251973   7.492   0.824   2.476
 9260TIP3   OH251974   7.461   0.953   2.133
 9260TIP3    H151975   7.459   0.989   2.044
 9260TIP3    H251976   7.404   0.876   2.129
 9261TIP3   OH251977   7.321   0.789   1.836
 9261TIP3    H151978   7.335   0.746   1.920
 9261TIP3    H251979   7.258   0.733   1.790
 9262TIP3   OH251980   7.186   0.820   2.500
 9262TIP3    H151981   7.192   0.730   2.466
 9262TIP3    H251982   7.160   0.809   2.592
 9263TIP3   OH251983   5.684   0.677   2.947
 9263TIP3    H151984   5.741   0.613   2.904
 9263TIP3    H251985   5.735   0.709   3.021
 9264TIP3   OH251986   7.312   0.409   1.903
 9264TIP3    H151987   7.310   0.485   1.961
 9264TIP3    H251988   7.221   0.391   1.882
 9265TIP3   OH251989   7.209   0.568   2.383
 9265TIP3    H151990   7.232   0.476   2.390
 9265TIP3    H251991   7.250   0.597   2.302
 9266TIP3   OH251992   7.320   0.693   2.932
 9266TIP3    H151993   7.409   0.658   2.928
 9266TIP3    H251994   7.273   0.635   2.992
 9267TIP3   OH251995   7.257   0.295   2.393
 9267TIP3    H151996   7.298   0.235   2.456
 9267TIP3    H251997   7.177   0.250   2.365
 9268TIP3   OH251998   7.491   0.277   2.068
 9268TIP3    H151999   7.543   0.223   2.009
 9268TIP3    H252000   7.432   0.326   2.011
 9269TIP3   OH252001   5.719   0.177   2.326
 9269TIP3    H152002   5.632   0.188   2.365
 9269TIP3    H252003   5.735   0.259   2.280
 9270TIP3   OH252004   7.169   1.801   2.583
 9270TIP3    H152005   7.216   1.772   2.505
 9270TIP3    H252006   7.211   1.883   2.607
 9271TIP3   OH252007   7.147   0.218   2.695
 9271TIP3    H152008   7.224   0.180   2.652
 9271TIP3    H252009   7.075   0.159   2.673
 9272TIP3   OH252010   7.376   0.118   2.569
 9272TIP3    H152011   7.405   0.030   2.548
 9272TIP3    H252012   7.457   0.169   2.577
 9273TIP3   OH252013   5.922   0.064   2.495
 9273TIP3    H152014   5.844   0.092   2.447
 9273TIP3    H252015   5.933  -0.028   2.470
 9274TIP3   OH252016   5.902   0.060   2.144
 9274TIP3    H152017   5.943   0.136   2.102
 9274TIP3    H252018   5.836   0.098   2.202
 9275TIP3   OH252019   6.488   0.090   2.524
 9275TIP3    H152020   6.534   0.154   2.578
 9275TIP3    H252021   6.469   0.018   2.583
 9276TIP3   OH252022   6.956   0.037   2.619
 9276TIP3    H152023   6.860   0.043   2.620
 9276TIP3    H252024   6.974  -0.055   2.639
 9277TIP3   OH252025   7.037   0.154   2.295
 9277TIP3    H152026   7.009   0.216   2.228
 9277TIP3    H252027   6.976   0.168   2.367
 9278TIP3   OH252028   6.050   0.272   2.034
 9278TIP3    H152029   6.108   0.235   1.967
 9278TIP3    H252030   6.109   0.312   2.098
 9279TIP3   OH252031   6.466   0.315   2.360
 9279TIP3    H152032   6.459   0.236   2.413
 9279TIP3    H252033   6.477   0.385   2.424
 9280TIP3   OH252034   6.727   1.738   2.090
 9280TIP3    H152035   6.820   1.752   2.070
 9280TIP3    H252036   6.694   1.690   2.013
 9281TIP3   OH252037   7.333   1.730   2.369
 9281TIP3    H152038   7.324   1.644   2.329
 9281TIP3    H252039   7.340   1.790   2.295
 9282TIP3   OH252040   7.540   0.676   2.369
 9282TIP3    H152041   7.487   0.695   2.291
 9282TIP3    H252042   7.539   0.580   2.375
 9283TIP3   OH252043   7.586   0.292   2.558
 9283TIP3    H152044   7.682   0.293   2.561
 9283TIP3    H252045   7.564   0.336   2.476
 9284TIP3   OH252046   7.499   1.766   2.584
 9284TIP3    H152047   7.449   1.758   2.502
 9284TIP3    H252048   7.513   1.675   2.611
 9285TIP3   OH252049   7.540   1.497   2.628
 9285TIP3    H152050   7.542   1.431   2.559
 9285TIP3    H252051   7.631   1.504   2.657
 9286TIP3   OH252052   7.588   0.649   2.922
 9286TIP3    H152053   7.655   0.661   2.855
 9286TIP3    H252054   7.636   0.661   3.005
 9287TIP3   OH252055   7.503   0.398   2.319
 9287TIP3    H152056   7.415   0.372   2.344
 9287TIP3    H252057   7.513   0.367   2.229
 9288TIP3   OH252058   1.062   2.919   2.567
 9288TIP3    H152059   1.050   3.014   2.562
 9288TIP3    H252060   1.071   2.891   2.476
 9289TIP3   OH252061   1.090   2.835   2.892
 9289TIP3    H152062   1.087   2.789   2.976
 9289TIP3    H252063   1.170   2.888   2.896
 9290TIP3   OH252064   1.377   2.951   2.674
 9290TIP3    H152065   1.352   2.969   2.764
 9290TIP3    H252066   1.420   2.865   2.677
 9291TIP3   OH252067   0.197   2.511   2.299
 9291TIP3    H152068   0.240   2.595   2.281
 9291TIP3    H252069   0.104   2.533   2.307
 9292TIP3   OH252070   0.203   2.864   2.743
 9292TIP3    H152071   0.241   2.777   2.743
 9292TIP3    H252072   0.143   2.865   2.668
 9293TIP3   OH252073   1.221   3.567   2.791
 9293TIP3    H152074   1.305   3.550   2.832
 9293TIP3    H252075   1.165   3.597   2.863
 9294TIP3   OH252076   0.927   3.089   2.873
 9294TIP3    H152077   0.960   3.000   2.859
 9294TIP3    H252078   1.006   3.140   2.893
 9295TIP3   OH252079   1.215   2.368   2.421
 9295TIP3    H152080   1.140   2.340   2.473
 9295TIP3    H252081   1.282   2.391   2.486
 9296TIP3   OH252082   0.300   2.613   2.742
 9296TIP3    H152083   0.231   2.561   2.784
 9296TIP3    H252084   0.326   2.561   2.665
 9297TIP3   OH252085   0.863   2.658   2.725
 9297TIP3    H152086   0.826   2.649   2.812
 9297TIP3    H252087   0.794   2.628   2.666
 9298TIP3   OH252088   1.036   3.185   2.475
 9298TIP3    H152089   1.073   3.186   2.387
 9298TIP3    H252090   1.061   3.269   2.513
 9299TIP3   OH252091   0.165   3.233   2.283
 9299TIP3    H152092   0.148   3.300   2.217
 9299TIP3    H252093   0.182   3.283   2.364
 9300TIP3   OH252094   0.784   2.016   2.848
 9300TIP3    H152095   0.781   1.996   2.942
 9300TIP3    H252096   0.714   2.079   2.834
 9301TIP3   OH252097   1.492   3.436   2.764
 9301TIP3    H152098   1.450   3.362   2.720
 9301TIP3    H252099   1.488   3.507   2.701
 9302TIP3   OH252100   1.359   3.233   2.638
 9302TIP3    H152101   1.273   3.256   2.603
 9302TIP3    H252102   1.359   3.138   2.643
 9303TIP3   OH252103   1.082   2.832   2.306
 9303TIP3    H152104   1.007   2.878   2.269
 9303TIP3    H252105   1.151   2.841   2.240
 9304TIP3   OH252106   1.156   2.714   1.948
 9304TIP3    H152107   1.200   2.736   2.030
 9304TIP3    H252108   1.216   2.654   1.904
 9305TIP3   OH252109   1.426   2.911   2.393
 9305TIP3    H152110   1.392   2.945   2.476
 9305TIP3    H252111   1.463   2.826   2.416
 9306TIP3   OH252112   0.690   3.244   2.825
 9306TIP3    H152113   0.700   3.286   2.740
 9306TIP3    H252114   0.772   3.195   2.837
 9307TIP3   OH252115   1.322   2.801   2.156
 9307TIP3    H152116   1.359   2.842   2.235
 9307TIP3    H252117   1.381   2.828   2.086
 9308TIP3   OH252118   1.128   3.424   2.570
 9308TIP3    H152119   1.158   3.470   2.648
 9308TIP3    H252120   1.109   3.494   2.507
 9309TIP3   OH252121   1.630   1.867   2.086
 9309TIP3    H152122   1.583   1.917   2.153
 9309TIP3    H252123   1.675   1.933   2.034
 9310TIP3   OH252124   0.326   2.754   2.269
 9310TIP3    H152125   0.305   2.844   2.246
 9310TIP3    H252126   0.403   2.761   2.325
 9311TIP3   OH252127   1.827   3.383   2.016
 9311TIP3    H152128   1.845   3.476   2.034
 9311TIP3    H252129   1.910   3.339   2.034
 9312TIP3   OH252130   7.624   3.414   2.907
 9312TIP3    H152131   7.530   3.428   2.906
 9312TIP3    H252132   7.636   3.335   2.960
 9313TIP3   OH252133   1.088   3.636   2.391
 9313TIP3    H152134   1.077   3.641   2.296
 9313TIP3    H252135   1.062   3.722   2.423
 9314TIP3   OH252136   0.393   3.494   2.668
 9314TIP3    H152137   0.353   3.576   2.697
 9314TIP3    H252138   0.335   3.464   2.597
 9315TIP3   OH252139   1.356   3.647   2.094
 9315TIP3    H152140   1.407   3.574   2.059
 9315TIP3    H252141   1.376   3.648   2.188
 9316TIP3   OH252142   1.365   3.650   2.373
 9316TIP3    H152143   1.273   3.639   2.394
 9316TIP3    H252144   1.411   3.637   2.456
 9317TIP3   OH252145   0.574   2.188   2.832
 9317TIP3    H152146   0.521   2.205   2.755
 9317TIP3    H252147   0.532   2.238   2.902
 9318TIP3   OH252148   1.474   2.855   1.933
 9318TIP3    H152149   1.448   2.857   1.840
 9318TIP3    H252150   1.566   2.880   1.932
 9319TIP3   OH252151   1.062   2.180   2.045
 9319TIP3    H152152   0.994   2.169   2.112
 9319TIP3    H252153   1.016   2.168   1.962
 9320TIP3   OH252154   0.641   2.553   2.594
 9320TIP3    H152155   0.546   2.553   2.587
 9320TIP3    H252156   0.669   2.477   2.543
 9321TIP3   OH252157   1.104   2.621   2.478
 9321TIP3    H152158   1.105   2.688   2.410
 9321TIP3    H252159   1.147   2.545   2.439
 9322TIP3   OH252160   0.664   2.261   1.911
 9322TIP3    H152161   0.644   2.233   2.001
 9322TIP3    H252162   0.583   2.242   1.862
 9323TIP3   OH252163   0.164   2.160   2.580
 9323TIP3    H152164   0.255   2.189   2.590
 9323TIP3    H252165   0.159   2.131   2.489
 9324TIP3   OH252166   0.119   2.306   2.126
 9324TIP3    H152167   0.137   2.343   2.039
 9324TIP3    H252168   0.147   2.374   2.187
 9325TIP3   OH252169   0.988   2.283   2.545
 9325TIP3    H152170   0.895   2.295   2.526
 9325TIP3    H252171   0.989   2.243   2.632
 9326TIP3   OH252172   0.374   2.471   2.519
 9326TIP3    H152173   0.313   2.475   2.446
 9326TIP3    H252174   0.396   2.379   2.528
 9327TIP3   OH252175   0.624   2.556   2.192
 9327TIP3    H152176   0.717   2.560   2.214
 9327TIP3    H252177   0.587   2.494   2.254
 9328TIP3   OH252178   1.295   2.046   2.958
 9328TIP3    H152179   1.348   1.976   2.998
 9328TIP3    H252180   1.277   2.014   2.870
 9329TIP3   OH252181   0.422   2.560   1.993
 9329TIP3    H152182   0.471   2.534   1.915
 9329TIP3    H252183   0.487   2.557   2.064
 9330TIP3   OH252184   0.446   2.199   2.569
 9330TIP3    H152185   0.432   2.105   2.555
 9330TIP3    H252186   0.527   2.219   2.523
 9331TIP3   OH252187   0.854   2.982   2.235
 9331TIP3    H152188   0.790   2.926   2.192
 9331TIP3    H252189   0.803   3.033   2.298
 9332TIP3   OH252190   1.268   2.352   1.966
 9332TIP3    H152191   1.197   2.305   2.009
 9332TIP3    H252192   1.308   2.404   2.035
 9333TIP3   OH252193   1.388   2.520   2.143
 9333TIP3    H152194   1.433   2.489   2.222
 9333TIP3    H252195   1.366   2.611   2.162
 9334TIP3   OH252196   1.060   3.153   2.180
 9334TIP3    H152197   1.024   3.242   2.189
 9334TIP3    H252198   0.986   3.095   2.196
 9335TIP3   OH252199   1.676   3.374   2.259
 9335TIP3    H152200   1.636   3.288   2.271
 9335TIP3    H252201   1.718   3.369   2.173
 9336TIP3   OH252202   0.650   3.396   2.586
 9336TIP3    H152203   0.685   3.482   2.561
 9336TIP3    H252204   0.558   3.412   2.606
 9337TIP3   OH252205   0.294   2.808   1.961
 9337TIP3    H152206   0.278   2.861   2.039
 9337TIP3    H252207   0.335   2.728   1.995
 9338TIP3   OH252208   0.762   3.193   2.411
 9338TIP3    H152209   0.718   3.254   2.470
 9338TIP3    H252210   0.852   3.190   2.441
 9339TIP3   OH252211   0.655   3.682   2.521
 9339TIP3    H152212   0.566   3.716   2.530
 9339TIP3    H252213   0.711   3.755   2.547
 9340TIP3   OH252214   1.489   3.184   2.013
 9340TIP3    H152215   1.518   3.153   2.099
 9340TIP3    H252216   1.401   3.148   2.003
 9341TIP3   OH252217   1.880   3.644   2.096
 9341TIP3    H152218   1.949   3.710   2.101
 9341TIP3    H252219   1.801   3.689   2.124
 9342TIP3   OH252220   1.583   3.096   2.254
 9342TIP3    H152221   1.519   3.047   2.306
 9342TIP3    H252222   1.665   3.049   2.266
 9343TIP3   OH252223   0.816   3.306   1.940
 9343TIP3    H152224   0.817   3.219   1.902
 9343TIP3    H252225   0.767   3.296   2.022
 9344TIP3   OH252226   0.656   3.303   2.174
 9344TIP3    H152227   0.686   3.249   2.247
 9344TIP3    H252228   0.664   3.393   2.205
 9345TIP3   OH252229   0.278   3.008   2.169
 9345TIP3    H152230   0.223   3.067   2.221
 9345TIP3    H252231   0.340   3.065   2.124
 9346TIP3   OH252232   1.238   2.147   2.254
 9346TIP3    H152233   1.176   2.164   2.183
 9346TIP3    H252234   1.231   2.224   2.311
 9347TIP3   OH252235   0.958   3.400   2.224
 9347TIP3    H152236   0.877   3.438   2.258
 9347TIP3    H252237   1.010   3.476   2.196
 9348TIP3   OH252238   0.876   2.543   2.305
 9348TIP3    H152239   0.933   2.574   2.375
 9348TIP3    H252240   0.833   2.465   2.341
 9349TIP3   OH252241   0.946   2.015   2.463
 9349TIP3    H152242   0.975   2.100   2.498
 9349TIP3    H252243   1.014   1.954   2.492
 9350TIP3   OH252244   0.724   3.548   2.282
 9350TIP3    H152245   0.747   3.619   2.222
 9350TIP3    H252246   0.697   3.593   2.362
 9351TIP3   OH252247   0.602   2.141   2.153
 9351TIP3    H152248   0.587   2.196   2.230
 9351TIP3    H252249   0.689   2.104   2.167
 9352TIP3   OH252250   0.433   3.195   2.037
 9352TIP3    H152251   0.496   3.244   2.090
 9352TIP3    H252252   0.486   3.134   1.986
 9353TIP3   OH252253   0.193   2.436   1.886
 9353TIP3    H152254   0.270   2.466   1.935
 9353TIP3    H252255   0.164   2.512   1.837
 9354TIP3   OH252256   1.758   3.479   2.819
 9354TIP3    H152257   1.667   3.450   2.805
 9354TIP3    H252258   1.751   3.573   2.837
 9355TIP3   OH252259   0.097   2.009   2.805
 9355TIP3    H152260   0.123   2.055   2.725
 9355TIP3    H252261   0.147   1.928   2.804
 9356TIP3   OH252262   0.200   3.439   2.477
 9356TIP3    H152263   0.128   3.464   2.535
 9356TIP3    H252264   0.185   3.489   2.397
 9357TIP3   OH252265   1.014   3.487   1.893
 9357TIP3    H152266   0.943   3.427   1.915
 9357TIP3    H252267   1.088   3.430   1.873
 9358TIP3   OH252268   1.475   3.450   1.943
 9358TIP3    H152269   1.496   3.364   1.980
 9358TIP3    H252270   1.542   3.464   1.876
 9359TIP3   OH252271   0.597   3.007   1.923
 9359TIP3    H152272   0.616   2.936   1.985
 9359TIP3    H252273   0.682   3.031   1.887
 9360TIP3   OH252274   1.226   3.113   1.969
 9360TIP3    H152275   1.172   3.124   2.047
 9360TIP3    H252276   1.183   3.044   1.919
 9361TIP3   OH252277   0.695   2.807   2.086
 9361TIP3    H152278   0.655   2.731   2.128
 9361TIP3    H252279   0.761   2.769   2.027
 9362TIP3   OH252280   0.878   2.697   1.908
 9362TIP3    H152281   0.970   2.696   1.934
 9362TIP3    H252282   0.859   2.607   1.882
 9363TIP3   OH252283   1.744   2.937   1.873
 9363TIP3    H152284   1.725   2.911   1.783
 9363TIP3    H252285   1.732   3.032   1.874
 9364TIP3   OH252286   0.823   3.738   2.114
 9364TIP3    H152287   0.917   3.718   2.115
 9364TIP3    H252288   0.815   3.809   2.050
 9365TIP3   OH252289   0.165   3.260   1.964
 9365TIP3    H152290   0.256   3.256   1.995
 9365TIP3    H252291   0.137   3.169   1.958
 9366TIP3   OH252292   0.123   3.770   2.528
 9366TIP3    H152293   0.038   3.784   2.486
 9366TIP3    H252294   0.108   3.696   2.587
 9367TIP3   OH252295   7.700   3.533   2.665
 9367TIP3    H152296   7.690   3.474   2.740
 9367TIP3    H252297   7.614   3.573   2.653
 9368TIP3   OH252298   1.814   2.951   2.305
 9368TIP3    H152299   1.885   3.014   2.315
 9368TIP3    H252300   1.812   2.903   2.388
 9369TIP3   OH252301   1.840   2.784   2.084
 9369TIP3    H152302   1.801   2.833   2.012
 9369TIP3    H252303   1.822   2.837   2.162
 9370TIP3   OH252304   0.104   2.102   2.308
 9370TIP3    H152305   0.011   2.109   2.327
 9370TIP3    H252306   0.121   2.172   2.245
 9371TIP3   OH252307   1.512   3.658   2.606
 9371TIP3    H152308   1.594   3.665   2.557
 9371TIP3    H252309   1.520   3.724   2.675
 9372TIP3   OH252310   0.539   3.477   2.903
 9372TIP3    H152311   0.492   3.480   2.819
 9372TIP3    H252312   0.592   3.398   2.898
 9373TIP3   OH252313   1.030   2.110   2.754
 9373TIP3    H152314   0.954   2.062   2.788
 9373TIP3    H252315   1.100   2.045   2.749
 9374TIP3   OH252316   1.759   2.044   2.434
 9374TIP3    H152317   1.823   1.978   2.463
 9374TIP3    H252318   1.767   2.114   2.498
 9375TIP3   OH252319   0.359   1.935   2.539
 9375TIP3    H152320   0.264   1.921   2.541
 9375TIP3    H252321   0.395   1.847   2.536
 9376TIP3   OH252322   0.196   1.894   2.149
 9376TIP3    H152323   0.263   1.938   2.097
 9376TIP3    H252324   0.167   1.961   2.211
 9377TIP3   OH252325   0.788   1.855   2.624
 9377TIP3    H152326   0.832   1.913   2.562
 9377TIP3    H252327   0.775   1.910   2.702
 9378TIP3   OH252328   1.457   1.988   2.275
 9378TIP3    H152329   1.384   2.049   2.265
 9378TIP3    H252330   1.447   1.952   2.363
 9379TIP3   OH252331   0.140   3.561   2.239
 9379TIP3    H152332   0.052   3.562   2.201
 9379TIP3    H252333   0.181   3.641   2.206
 9380TIP3   OH252334   0.395   2.028   2.010
 9380TIP3    H152335   0.441   1.967   1.953
 9380TIP3    H252336   0.462   2.061   2.069
 9381TIP3   OH252337   0.869   2.123   2.229
 9381TIP3    H152338   0.895   2.068   2.303
 9381TIP3    H252339   0.824   2.197   2.269
 9382TIP3   OH252340   1.082   3.633   2.113
 9382TIP3    H152341   1.175   3.651   2.105
 9382TIP3    H252342   1.058   3.592   2.030
 9383TIP3   OH252343   1.709   3.615   2.399
 9383TIP3    H152344   1.692   3.528   2.362
 9383TIP3    H252345   1.693   3.675   2.326
 9384TIP3   OH252346   0.249   3.607   1.908
 9384TIP3    H152347   0.236   3.665   1.983
 9384TIP3    H252348   0.336   3.570   1.921
 9385TIP3   OH252349   3.151   2.974   2.563
 9385TIP3    H152350   3.127   3.054   2.517
 9385TIP3    H252351   3.123   2.988   2.653
 9386TIP3   OH252352   1.923   2.572   2.539
 9386TIP3    H152353   1.953   2.607   2.623
 9386TIP3    H252354   1.830   2.554   2.553
 9387TIP3   OH252355   2.975   3.678   2.806
 9387TIP3    H152356   3.050   3.650   2.755
 9387TIP3    H252357   2.928   3.598   2.828
 9388TIP3   OH252358   3.316   2.316   2.561
 9388TIP3    H152359   3.308   2.390   2.621
 9388TIP3    H252360   3.392   2.337   2.507
 9389TIP3   OH252361   2.124   2.618   2.744
 9389TIP3    H152362   2.151   2.573   2.824
 9389TIP3    H252363   2.152   2.561   2.673
 9390TIP3   OH252364   2.472   2.692   2.754
 9390TIP3    H152365   2.507   2.639   2.825
 9390TIP3    H252366   2.454   2.629   2.684
 9391TIP3   OH252367   3.122   3.201   2.405
 9391TIP3    H152368   3.074   3.183   2.324
 9391TIP3    H252369   3.109   3.294   2.421
 9392TIP3   OH252370   2.022   3.131   2.315
 9392TIP3    H152371   2.020   3.174   2.229
 9392TIP3    H252372   2.050   3.200   2.375
 9393TIP3   OH252373   3.199   3.607   2.662
 9393TIP3    H152374   3.263   3.666   2.621
 9393TIP3    H252375   3.244   3.573   2.739
 9394TIP3   OH252376   3.370   3.262   2.521
 9394TIP3    H152377   3.285   3.245   2.481
 9394TIP3    H252378   3.433   3.244   2.452
 9395TIP3   OH252379   2.950   2.809   2.218
 9395TIP3    H152380   2.900   2.885   2.248
 9395TIP3    H252381   3.041   2.840   2.215
 9396TIP3   OH252382   2.940   2.752   1.947
 9396TIP3    H152383   2.950   2.768   2.041
 9396TIP3    H252384   2.988   2.670   1.932
 9397TIP3   OH252385   3.358   2.904   2.389
 9397TIP3    H152386   3.287   2.926   2.449
 9397TIP3    H252387   3.398   2.826   2.427
 9398TIP3   OH252388   2.518   2.911   2.590
 9398TIP3    H152389   2.489   2.872   2.507
 9398TIP3    H252390   2.513   2.839   2.653
 9399TIP3   OH252391   2.844   3.441   2.871
 9399TIP3    H152392   2.789   3.364   2.854
 9399TIP3    H252393   2.933   3.405   2.876
 9400TIP3   OH252394   2.609   3.083   2.835
 9400TIP3    H152395   2.609   3.034   2.753
 9400TIP3    H252396   2.702   3.100   2.853
 9401TIP3   OH252397   3.226   2.814   2.158
 9401TIP3    H152398   3.282   2.854   2.225
 9401TIP3    H252399   3.273   2.829   2.076
 9402TIP3   OH252400   3.115   3.468   2.442
 9402TIP3    H152401   3.144   3.506   2.525
 9402TIP3    H252402   3.052   3.531   2.408
 9403TIP3   OH252403   2.408   2.791   2.360
 9403TIP3    H152404   2.324   2.822   2.326
 9403TIP3    H252405   2.388   2.709   2.405
 9404TIP3   OH252406   3.758   3.399   2.012
 9404TIP3    H152407   3.778   3.491   2.026
 9404TIP3    H252408   3.841   3.359   1.987
 9405TIP3   OH252409   2.954   3.657   2.330
 9405TIP3    H152410   2.984   3.696   2.249
 9405TIP3    H252411   2.932   3.731   2.387
 9406TIP3   OH252412   2.240   3.608   2.620
 9406TIP3    H152413   2.293   3.564   2.687
 9406TIP3    H252414   2.156   3.562   2.623
 9407TIP3   OH252415   3.349   2.833   1.901
 9407TIP3    H152416   3.309   2.863   1.819
 9407TIP3    H252417   3.439   2.867   1.897
 9408TIP3   OH252418   2.884   2.198   1.922
 9408TIP3    H152419   2.867   2.218   2.014
 9408TIP3    H252420   2.825   2.126   1.901
 9409TIP3   OH252421   2.413   2.550   2.511
 9409TIP3    H152422   2.327   2.509   2.523
 9409TIP3    H252423   2.452   2.504   2.437
 9410TIP3   OH252424   2.990   2.582   2.372
 9410TIP3    H152425   2.962   2.665   2.332
 9410TIP3    H252426   3.074   2.563   2.330
 9411TIP3   OH252427   3.049   2.503   2.634
 9411TIP3    H152428   3.024   2.550   2.554
 9411TIP3    H252429   3.041   2.411   2.610
 9412TIP3   OH252430   2.508   2.272   1.931
 9412TIP3    H152431   2.487   2.225   2.011
 9412TIP3    H252432   2.493   2.364   1.952
 9413TIP3   OH252433   1.793   2.262   2.609
 9413TIP3    H152434   1.756   2.348   2.586
 9413TIP3    H252435   1.774   2.252   2.702
 9414TIP3   OH252436   2.825   2.250   2.588
 9414TIP3    H152437   2.743   2.229   2.633
 9414TIP3    H252438   2.893   2.212   2.644
 9415TIP3   OH252439   2.166   2.440   2.525
 9415TIP3    H152440   2.075   2.470   2.514
 9415TIP3    H252441   2.169   2.356   2.479
 9416TIP3   OH252442   2.509   2.437   2.271
 9416TIP3    H152443   2.602   2.446   2.293
 9416TIP3    H252444   2.500   2.482   2.187
 9417TIP3   OH252445   2.477   2.535   2.005
 9417TIP3    H152446   2.409   2.552   1.939
 9417TIP3    H252447   2.545   2.600   1.986
 9418TIP3   OH252448   2.197   2.208   2.373
 9418TIP3    H152449   2.173   2.118   2.398
 9418TIP3    H252450   2.271   2.197   2.313
 9419TIP3   OH252451   2.762   3.014   2.272
 9419TIP3    H152452   2.691   2.977   2.220
 9419TIP3    H252453   2.718   3.059   2.344
 9420TIP3   OH252454   3.178   2.316   2.022
 9420TIP3    H152455   3.146   2.284   2.106
 9420TIP3    H252456   3.267   2.347   2.040
 9421TIP3   OH252457   3.227   2.545   2.231
 9421TIP3    H152458   3.307   2.512   2.191
 9421TIP3    H252459   3.224   2.637   2.208
 9422TIP3   OH252460   2.961   3.174   2.175
 9422TIP3    H152461   2.926   3.263   2.184
 9422TIP3    H252462   2.890   3.118   2.206
 9423TIP3   OH252463   3.763   2.308   2.145
 9423TIP3    H152464   3.677   2.334   2.114
 9423TIP3    H252465   3.751   2.291   2.239
 9424TIP3   OH252466   3.566   3.410   2.214
 9424TIP3    H152467   3.543   3.321   2.240
 9424TIP3    H252468   3.631   3.399   2.145
 9425TIP3   OH252469   3.440   2.679   3.063
 9425TIP3    H152470   3.381   2.706   3.133
 9425TIP3    H252471   3.400   2.601   3.026
 9426TIP3   OH252472   2.387   3.330   2.517
 9426TIP3    H152473   2.417   3.416   2.488
 9426TIP3    H252474   2.293   3.329   2.497
 9427TIP3   OH252475   2.106   2.733   2.048
 9427TIP3    H152476   2.150   2.795   2.106
 9427TIP3    H252477   2.012   2.747   2.064
 9428TIP3   OH252478   2.570   3.136   2.438
 9428TIP3    H152479   2.512   3.204   2.473
 9428TIP3    H252480   2.558   3.062   2.497
 9429TIP3   OH252481   2.454   3.594   2.449
 9429TIP3    H152482   2.373   3.618   2.496
 9429TIP3    H252483   2.516   3.663   2.472
 9430TIP3   OH252484   3.376   3.227   2.036
 9430TIP3    H152485   3.401   3.192   2.122
 9430TIP3    H252486   3.293   3.184   2.016
 9431TIP3   OH252487   3.802   3.665   2.074
 9431TIP3    H152488   3.869   3.707   2.127
 9431TIP3    H252489   3.784   3.728   2.004
 9432TIP3   OH252490   3.489   3.130   2.279
 9432TIP3    H152491   3.440   3.058   2.318
 9432TIP3    H252492   3.579   3.097   2.271
 9433TIP3   OH252493   2.686   3.323   1.952
 9433TIP3    H152494   2.700   3.242   1.902
 9433TIP3    H252495   2.651   3.294   2.036
 9434TIP3   OH252496   2.548   3.248   2.184
 9434TIP3    H152497   2.563   3.203   2.267
 9434TIP3    H252498   2.555   3.341   2.205
 9435TIP3   OH252499   2.200   2.932   2.226
 9435TIP3    H152500   2.132   2.982   2.272
 9435TIP3    H252501   2.251   2.997   2.179
 9436TIP3   OH252502   3.171   2.288   2.328
 9436TIP3    H152503   3.186   2.375   2.292
 9436TIP3    H252504   3.216   2.289   2.413
 9437TIP3   OH252505   2.851   3.420   2.221
 9437TIP3    H152506   2.758   3.441   2.225
 9437TIP3    H252507   2.894   3.493   2.266
 9438TIP3   OH252508   2.769   2.419   2.367
 9438TIP3    H152509   2.841   2.482   2.366
 9438TIP3    H252510   2.780   2.371   2.449
 9439TIP3   OH252511   2.950   2.126   2.368
 9439TIP3    H152512   2.909   2.167   2.444
 9439TIP3    H252513   3.028   2.179   2.351
 9440TIP3   OH252514   2.588   3.511   2.228
 9440TIP3    H152515   2.615   3.590   2.181
 9440TIP3    H252516   2.538   3.542   2.303
 9441TIP3   OH252517   2.442   2.181   2.191
 9441TIP3    H152518   2.460   2.268   2.227
 9441TIP3    H252519   2.518   2.129   2.215
 9442TIP3   OH252520   3.307   2.535   2.727
 9442TIP3    H152521   3.214   2.549   2.708
 9442TIP3    H252522   3.310   2.523   2.822
 9443TIP3   OH252523   2.311   3.151   2.088
 9443TIP3    H152524   2.386   3.193   2.129
 9443TIP3    H252525   2.347   3.105   2.013
 9444TIP3   OH252526   2.069   2.455   2.001
 9444TIP3    H152527   2.096   2.532   2.050
 9444TIP3    H252528   2.065   2.484   1.910
 9445TIP3   OH252529   2.106   3.354   2.466
 9445TIP3    H152530   2.056   3.387   2.540
 9445TIP3    H252531   2.099   3.422   2.400
 9446TIP3   OH252532   2.897   3.528   1.923
 9446TIP3    H152533   2.830   3.472   1.962
 9446TIP3    H252534   2.969   3.469   1.901
 9447TIP3   OH252535   3.355   3.474   1.910
 9447TIP3    H152536   3.374   3.400   1.968
 9447TIP3    H252537   3.418   3.464   1.838
 9448TIP3   OH252538   2.452   2.997   1.912
 9448TIP3    H152539   2.484   2.957   1.993
 9448TIP3    H252540   2.530   3.037   1.874
 9449TIP3   OH252541   3.125   3.131   1.960
 9449TIP3    H152542   3.067   3.137   2.036
 9449TIP3    H252543   3.085   3.066   1.903
 9450TIP3   OH252544   2.553   2.886   2.143
 9450TIP3    H152545   2.507   2.848   2.219
 9450TIP3    H252546   2.588   2.811   2.096
 9451TIP3   OH252547   2.664   2.726   1.946
 9451TIP3    H152548   2.647   2.770   1.863
 9451TIP3    H252549   2.759   2.729   1.956
 9452TIP3   OH252550   3.589   2.953   1.826
 9452TIP3    H152551   3.591   2.930   1.733
 9452TIP3    H252552   3.598   3.049   1.827
 9453TIP3   OH252553   2.706   3.723   2.105
 9453TIP3    H152554   2.798   3.713   2.129
 9453TIP3    H252555   2.706   3.782   2.030
 9454TIP3   OH252556   2.051   3.222   2.049
 9454TIP3    H152557   2.145   3.213   2.067
 9454TIP3    H252558   2.035   3.163   1.975
 9455TIP3   OH252559   1.891   3.719   2.572
 9455TIP3    H152560   1.830   3.687   2.505
 9455TIP3    H252561   1.914   3.641   2.623
 9456TIP3   OH252562   1.999   3.479   2.697
 9456TIP3    H152563   1.911   3.460   2.729
 9456TIP3    H252564   2.050   3.497   2.776
 9457TIP3   OH252565   3.747   3.023   2.261
 9457TIP3    H152566   3.820   3.083   2.270
 9457TIP3    H252567   3.763   2.956   2.327
 9458TIP3   OH252568   3.814   2.830   2.444
 9458TIP3    H152569   3.756   2.760   2.474
 9458TIP3    H252570   3.899   2.809   2.482
 9459TIP3   OH252571   3.720   2.844   2.042
 9459TIP3    H152572   3.676   2.892   1.972
 9459TIP3    H252573   3.722   2.906   2.115
 9460TIP3   OH252574   3.630   2.613   1.909
 9460TIP3    H152575   3.659   2.686   1.962
 9460TIP3    H252576   3.588   2.553   1.971
 9461TIP3   OH252577   3.444   2.664   2.509
 9461TIP3    H152578   3.473   2.583   2.466
 9461TIP3    H252579   3.403   2.635   2.590
 9462TIP3   OH252580   3.494   2.287   1.795
 9462TIP3    H152581   3.502   2.318   1.886
 9462TIP3    H252582   3.402   2.262   1.787
 9463TIP3   OH252583   3.519   2.410   2.401
 9463TIP3    H152584   3.601   2.361   2.412
 9463TIP3    H252585   3.505   2.412   2.306
 9464TIP3   OH252586   3.623   2.001   2.409
 9464TIP3    H152587   3.618   1.908   2.429
 9464TIP3    H252588   3.532   2.027   2.396
 9465TIP3   OH252589   3.934   2.109   2.043
 9465TIP3    H152590   3.872   2.053   1.996
 9465TIP3    H252591   3.881   2.181   2.077
 9466TIP3   OH252592   2.159   3.540   2.914
 9466TIP3    H152593   2.126   3.498   2.993
 9466TIP3    H252594   2.245   3.500   2.899
 9467TIP3   OH252595   2.396   3.457   2.794
 9467TIP3    H152596   2.436   3.395   2.733
 9467TIP3    H252597   2.471   3.500   2.836
 9468TIP3   OH252598   2.608   3.596   2.908
 9468TIP3    H152599   2.694   3.554   2.912
 9468TIP3    H252600   2.599   3.640   2.993
 9469TIP3   OH252601   3.021   2.128   2.735
 9469TIP3    H152602   3.001   2.075   2.812
 9469TIP3    H252603   3.108   2.099   2.708
 9470TIP3   OH252604   2.127   1.936   2.410
 9470TIP3    H152605   2.042   1.901   2.438
 9470TIP3    H252606   2.188   1.908   2.478
 9471TIP3   OH252607   2.022   2.010   2.150
 9471TIP3    H152608   2.094   2.042   2.096
 9471TIP3    H252609   2.058   2.005   2.239
 9472TIP3   OH252610   2.677   1.834   2.502
 9472TIP3    H152611   2.754   1.836   2.445
 9472TIP3    H252612   2.709   1.866   2.587
 9473TIP3   OH252613   3.272   2.023   2.672
 9473TIP3    H152614   3.301   2.084   2.604
 9473TIP3    H252615   3.300   1.937   2.641
 9474TIP3   OH252616   3.351   2.053   2.375
 9474TIP3    H152617   3.298   2.118   2.330
 9474TIP3    H252618   3.309   1.969   2.354
 9475TIP3   OH252619   2.074   3.552   2.277
 9475TIP3    H152620   1.989   3.558   2.233
 9475TIP3    H252621   2.114   3.638   2.266
 9476TIP3   OH252622   2.247   2.093   2.011
 9476TIP3    H152623   2.298   2.036   1.953
 9476TIP3    H252624   2.310   2.124   2.076
 9477TIP3   OH252625   2.775   2.221   2.175
 9477TIP3    H152626   2.826   2.162   2.230
 9477TIP3    H252627   2.763   2.299   2.228
 9478TIP3   OH252628   3.007   3.739   2.076
 9478TIP3    H152629   2.989   3.826   2.041
 9478TIP3    H252630   2.974   3.679   2.009
 9479TIP3   OH252631   2.198   3.497   1.923
 9479TIP3    H152632   2.174   3.479   2.014
 9479TIP3    H252633   2.294   3.498   1.924
 9480TIP3   OH252634   5.004   2.905   2.551
 9480TIP3    H152635   5.013   2.999   2.531
 9480TIP3    H252636   4.925   2.878   2.504
 9481TIP3   OH252637   5.308   3.270   2.726
 9481TIP3    H152638   5.234   3.273   2.787
 9481TIP3    H252639   5.385   3.277   2.782
 9482TIP3   OH252640   4.271   3.117   2.817
 9482TIP3    H152641   4.280   3.208   2.844
 9482TIP3    H252642   4.361   3.085   2.808
 9483TIP3   OH252643   4.055   2.760   2.561
 9483TIP3    H152644   4.086   2.670   2.567
 9483TIP3    H252645   4.134   2.813   2.548
 9484TIP3   OH252646   5.006   3.497   2.741
 9484TIP3    H152647   5.003   3.407   2.772
 9484TIP3    H252648   5.040   3.548   2.814
 9485TIP3   OH252649   5.194   2.240   2.500
 9485TIP3    H152650   5.215   2.213   2.590
 9485TIP3    H252651   5.279   2.263   2.462
 9486TIP3   OH252652   4.420   2.601   2.589
 9486TIP3    H152653   4.471   2.533   2.546
 9486TIP3    H252654   4.330   2.568   2.589
 9487TIP3   OH252655   5.017   3.153   2.419
 9487TIP3    H152656   4.962   3.137   2.342
 9487TIP3    H252657   4.991   3.241   2.449
 9488TIP3   OH252658   5.265   2.237   2.767
 9488TIP3    H152659   5.276   2.173   2.837
 9488TIP3    H252660   5.337   2.299   2.779
 9489TIP3   OH252661   3.987   3.163   2.306
 9489TIP3    H152662   4.050   3.195   2.242
 9489TIP3    H252663   4.006   3.213   2.385
 9490TIP3   OH252664   5.212   3.511   2.467
 9490TIP3    H152665   5.249   3.423   2.460
 9490TIP3    H252666   5.254   3.549   2.544
 9491TIP3   OH252667   5.302   3.253   2.452
 9491TIP3    H152668   5.226   3.197   2.433
 9491TIP3    H252669   5.313   3.246   2.547
 9492TIP3   OH252670   4.808   2.834   2.363
 9492TIP3    H152671   4.725   2.881   2.363
 9492TIP3    H252672   4.854   2.867   2.287
 9493TIP3   OH252673   4.878   2.725   1.943
 9493TIP3    H152674   4.936   2.745   2.017
 9493TIP3    H252675   4.918   2.648   1.902
 9494TIP3   OH252676   5.196   2.822   2.369
 9494TIP3    H152677   5.141   2.854   2.441
 9494TIP3    H252678   5.235   2.741   2.402
 9495TIP3   OH252679   4.314   2.849   2.517
 9495TIP3    H152680   4.358   2.931   2.537
 9495TIP3    H252681   4.368   2.782   2.559
 9496TIP3   OH252682   5.078   2.757   2.128
 9496TIP3    H152683   5.124   2.799   2.200
 9496TIP3    H252684   5.137   2.768   2.053
 9497TIP3   OH252685   4.950   3.418   2.479
 9497TIP3    H152686   5.032   3.458   2.451
 9497TIP3    H252687   4.939   3.445   2.570
 9498TIP3   OH252688   4.247   2.714   2.283
 9498TIP3    H152689   4.180   2.775   2.254
 9498TIP3    H252690   4.274   2.747   2.369
 9499TIP3   OH252691   5.571   3.363   2.047
 9499TIP3    H152692   5.580   3.456   2.027
 9499TIP3    H252693   5.659   3.327   2.036
 9500TIP3   OH252694   4.863   3.731   2.320
 9500TIP3    H152695   4.824   3.718   2.234
 9500TIP3    H252696   4.817   3.806   2.357
 9501TIP3   OH252697   4.113   3.668   2.634
 9501TIP3    H152698   4.146   3.668   2.724
 9501TIP3    H252699   4.045   3.600   2.634
 9502TIP3   OH252700   5.091   3.655   2.012
 9502TIP3    H152701   5.139   3.576   1.990
 9502TIP3    H252702   5.112   3.671   2.104
 9503TIP3   OH252703   5.129   3.693   2.282
 9503TIP3    H152704   5.037   3.703   2.306
 9503TIP3    H252705   5.164   3.630   2.345
 9504TIP3   OH252706   4.248   2.182   2.902
 9504TIP3    H152707   4.190   2.106   2.896
 9504TIP3    H252708   4.246   2.221   2.815
 9505TIP3   OH252709   5.204   2.755   1.877
 9505TIP3    H152710   5.181   2.795   1.794
 9505TIP3    H252711   5.293   2.785   1.895
 9506TIP3   OH252712   4.668   2.122   1.992
 9506TIP3    H152713   4.687   2.168   2.074
 9506TIP3    H252714   4.727   2.047   1.993
 9507TIP3   OH252715   4.838   2.559   2.412
 9507TIP3    H152716   4.819   2.653   2.408
 9507TIP3    H252717   4.915   2.548   2.356
 9508TIP3   OH252718   5.011   2.418   2.596
 9508TIP3    H152719   4.962   2.462   2.526
 9508TIP3    H252720   5.067   2.355   2.550
 9509TIP3   OH252721   3.701   2.231   2.717
 9509TIP3    H152722   3.792   2.216   2.741
 9509TIP3    H252723   3.704   2.249   2.623
 9510TIP3   OH252724   4.584   2.999   2.321
 9510TIP3    H152725   4.515   2.965   2.264
 9510TIP3    H252726   4.538   3.027   2.400
 9511TIP3   OH252727   4.979   2.293   2.153
 9511TIP3    H152728   4.886   2.292   2.177
 9511TIP3    H252729   5.014   2.371   2.196
 9512TIP3   OH252730   5.074   2.523   2.277
 9512TIP3    H152731   5.154   2.528   2.329
 9512TIP3    H252732   5.079   2.598   2.218
 9513TIP3   OH252733   4.811   3.118   2.216
 9513TIP3    H152734   4.794   3.211   2.230
 9513TIP3    H252735   4.732   3.073   2.249
 9514TIP3   OH252736   5.497   2.528   2.123
 9514TIP3    H152737   5.449   2.504   2.043
 9514TIP3    H252738   5.532   2.615   2.104
 9515TIP3   OH252739   5.515   3.387   2.321
 9515TIP3    H152740   5.444   3.336   2.361
 9515TIP3    H252741   5.504   3.375   2.227
 9516TIP3   OH252742   5.012   2.735   2.779
 9516TIP3    H152743   5.006   2.805   2.714
 9516TIP3    H252744   5.093   2.689   2.757
 9517TIP3   OH252745   4.336   3.348   2.572
 9517TIP3    H152746   4.357   3.435   2.539
 9517TIP3    H252747   4.243   3.336   2.553
 9518TIP3   OH252748   3.965   2.720   2.046
 9518TIP3    H152749   4.015   2.783   2.099
 9518TIP3    H252750   3.876   2.754   2.045
 9519TIP3   OH252751   4.458   3.089   2.552
 9519TIP3    H152752   4.415   3.175   2.555
 9519TIP3    H252753   4.498   3.078   2.638
 9520TIP3   OH252754   4.362   3.620   2.494
 9520TIP3    H152755   4.278   3.645   2.534
 9520TIP3    H252756   4.418   3.696   2.509
 9521TIP3   OH252757   5.217   3.173   2.028
 9521TIP3    H152758   5.253   3.113   2.093
 9521TIP3    H252759   5.126   3.145   2.016
 9522TIP3   OH252760   5.604   3.634   2.015
 9522TIP3    H152761   5.625   3.684   1.936
 9522TIP3    H252762   5.552   3.693   2.069
 9523TIP3   OH252763   5.326   2.985   2.190
 9523TIP3    H152764   5.285   2.936   2.261
 9523TIP3    H252765   5.420   2.979   2.208
 9524TIP3   OH252766   4.563   3.259   1.931
 9524TIP3    H152767   4.567   3.172   1.890
 9524TIP3    H252768   4.528   3.242   2.019
 9525TIP3   OH252769   4.446   3.267   2.188
 9525TIP3    H152770   4.496   3.222   2.256
 9525TIP3    H252771   4.459   3.360   2.206
 9526TIP3   OH252772   4.085   2.922   2.194
 9526TIP3    H152773   4.032   2.970   2.257
 9526TIP3    H252774   4.138   2.989   2.150
 9527TIP3   OH252775   5.009   2.100   2.357
 9527TIP3    H152776   5.014   2.150   2.275
 9527TIP3    H252777   5.077   2.138   2.413
 9528TIP3   OH252778   4.742   3.370   2.292
 9528TIP3    H152779   4.672   3.436   2.288
 9528TIP3    H252780   4.804   3.404   2.355
 9529TIP3   OH252781   4.613   2.408   2.461
 9529TIP3    H152782   4.684   2.471   2.447
 9529TIP3    H252783   4.652   2.339   2.516
 9530TIP3   OH252784   4.762   2.089   2.474
 9530TIP3    H152785   4.778   2.065   2.565
 9530TIP3    H252786   4.848   2.083   2.432
 9531TIP3   OH252787   4.503   3.529   2.267
 9531TIP3    H152788   4.516   3.608   2.214
 9531TIP3    H252789   4.455   3.560   2.344
 9532TIP3   OH252790   5.224   2.561   2.721
 9532TIP3    H152791   5.167   2.486   2.702
 9532TIP3    H252792   5.295   2.525   2.773
 9533TIP3   OH252793   4.197   3.172   2.091
 9533TIP3    H152794   4.271   3.216   2.133
 9533TIP3    H252795   4.236   3.127   2.016
 9534TIP3   OH252796   3.985   2.445   2.036
 9534TIP3    H152797   3.975   2.540   2.041
 9534TIP3    H252798   3.904   2.410   2.074
 9535TIP3   OH252799   5.372   3.534   2.913
 9535TIP3    H152800   5.376   3.561   2.821
 9535TIP3    H252801   5.424   3.453   2.916
 9536TIP3   OH252802   4.056   3.347   2.515
 9536TIP3    H152803   4.018   3.371   2.600
 9536TIP3    H252804   4.022   3.414   2.455
 9537TIP3   OH252805   4.748   3.460   1.897
 9537TIP3    H152806   4.684   3.391   1.917
 9537TIP3    H252807   4.829   3.413   1.879
 9538TIP3   OH252808   5.227   3.432   1.928
 9538TIP3    H152809   5.244   3.350   1.975
 9538TIP3    H252810   5.299   3.439   1.865
 9539TIP3   OH252811   4.323   3.012   1.905
 9539TIP3    H152812   4.346   2.958   1.981
 9539TIP3    H252813   4.404   3.017   1.854
 9540TIP3   OH252814   4.954   3.105   1.976
 9540TIP3    H152815   4.899   3.100   2.054
 9540TIP3    H252816   4.915   3.042   1.915
 9541TIP3   OH252817   4.418   2.872   2.128
 9541TIP3    H152818   4.367   2.806   2.175
 9541TIP3    H252819   4.485   2.822   2.082
 9542TIP3   OH252820   4.603   2.740   1.979
 9542TIP3    H152821   4.588   2.745   1.885
 9542TIP3    H252822   4.698   2.732   1.987
 9543TIP3   OH252823   5.446   2.888   1.863
 9543TIP3    H152824   5.457   2.881   1.768
 9543TIP3    H252825   5.453   2.982   1.881
 9544TIP3   OH252826   4.557   3.759   2.116
 9544TIP3    H152827   4.647   3.736   2.090
 9544TIP3    H252828   4.536   3.836   2.064
 9545TIP3   OH252829   3.986   3.263   1.924
 9545TIP3    H152830   4.057   3.242   1.984
 9545TIP3    H252831   3.961   3.179   1.886
 9546TIP3   OH252832   3.965   3.448   2.763
 9546TIP3    H152833   3.891   3.423   2.819
 9546TIP3    H252834   4.026   3.492   2.823
 9547TIP3   OH252835   5.593   2.945   2.261
 9547TIP3    H152836   5.641   3.020   2.295
 9547TIP3    H252837   5.581   2.888   2.336
 9548TIP3   OH252838   5.535   2.747   2.440
 9548TIP3    H152839   5.450   2.705   2.426
 9548TIP3    H252840   5.585   2.685   2.494
 9549TIP3   OH252841   5.607   2.772   2.049
 9549TIP3    H152842   5.542   2.812   1.991
 9549TIP3    H252843   5.609   2.830   2.125
 9550TIP3   OH252844   5.386   2.459   1.879
 9550TIP3    H152845   5.393   2.494   1.791
 9550TIP3    H252846   5.384   2.364   1.867
 9551TIP3   OH252847   5.295   2.578   2.453
 9551TIP3    H152848   5.350   2.501   2.441
 9551TIP3    H252849   5.276   2.580   2.547
 9552TIP3   OH252850   5.342   2.193   1.806
 9552TIP3    H152851   5.355   2.104   1.838
 9552TIP3    H252852   5.251   2.213   1.828
 9553TIP3   OH252853   5.451   2.349   2.457
 9553TIP3    H152854   5.463   2.260   2.491
 9553TIP3    H252855   5.531   2.395   2.481
 9554TIP3   OH252856   5.424   2.444   2.874
 9554TIP3    H152857   5.516   2.423   2.892
 9554TIP3    H252858   5.378   2.424   2.955
 9555TIP3   OH252859   3.748   2.248   2.431
 9555TIP3    H152860   3.724   2.156   2.424
 9555TIP3    H252861   3.842   2.247   2.451
 9556TIP3   OH252862   5.363   3.666   2.651
 9556TIP3    H152863   5.421   3.663   2.574
 9556TIP3    H252864   5.387   3.748   2.695
 9557TIP3   OH252865   4.359   3.387   2.855
 9557TIP3    H152866   4.370   3.376   2.760
 9557TIP3    H252867   4.444   3.363   2.891
 9558TIP3   OH252868   4.852   2.008   2.723
 9558TIP3    H152869   4.806   1.933   2.761
 9558TIP3    H252870   4.944   1.982   2.722
 9559TIP3   OH252871   4.512   1.992   2.391
 9559TIP3    H152872   4.598   2.021   2.422
 9559TIP3    H252873   4.490   1.918   2.447
 9560TIP3   OH252874   5.117   1.923   2.728
 9560TIP3    H152875   5.178   1.916   2.655
 9560TIP3    H252876   5.167   1.895   2.804
 9561TIP3   OH252877   5.090   1.835   2.385
 9561TIP3    H152878   5.054   1.924   2.388
 9561TIP3    H252879   5.170   1.840   2.438
 9562TIP3   OH252880   3.954   3.525   2.328
 9562TIP3    H152881   3.871   3.510   2.283
 9562TIP3    H252882   3.983   3.611   2.298
 9563TIP3   OH252883   4.713   2.248   2.242
 9563TIP3    H152884   4.726   2.181   2.309
 9563TIP3    H252885   4.668   2.319   2.287
 9564TIP3   OH252886   4.812   3.680   2.047
 9564TIP3    H152887   4.907   3.683   2.032
 9564TIP3    H252888   4.783   3.602   2.001
 9565TIP3   OH252889   5.508   3.658   2.406
 9565TIP3    H152890   5.511   3.564   2.387
 9565TIP3    H252891   5.487   3.699   2.322
 9566TIP3   OH252892   4.170   3.613   1.975
 9566TIP3    H152893   4.169   3.606   2.070
 9566TIP3    H252894   4.229   3.543   1.947
 9567TIP3   OH252895   6.864   2.893   2.547
 9567TIP3    H152896   6.822   2.979   2.554
 9567TIP3    H252897   6.805   2.843   2.492
 9568TIP3   OH252898   7.325   3.243   2.724
 9568TIP3    H152899   7.382   3.177   2.762
 9568TIP3    H252900   7.326   3.315   2.787
 9569TIP3   OH252901   6.007   3.227   2.899
 9569TIP3    H152902   5.912   3.234   2.912
 9569TIP3    H252903   6.042   3.214   2.987
 9570TIP3   OH252904   5.647   2.534   2.573
 9570TIP3    H152905   5.715   2.488   2.523
 9570TIP3    H252906   5.662   2.507   2.663
 9571TIP3   OH252907   6.980   2.278   2.585
 9571TIP3    H152908   7.001   2.241   2.671
 9571TIP3    H252909   7.009   2.369   2.590
 9572TIP3   OH252910   6.720   3.126   2.502
 9572TIP3    H152911   6.732   3.130   2.407
 9572TIP3    H252912   6.771   3.200   2.536
 9573TIP3   OH252913   7.053   2.229   2.855
 9573TIP3    H152914   7.011   2.143   2.862
 9573TIP3    H252915   7.128   2.224   2.914
 9574TIP3   OH252916   5.722   3.191   2.299
 9574TIP3    H152917   5.742   3.200   2.206
 9574TIP3    H252918   5.655   3.258   2.316
 9575TIP3   OH252919   7.157   3.280   2.502
 9575TIP3    H152920   7.181   3.207   2.445
 9575TIP3    H252921   7.214   3.270   2.578
 9576TIP3   OH252922   6.720   2.789   2.334
 9576TIP3    H152923   6.660   2.854   2.297
 9576TIP3    H252924   6.795   2.788   2.275
 9577TIP3   OH252925   6.732   2.797   1.991
 9577TIP3    H152926   6.796   2.801   2.062
 9577TIP3    H252927   6.762   2.725   1.935
 9578TIP3   OH252928   7.088   2.846   2.399
 9578TIP3    H152929   7.019   2.868   2.462
 9578TIP3    H252930   7.140   2.778   2.442
 9579TIP3   OH252931   6.458   2.740   2.680
 9579TIP3    H152932   6.527   2.674   2.692
 9579TIP3    H252933   6.383   2.704   2.727
 9580TIP3   OH252934   6.947   2.773   2.174
 9580TIP3    H152935   7.003   2.806   2.243
 9580TIP3    H252936   7.003   2.767   2.097
 9581TIP3   OH252937   6.893   3.334   2.576
 9581TIP3    H152938   6.980   3.306   2.548
 9581TIP3    H252939   6.909   3.411   2.631
 9582TIP3   OH252940   7.339   1.908   2.155
 9582TIP3    H152941   7.252   1.933   2.188
 9582TIP3    H252942   7.379   1.991   2.130
 9583TIP3   OH252943   7.579   3.361   1.967
 9583TIP3    H152944   7.578   3.441   2.019
 9583TIP3    H252945   7.672   3.335   1.963
 9584TIP3   OH252946   6.306   2.105   2.755
 9584TIP3    H152947   6.213   2.087   2.746
 9584TIP3    H252948   6.329   2.071   2.842
 9585TIP3   OH252949   7.100   2.747   1.944
 9585TIP3    H152950   7.122   2.801   1.868
 9585TIP3    H252951   7.181   2.744   1.995
 9586TIP3   OH252952   6.631   2.194   2.107
 9586TIP3    H152953   6.573   2.189   2.183
 9586TIP3    H252954   6.588   2.141   2.040
 9587TIP3   OH252955   6.713   2.533   2.439
 9587TIP3    H152956   6.703   2.624   2.410
 9587TIP3    H252957   6.789   2.501   2.390
 9588TIP3   OH252958   6.336   2.295   1.977
 9588TIP3    H152959   6.302   2.280   2.065
 9588TIP3    H252960   6.262   2.333   1.929
 9589TIP3   OH252961   5.714   2.372   2.179
 9589TIP3    H152962   5.631   2.420   2.170
 9589TIP3    H252963   5.738   2.383   2.271
 9590TIP3   OH252964   6.528   2.264   2.708
 9590TIP3    H152965   6.444   2.222   2.726
 9590TIP3    H252966   6.594   2.199   2.734
 9591TIP3   OH252967   6.663   2.506   2.708
 9591TIP3    H152968   6.616   2.423   2.712
 9591TIP3    H252969   6.692   2.513   2.617
 9592TIP3   OH252970   6.487   3.019   2.219
 9592TIP3    H152971   6.459   2.951   2.157
 9592TIP3    H252972   6.467   2.983   2.305
 9593TIP3   OH252973   6.890   2.256   2.148
 9593TIP3    H152974   6.796   2.243   2.133
 9593TIP3    H252975   6.897   2.345   2.181
 9594TIP3   OH252976   6.935   2.500   2.272
 9594TIP3    H152977   7.023   2.474   2.301
 9594TIP3    H252978   6.946   2.588   2.237
 9595TIP3   OH252979   6.065   2.842   2.931
 9595TIP3    H152980   6.130   2.904   2.961
 9595TIP3    H252981   6.116   2.769   2.896
 9596TIP3   OH252982   6.737   3.131   2.215
 9596TIP3    H152983   6.723   3.225   2.212
 9596TIP3    H252984   6.650   3.093   2.206
 9597TIP3   OH252985   7.367   2.533   2.156
 9597TIP3    H152986   7.356   2.503   2.066
 9597TIP3    H252987   7.354   2.628   2.152
 9598TIP3   OH252988   7.141   3.471   2.295
 9598TIP3    H152989   7.144   3.423   2.377
 9598TIP3    H252990   7.142   3.403   2.227
 9599TIP3   OH252991   6.488   2.940   2.481
 9599TIP3    H152992   6.567   2.987   2.510
 9599TIP3    H252993   6.480   2.868   2.543
 9600TIP3   OH252994   6.337   3.623   2.490
 9600TIP3    H152995   6.324   3.625   2.584
 9600TIP3    H252996   6.399   3.694   2.472
 9601TIP3   OH252997   7.149   3.256   2.106
 9601TIP3    H152998   7.175   3.197   2.176
 9601TIP3    H252999   7.071   3.215   2.068
 9602TIP3   OH253000   7.567   3.588   2.127
 9602TIP3    H153001   7.567   3.678   2.094
 9602TIP3    H253002   7.497   3.587   2.193
 9603TIP3   OH253003   7.213   3.078   2.310
 9603TIP3    H153004   7.159   3.004   2.339
 9603TIP3    H253005   7.302   3.044   2.309
 9604TIP3   OH253006   6.491   3.290   1.904
 9604TIP3    H153007   6.477   3.216   1.845
 9604TIP3    H253008   6.441   3.267   1.983
 9605TIP3   OH253009   6.349   3.245   2.135
 9605TIP3    H153010   6.397   3.175   2.179
 9605TIP3    H253011   6.367   3.323   2.188
 9606TIP3   OH253012   6.892   2.115   2.384
 9606TIP3    H153013   6.893   2.168   2.305
 9606TIP3    H253014   6.924   2.174   2.453
 9607TIP3   OH253015   6.665   3.391   2.199
 9607TIP3    H153016   6.580   3.418   2.232
 9607TIP3    H253017   6.672   3.435   2.114
 9608TIP3   OH253018   6.478   2.390   2.465
 9608TIP3    H153019   6.555   2.445   2.452
 9608TIP3    H253020   6.487   2.355   2.554
 9609TIP3   OH253021   6.656   2.024   2.494
 9609TIP3    H153022   6.673   2.036   2.588
 9609TIP3    H253023   6.734   2.057   2.451
 9610TIP3   OH253024   6.412   3.475   2.272
 9610TIP3    H153025   6.433   3.556   2.225
 9610TIP3    H253026   6.381   3.504   2.357
 9611TIP3   OH253027   6.216   2.229   2.224
 9611TIP3    H153028   6.172   2.272   2.297
 9611TIP3    H253029   6.295   2.192   2.262
 9612TIP3   OH253030   6.086   3.215   2.051
 9612TIP3    H153031   6.173   3.240   2.082
 9612TIP3    H253032   6.103   3.152   1.980
 9613TIP3   OH253033   7.237   3.681   2.915
 9613TIP3    H153034   7.170   3.713   2.855
 9613TIP3    H253035   7.309   3.743   2.904
 9614TIP3   OH253036   6.034   2.047   2.714
 9614TIP3    H153037   5.996   2.102   2.646
 9614TIP3    H253038   5.959   2.008   2.758
 9615TIP3   OH253039   6.689   3.474   1.934
 9615TIP3    H153040   6.620   3.410   1.921
 9615TIP3    H253041   6.766   3.435   1.893
 9616TIP3   OH253042   7.143   3.481   1.918
 9616TIP3    H153043   7.169   3.420   1.987
 9616TIP3    H253044   7.213   3.474   1.853
 9617TIP3   OH253045   6.201   3.022   1.881
 9617TIP3    H153046   6.238   2.958   1.941
 9617TIP3    H253047   6.276   3.056   1.832
 9618TIP3   OH253048   6.913   3.140   1.996
 9618TIP3    H153049   6.859   3.128   2.073
 9618TIP3    H253050   6.874   3.083   1.929
 9619TIP3   OH253051   6.453   2.838   2.008
 9619TIP3    H153052   6.433   2.826   1.915
 9619TIP3    H253053   6.547   2.821   2.016
 9620TIP3   OH253054   7.377   2.949   1.874
 9620TIP3    H153055   7.348   2.929   1.785
 9620TIP3    H253056   7.363   3.043   1.883
 9621TIP3   OH253057   6.503   3.721   2.197
 9621TIP3    H153058   6.504   3.776   2.275
 9621TIP3    H253059   6.480   3.780   2.125
 9622TIP3   OH253060   5.810   3.223   2.036
 9622TIP3    H153061   5.905   3.232   2.042
 9622TIP3    H253062   5.796   3.164   1.962
 9623TIP3   OH253063   7.450   2.935   2.311
 9623TIP3    H153064   7.536   2.977   2.316
 9623TIP3    H253065   7.454   2.864   2.374
 9624TIP3   OH253066   7.464   2.721   2.482
 9624TIP3    H153067   7.376   2.693   2.507
 9624TIP3    H253068   7.519   2.698   2.558
 9625TIP3   OH253069   7.502   3.099   2.896
 9625TIP3    H153070   7.537   3.010   2.888
 9625TIP3    H253071   7.556   3.139   2.964
 9626TIP3   OH253072   7.325   2.802   2.100
 9626TIP3    H153073   7.357   2.850   2.024
 9626TIP3    H253074   7.363   2.848   2.175
 9627TIP3   OH253075   7.308   2.474   1.896
 9627TIP3    H153076   7.268   2.510   1.817
 9627TIP3    H253077   7.281   2.382   1.897
 9628TIP3   OH253078   7.206   2.629   2.526
 9628TIP3    H153079   7.201   2.554   2.467
 9628TIP3    H253080   7.172   2.595   2.609
 9629TIP3   OH253081   7.229   2.213   1.898
 9629TIP3    H153082   7.249   2.171   1.982
 9629TIP3    H253083   7.134   2.203   1.888
 9630TIP3   OH253084   7.192   2.423   2.344
 9630TIP3    H153085   7.214   2.333   2.369
 9630TIP3    H253086   7.260   2.448   2.282
 9631TIP3   OH253087   7.254   2.155   2.413
 9631TIP3    H153088   7.270   2.120   2.501
 9631TIP3    H253089   7.197   2.090   2.372
 9632TIP3   OH253090   7.479   2.130   2.054
 9632TIP3    H153091   7.497   2.077   1.976
 9632TIP3    H253092   7.533   2.208   2.042
 9633TIP3   OH253093   6.067   3.454   2.753
 9633TIP3    H153094   6.046   3.373   2.798
 9633TIP3    H253095   6.013   3.520   2.796
 9634TIP3   OH253096   6.702   2.051   2.767
 9634TIP3    H153097   6.646   1.985   2.809
 9634TIP3    H253098   6.788   2.039   2.807
 9635TIP3   OH253099   7.363   2.001   2.629
 9635TIP3    H153100   7.414   1.921   2.620
 9635TIP3    H253101   7.428   2.071   2.635
 9636TIP3   OH253102   6.411   1.908   2.581
 9636TIP3    H153103   6.494   1.944   2.552
 9636TIP3    H253104   6.376   1.973   2.642
 9637TIP3   OH253105   6.950   1.965   2.882
 9637TIP3    H153106   6.941   1.875   2.849
 9637TIP3    H253107   7.017   1.959   2.950
 9638TIP3   OH253108   7.100   1.958   2.294
 9638TIP3    H153109   7.022   2.006   2.320
 9638TIP3    H253110   7.078   1.866   2.307
 9639TIP3   OH253111   6.074   2.084   2.018
 9639TIP3    H153112   6.117   2.004   1.987
 9639TIP3    H253113   6.129   2.113   2.091
 9640TIP3   OH253114   6.464   2.160   2.324
 9640TIP3    H153115   6.512   2.099   2.380
 9640TIP3    H253116   6.465   2.242   2.374
 9641TIP3   OH253117   7.349   3.654   2.284
 9641TIP3    H153118   7.278   3.591   2.291
 9641TIP3    H253119   7.311   3.728   2.236
 9642TIP3   OH253120   6.059   3.608   1.987
 9642TIP3    H153121   6.059   3.673   1.917
 9642TIP3    H253122   6.140   3.558   1.974
 9643TIP3   OH253123   7.610   2.572   2.297
 9643TIP3    H153124   7.569   2.625   2.366
 9643TIP3    H253125   7.536   2.543   2.243
 9644TIP3   OH253126   7.346   3.434   2.927
 9644TIP3    H153127   7.305   3.520   2.934
 9644TIP3    H253128   7.303   3.381   2.994
 9645TIP3   OH253129   7.572   2.174   2.599
 9645TIP3    H153130   7.667   2.181   2.607
 9645TIP3    H253131   7.555   2.182   2.505
 9646TIP3   OH253132   7.526   3.773   2.469
 9646TIP3    H153133   7.475   3.736   2.396
 9646TIP3    H253134   7.494   3.727   2.546
 9647TIP3   OH253135   7.444   3.631   2.688
 9647TIP3    H153136   7.380   3.569   2.722
 9647TIP3    H253137   7.455   3.695   2.758
 9648TIP3   OH253138   7.638   2.852   2.887
 9648TIP3    H153139   7.726   2.879   2.861
 9648TIP3    H253140   7.652   2.786   2.955
 9649TIP3   OH253141   7.617   2.652   2.697
 9649TIP3    H153142   7.671   2.586   2.740
 9649TIP3    H253143   7.607   2.721   2.762
 9650TIP3   OH253144   7.513   2.149   2.329
 9650TIP3    H153145   7.422   2.157   2.358
 9650TIP3    H253146   7.507   2.146   2.233
 9651TIP3   OH253147   1.240   4.737   2.501
 9651TIP3    H153148   1.230   4.829   2.523
 9651TIP3    H253149   1.165   4.717   2.445
 9652TIP3   OH253150   1.464   5.062   2.834
 9652TIP3    H153151   1.391   5.028   2.885
 9652TIP3    H253152   1.523   5.100   2.899
 9653TIP3   OH253153   0.212   4.439   2.441
 9653TIP3    H153154   0.253   4.511   2.392
 9653TIP3    H253155   0.119   4.446   2.421
 9654TIP3   OH253156   0.265   4.555   2.698
 9654TIP3    H153157   0.239   4.518   2.614
 9654TIP3    H253158   0.360   4.566   2.690
 9655TIP3   OH253159   1.090   5.411   2.708
 9655TIP3    H153160   1.172   5.421   2.660
 9655TIP3    H253161   1.103   5.460   2.789
 9656TIP3   OH253162   0.455   4.193   2.918
 9656TIP3    H153163   0.521   4.263   2.912
 9656TIP3    H253164   0.481   4.130   2.851
 9657TIP3   OH253165   1.334   4.217   2.533
 9657TIP3    H153166   1.350   4.161   2.608
 9657TIP3    H253167   1.332   4.305   2.568
 9658TIP3   OH253168   0.546   4.518   2.665
 9658TIP3    H153169   0.567   4.496   2.756
 9658TIP3    H253170   0.568   4.439   2.616
 9659TIP3   OH253171   1.189   5.013   2.488
 9659TIP3    H153172   1.161   5.020   2.396
 9659TIP3    H253173   1.124   5.064   2.537
 9660TIP3   OH253174   1.369   4.017   2.736
 9660TIP3    H153175   1.330   4.050   2.817
 9660TIP3    H253176   1.434   3.953   2.766
 9661TIP3   OH253177   0.021   5.043   2.284
 9661TIP3    H153178   0.030   5.058   2.190
 9661TIP3    H253179   0.050   5.125   2.324
 9662TIP3   OH253180   1.329   5.412   2.565
 9662TIP3    H153181   1.364   5.324   2.575
 9662TIP3    H253182   1.403   5.470   2.584
 9663TIP3   OH253183   1.421   5.152   2.578
 9663TIP3    H153184   1.349   5.096   2.551
 9663TIP3    H253185   1.444   5.122   2.665
 9664TIP3   OH253186   1.048   4.708   2.303
 9664TIP3    H153187   0.967   4.760   2.296
 9664TIP3    H253188   1.096   4.728   2.223
 9665TIP3   OH253189   1.096   4.644   1.950
 9665TIP3    H153190   1.160   4.654   2.021
 9665TIP3    H253191   1.135   4.577   1.893
 9666TIP3   OH253192   1.465   4.722   2.344
 9666TIP3    H153193   1.394   4.729   2.407
 9666TIP3    H253194   1.517   4.648   2.375
 9667TIP3   OH253195   0.497   4.754   2.520
 9667TIP3    H153196   0.447   4.720   2.446
 9667TIP3    H253197   0.527   4.676   2.567
 9668TIP3   OH253198   1.313   4.673   2.118
 9668TIP3    H153199   1.368   4.708   2.189
 9668TIP3    H253200   1.370   4.675   2.041
 9669TIP3   OH253201   0.991   5.193   2.572
 9669TIP3    H153202   1.021   5.265   2.627
 9669TIP3    H253203   0.977   5.233   2.486
 9670TIP3   OH253204   1.673   3.802   2.196
 9670TIP3    H153205   1.597   3.837   2.242
 9670TIP3    H253206   1.708   3.877   2.147
 9671TIP3   OH253207   0.332   4.650   2.311
 9671TIP3    H153208   0.303   4.741   2.310
 9671TIP3    H253209   0.351   4.630   2.220
 9672TIP3   OH253210   1.854   5.246   1.919
 9672TIP3    H153211   1.836   5.335   1.948
 9672TIP3    H253212   1.949   5.237   1.930
 9673TIP3   OH253213   1.037   5.566   2.313
 9673TIP3    H153214   1.013   5.592   2.225
 9673TIP3    H253215   0.997   5.632   2.370
 9674TIP3   OH253216   0.562   5.335   2.613
 9674TIP3    H153217   0.570   5.356   2.706
 9674TIP3    H253218   0.614   5.255   2.602
 9675TIP3   OH253219   1.330   5.533   2.026
 9675TIP3    H153220   1.385   5.462   1.995
 9675TIP3    H253221   1.331   5.525   2.122
 9676TIP3   OH253222   1.304   5.516   2.305
 9676TIP3    H153223   1.210   5.534   2.307
 9676TIP3    H253224   1.320   5.464   2.384
 9677TIP3   OH253225   1.458   4.665   1.883
 9677TIP3    H153226   1.433   4.705   1.799
 9677TIP3    H253227   1.553   4.678   1.887
 9678TIP3   OH253228   1.001   4.095   2.049
 9678TIP3    H153229   0.952   4.084   2.130
 9678TIP3    H253230   0.959   4.034   1.988
 9679TIP3   OH253231   0.579   4.244   2.587
 9679TIP3    H153232   0.484   4.247   2.598
 9679TIP3    H253233   0.592   4.253   2.493
 9680TIP3   OH253234   1.064   4.438   2.377
 9680TIP3    H153235   1.048   4.530   2.356
 9680TIP3    H253236   1.152   4.421   2.344
 9681TIP3   OH253237   1.343   4.495   2.606
 9681TIP3    H153238   1.290   4.566   2.569
 9681TIP3    H253239   1.340   4.509   2.701
 9682TIP3   OH253240   0.706   4.168   1.908
 9682TIP3    H153241   0.674   4.156   1.998
 9682TIP3    H253242   0.637   4.219   1.865
 9683TIP3   OH253243   0.120   4.047   2.600
 9683TIP3    H153244   0.069   4.024   2.676
 9683TIP3    H253245   0.130   3.966   2.551
 9684TIP3   OH253246   0.233   4.209   2.240
 9684TIP3    H153247   0.268   4.242   2.158
 9684TIP3    H253248   0.244   4.281   2.302
 9685TIP3   OH253249   0.836   4.163   2.711
 9685TIP3    H153250   0.757   4.216   2.700
 9685TIP3    H253251   0.891   4.215   2.770
 9686TIP3   OH253252   0.310   4.246   2.612
 9686TIP3    H153253   0.272   4.310   2.552
 9686TIP3    H253254   0.246   4.175   2.614
 9687TIP3   OH253255   0.628   4.290   2.319
 9687TIP3    H153256   0.720   4.292   2.345
 9687TIP3    H253257   0.623   4.350   2.244
 9688TIP3   OH253258   1.263   4.116   2.968
 9688TIP3    H153259   1.256   4.211   2.976
 9688TIP3    H253260   1.228   4.083   3.051
 9689TIP3   OH253261   0.625   4.442   2.089
 9689TIP3    H153262   0.546   4.488   2.060
 9689TIP3    H253263   0.696   4.483   2.039
 9690TIP3   OH253264   0.994   4.320   2.885
 9690TIP3    H153265   0.950   4.390   2.934
 9690TIP3    H253266   1.087   4.332   2.904
 9691TIP3   OH253267   0.532   4.006   2.725
 9691TIP3    H153268   0.489   3.944   2.666
 9691TIP3    H253269   0.564   4.076   2.669
 9692TIP3   OH253270   0.833   4.882   2.251
 9692TIP3    H153271   0.775   4.846   2.184
 9692TIP3    H253272   0.774   4.918   2.317
 9693TIP3   OH253273   1.250   4.193   2.097
 9693TIP3    H153274   1.157   4.180   2.083
 9693TIP3    H253275   1.256   4.278   2.141
 9694TIP3   OH253276   1.310   4.420   2.244
 9694TIP3    H153277   1.394   4.406   2.288
 9694TIP3    H253278   1.318   4.505   2.203
 9695TIP3   OH253279   0.367   4.877   2.741
 9695TIP3    H153280   0.396   4.846   2.655
 9695TIP3    H253281   0.445   4.867   2.796
 9696TIP3   OH253282   1.055   5.049   2.235
 9696TIP3    H153283   1.024   5.137   2.256
 9696TIP3    H253284   0.976   4.995   2.239
 9697TIP3   OH253285   1.769   4.439   2.126
 9697TIP3    H153286   1.729   4.413   2.042
 9697TIP3    H253287   1.798   4.529   2.112
 9698TIP3   OH253288   1.604   5.228   2.380
 9698TIP3    H153289   1.547   5.210   2.456
 9698TIP3    H253290   1.600   5.148   2.328
 9699TIP3   OH253291   0.731   5.119   2.631
 9699TIP3    H153292   0.825   5.136   2.621
 9699TIP3    H253293   0.717   5.113   2.725
 9700TIP3   OH253294   0.043   4.660   1.932
 9700TIP3    H153295   0.125   4.658   1.981
 9700TIP3    H253296  -0.025   4.652   1.999
 9701TIP3   OH253297   0.635   4.984   2.414
 9701TIP3    H153298   0.662   5.029   2.494
 9701TIP3    H253299   0.579   4.912   2.444
 9702TIP3   OH253300   0.639   5.568   2.498
 9702TIP3    H153301   0.614   5.485   2.538
 9702TIP3    H253302   0.694   5.611   2.563
 9703TIP3   OH253303   1.486   5.074   2.023
 9703TIP3    H153304   1.520   5.043   2.108
 9703TIP3    H253305   1.395   5.044   2.022
 9704TIP3   OH253306   1.831   5.506   2.006
 9704TIP3    H153307   1.846   5.573   1.940
 9704TIP3    H253308   1.779   5.549   2.073
 9705TIP3   OH253309   1.579   4.967   2.259
 9705TIP3    H153310   1.527   4.895   2.295
 9705TIP3    H253311   1.670   4.939   2.268
 9706TIP3   OH253312   0.765   5.164   1.954
 9706TIP3    H153313   0.758   5.077   1.914
 9706TIP3    H253314   0.725   5.154   2.040
 9707TIP3   OH253315   0.624   5.161   2.194
 9707TIP3    H153316   0.627   5.104   2.271
 9707TIP3    H253317   0.644   5.248   2.228
 9708TIP3   OH253318   0.266   4.911   2.293
 9708TIP3    H153319   0.179   4.951   2.304
 9708TIP3    H253320   0.311   4.969   2.232
 9709TIP3   OH253321   1.235   4.059   2.337
 9709TIP3    H153322   1.245   4.105   2.254
 9709TIP3    H253323   1.264   4.121   2.404
 9710TIP3   OH253324   0.955   5.299   2.316
 9710TIP3    H153325   0.864   5.322   2.297
 9710TIP3    H253326   1.001   5.383   2.319
 9711TIP3   OH253327   0.878   4.250   2.436
 9711TIP3    H153328   0.945   4.316   2.420
 9711TIP3    H253329   0.888   4.228   2.529
 9712TIP3   OH253330   1.042   3.905   2.453
 9712TIP3    H153331   1.096   3.875   2.526
 9712TIP3    H253332   1.099   3.964   2.403
 9713TIP3   OH253333   0.708   5.419   2.269
 9713TIP3    H153334   0.727   5.483   2.200
 9713TIP3    H253335   0.680   5.472   2.344
 9714TIP3   OH253336   0.608   4.068   2.149
 9714TIP3    H153337   0.584   4.141   2.206
 9714TIP3    H253338   0.688   4.033   2.187
 9715TIP3   OH253339   0.376   5.078   2.095
 9715TIP3    H153340   0.456   5.119   2.129
 9715TIP3    H253341   0.406   5.021   2.024
 9716TIP3   OH253342   0.331   4.319   2.004
 9716TIP3    H153343   0.330   4.415   2.011
 9716TIP3    H253344   0.392   4.301   1.933
 9717TIP3   OH253345   0.266   3.720   2.797
 9717TIP3    H153346   0.306   3.793   2.750
 9717TIP3    H253347   0.183   3.756   2.831
 9718TIP3   OH253348   0.119   5.290   2.371
 9718TIP3    H153349   0.184   5.320   2.434
 9718TIP3    H253350   0.122   5.355   2.301
 9719TIP3   OH253351   0.973   5.343   1.892
 9719TIP3    H153352   0.904   5.281   1.919
 9719TIP3    H253353   1.051   5.289   1.882
 9720TIP3   OH253354   1.476   5.328   1.916
 9720TIP3    H153355   1.497   5.246   1.961
 9720TIP3    H253356   1.545   5.337   1.850
 9721TIP3   OH253357   0.455   4.904   1.883
 9721TIP3    H153358   0.427   4.820   1.919
 9721TIP3    H253359   0.550   4.904   1.890
 9722TIP3   OH253360   1.216   5.007   2.012
 9722TIP3    H153361   1.164   5.018   2.091
 9722TIP3    H253362   1.168   4.942   1.961
 9723TIP3   OH253363   0.649   4.772   2.080
 9723TIP3    H153364   0.562   4.733   2.078
 9723TIP3    H253365   0.705   4.708   2.035
 9724TIP3   OH253366   0.817   4.596   1.949
 9724TIP3    H153367   0.808   4.621   1.857
 9724TIP3    H253368   0.910   4.606   1.968
 9725TIP3   OH253369   1.719   4.773   1.835
 9725TIP3    H153370   1.718   4.751   1.742
 9725TIP3    H253371   1.707   4.868   1.837
 9726TIP3   OH253372   0.790   5.617   2.094
 9726TIP3    H153373   0.880   5.600   2.066
 9726TIP3    H253374   0.761   5.689   2.038
 9727TIP3   OH253375   0.109   5.125   2.028
 9727TIP3    H153376   0.196   5.129   2.066
 9727TIP3    H253377   0.123   5.092   1.939
 9728TIP3   OH253378   0.146   5.628   2.469
 9728TIP3    H153379   0.115   5.704   2.518
 9728TIP3    H253380   0.140   5.654   2.377
 9729TIP3   OH253381   0.290   5.366   2.578
 9729TIP3    H153382   0.383   5.348   2.567
 9729TIP3    H253383   0.283   5.407   2.663
 9730TIP3   OH253384   1.831   4.865   2.295
 9730TIP3    H153385   1.896   4.932   2.314
 9730TIP3    H253386   1.832   4.808   2.372
 9731TIP3   OH253387   1.816   4.682   2.509
 9731TIP3    H153388   1.743   4.628   2.539
 9731TIP3    H253389   1.857   4.714   2.590
 9732TIP3   OH253390   1.839   4.698   2.075
 9732TIP3    H153391   1.792   4.729   1.997
 9732TIP3    H253392   1.824   4.765   2.141
 9733TIP3   OH253393   1.666   4.386   1.873
 9733TIP3    H153394   1.660   4.411   1.781
 9733TIP3    H253395   1.643   4.293   1.874
 9734TIP3   OH253396   1.617   4.499   2.597
 9734TIP3    H153397   1.633   4.445   2.519
 9734TIP3    H253398   1.522   4.499   2.608
 9735TIP3   OH253399   0.127   4.769   2.829
 9735TIP3    H153400   0.144   4.684   2.789
 9735TIP3    H253401   0.206   4.820   2.812
 9736TIP3   OH253402   1.607   4.118   1.857
 9736TIP3    H153403   1.645   4.077   1.935
 9736TIP3    H253404   1.514   4.097   1.861
 9737TIP3   OH253405   1.588   4.392   2.335
 9737TIP3    H153406   1.594   4.299   2.355
 9737TIP3    H253407   1.646   4.405   2.260
 9738TIP3   OH253408   1.641   4.125   2.379
 9738TIP3    H153409   1.710   4.086   2.434
 9738TIP3    H253410   1.576   4.056   2.369
 9739TIP3   OH253411   7.681   4.320   2.832
 9739TIP3    H153412   7.622   4.283   2.766
 9739TIP3    H253413   7.623   4.361   2.896
 9740TIP3   OH253414   1.774   4.006   2.047
 9740TIP3    H153415   1.821   3.963   1.975
 9740TIP3    H253416   1.834   4.074   2.078
 9741TIP3   OH253417   0.051   4.007   2.194
 9741TIP3    H153418  -0.028   4.051   2.224
 9741TIP3    H253419   0.121   4.071   2.209
 9742TIP3   OH253420   1.530   5.600   2.559
 9742TIP3    H153421   1.609   5.551   2.537
 9742TIP3    H253422   1.509   5.650   2.480
 9743TIP3   OH253423   0.336   5.452   2.843
 9743TIP3    H153424   0.289   5.443   2.926
 9743TIP3    H253425   0.426   5.428   2.863
 9744TIP3   OH253426   0.602   5.382   2.881
 9744TIP3    H153427   0.615   5.290   2.904
 9744TIP3    H253428   0.684   5.425   2.906
 9745TIP3   OH253429   0.397   3.834   2.535
 9745TIP3    H153430   0.307   3.803   2.530
 9745TIP3    H253431   0.410   3.884   2.455
 9746TIP3   OH253432   0.217   3.802   2.109
 9746TIP3    H153433   0.284   3.858   2.070
 9746TIP3    H253434   0.154   3.863   2.146
 9747TIP3   OH253435   0.809   3.901   2.604
 9747TIP3    H153436   0.889   3.900   2.552
 9747TIP3    H253437   0.808   3.987   2.645
 9748TIP3   OH253438   1.214   3.807   2.633
 9748TIP3    H153439   1.273   3.875   2.667
 9748TIP3    H253440   1.234   3.730   2.686
 9749TIP3   OH253441   1.463   3.906   2.339
 9749TIP3    H153442   1.385   3.961   2.342
 9749TIP3    H253443   1.432   3.818   2.361
 9750TIP3   OH253444   0.109   5.480   2.160
 9750TIP3    H153445   0.023   5.477   2.118
 9750TIP3    H253446   0.121   5.572   2.182
 9751TIP3   OH253447   0.407   3.961   1.982
 9751TIP3    H153448   0.457   3.901   1.927
 9751TIP3    H253449   0.472   3.999   2.041
 9752TIP3   OH253450   0.855   4.032   2.276
 9752TIP3    H153451   0.901   3.965   2.326
 9752TIP3    H253452   0.858   4.110   2.331
 9753TIP3   OH253453   1.051   5.568   2.028
 9753TIP3    H153454   1.147   5.568   2.023
 9753TIP3    H253455   1.025   5.488   1.982
 9754TIP3   OH253456   1.730   5.474   2.414
 9754TIP3    H153457   1.694   5.387   2.398
 9754TIP3    H253458   1.730   5.516   2.328
 9755TIP3   OH253459   0.310   5.472   1.955
 9755TIP3    H153460   0.264   5.454   2.037
 9755TIP3    H253461   0.383   5.410   1.954
 9756TIP3   OH253462   3.130   4.814   2.530
 9756TIP3    H153463   3.103   4.900   2.499
 9756TIP3    H253464   3.076   4.753   2.481
 9757TIP3   OH253465   3.257   4.983   2.718
 9757TIP3    H153466   3.207   4.918   2.670
 9757TIP3    H253467   3.193   5.022   2.778
 9758TIP3   OH253468   1.948   4.484   2.360
 9758TIP3    H153469   1.907   4.556   2.407
 9758TIP3    H253470   1.886   4.463   2.290
 9759TIP3   OH253471   1.902   4.753   2.761
 9759TIP3    H153472   1.933   4.689   2.826
 9759TIP3    H253473   1.915   4.838   2.803
 9760TIP3   OH253474   3.076   5.440   2.788
 9760TIP3    H153475   3.127   5.416   2.711
 9760TIP3    H253476   3.001   5.381   2.787
 9761TIP3   OH253477   2.909   4.868   2.876
 9761TIP3    H153478   2.866   4.864   2.791
 9761TIP3    H253479   2.868   4.798   2.927
 9762TIP3   OH253480   2.351   4.202   2.748
 9762TIP3    H153481   2.396   4.248   2.678
 9762TIP3    H253482   2.274   4.163   2.706
 9763TIP3   OH253483   3.255   4.218   2.571
 9763TIP3    H153484   3.299   4.138   2.599
 9763TIP3    H253485   3.323   4.271   2.530
 9764TIP3   OH253486   2.607   4.557   2.627
 9764TIP3    H153487   2.663   4.499   2.677
 9764TIP3    H253488   2.545   4.499   2.583
 9765TIP3   OH253489   3.040   5.046   2.422
 9765TIP3    H153490   3.029   5.045   2.327
 9765TIP3    H253491   3.019   5.136   2.448
 9766TIP3   OH253492   2.022   5.073   2.307
 9766TIP3    H153493   1.993   5.141   2.246
 9766TIP3    H253494   2.059   5.120   2.381
 9767TIP3   OH253495   2.602   3.850   2.795
 9767TIP3    H153496   2.598   3.761   2.829
 9767TIP3    H253497   2.542   3.900   2.851
 9768TIP3   OH253498   3.242   5.407   2.555
 9768TIP3    H153499   3.289   5.324   2.548
 9768TIP3    H253500   3.309   5.470   2.580
 9769TIP3   OH253501   3.360   5.162   2.529
 9769TIP3    H153502   3.395   5.107   2.459
 9769TIP3    H253503   3.335   5.101   2.598
 9770TIP3   OH253504   2.988   4.675   2.334
 9770TIP3    H153505   2.917   4.732   2.304
 9770TIP3    H253506   3.052   4.677   2.263
 9771TIP3   OH253507   3.026   4.616   1.958
 9771TIP3    H153508   3.081   4.629   2.035
 9771TIP3    H253509   3.062   4.540   1.914
 9772TIP3   OH253510   3.364   4.739   2.387
 9772TIP3    H153511   3.299   4.760   2.454
 9772TIP3    H253512   3.432   4.692   2.435
 9773TIP3   OH253513   2.509   4.790   2.506
 9773TIP3    H153514   2.454   4.753   2.438
 9773TIP3    H253515   2.558   4.715   2.541
 9774TIP3   OH253516   2.565   4.695   2.863
 9774TIP3    H153517   2.595   4.660   2.779
 9774TIP3    H253518   2.642   4.692   2.919
 9775TIP3   OH253519   3.221   4.637   2.169
 9775TIP3    H153520   3.271   4.675   2.241
 9775TIP3    H253521   3.276   4.650   2.092
 9776TIP3   OH253522   2.993   5.318   2.472
 9776TIP3    H153523   3.079   5.346   2.502
 9776TIP3    H253524   2.953   5.397   2.436
 9777TIP3   OH253525   2.347   4.672   2.315
 9777TIP3    H153526   2.288   4.740   2.281
 9777TIP3    H253527   2.290   4.597   2.330
 9778TIP3   OH253528   3.734   5.268   1.998
 9778TIP3    H153529   3.741   5.363   2.012
 9778TIP3    H253530   3.820   5.243   1.964
 9779TIP3   OH253531   2.926   5.576   2.365
 9779TIP3    H153532   2.861   5.591   2.297
 9779TIP3    H253533   2.925   5.656   2.417
 9780TIP3   OH253534   2.323   5.420   2.579
 9780TIP3    H153535   2.353   5.359   2.646
 9780TIP3    H253536   2.253   5.372   2.533
 9781TIP3   OH253537   3.234   5.533   2.033
 9781TIP3    H153538   3.291   5.460   2.012
 9781TIP3    H253539   3.241   5.542   2.128
 9782TIP3   OH253540   3.198   5.551   2.313
 9782TIP3    H153541   3.103   5.556   2.322
 9782TIP3    H253542   3.227   5.496   2.386
 9783TIP3   OH253543   2.417   3.998   2.943
 9783TIP3    H153544   2.342   3.938   2.945
 9783TIP3    H253545   2.391   4.068   2.883
 9784TIP3   OH253546   3.369   4.665   1.939
 9784TIP3    H153547   3.342   4.697   1.852
 9784TIP3    H253548   3.455   4.704   1.953
 9785TIP3   OH253549   2.928   4.015   2.053
 9785TIP3    H153550   2.873   4.024   2.131
 9785TIP3    H253551   2.869   3.986   1.984
 9786TIP3   OH253552   2.432   4.365   2.540
 9786TIP3    H153553   2.339   4.381   2.524
 9786TIP3    H253554   2.465   4.333   2.456
 9787TIP3   OH253555   2.997   4.414   2.431
 9787TIP3    H153556   2.989   4.505   2.403
 9787TIP3    H253557   3.078   4.384   2.389
 9788TIP3   OH253558   2.615   4.127   1.927
 9788TIP3    H153559   2.581   4.105   2.013
 9788TIP3    H253560   2.551   4.188   1.891
 9789TIP3   OH253561   1.839   3.995   2.529
 9789TIP3    H153562   1.847   4.037   2.614
 9789TIP3    H253563   1.843   3.902   2.547
 9790TIP3   OH253564   1.941   4.214   2.122
 9790TIP3    H153565   2.010   4.255   2.071
 9790TIP3    H253566   1.877   4.284   2.137
 9791TIP3   OH253567   2.734   4.145   2.684
 9791TIP3    H153568   2.650   4.098   2.674
 9791TIP3    H253569   2.796   4.076   2.708
 9792TIP3   OH253570   2.167   4.382   2.494
 9792TIP3    H153571   2.091   4.416   2.447
 9792TIP3    H253572   2.142   4.294   2.520
 9793TIP3   OH253573   2.534   4.292   2.296
 9793TIP3    H153574   2.625   4.291   2.326
 9793TIP3    H253575   2.537   4.341   2.214
 9794TIP3   OH253576   2.542   4.414   2.048
 9794TIP3    H153577   2.490   4.386   1.972
 9794TIP3    H253578   2.620   4.455   2.011
 9795TIP3   OH253579   2.688   4.377   2.820
 9795TIP3    H153580   2.711   4.295   2.777
 9795TIP3    H253581   2.750   4.385   2.892
 9796TIP3   OH253582   2.160   4.104   2.565
 9796TIP3    H153583   2.141   4.022   2.610
 9796TIP3    H253584   2.133   4.088   2.475
 9797TIP3   OH253585   2.780   4.847   2.247
 9797TIP3    H153586   2.708   4.802   2.203
 9797TIP3    H253587   2.738   4.907   2.308
 9798TIP3   OH253588   3.173   4.106   2.147
 9798TIP3    H153589   3.082   4.103   2.117
 9798TIP3    H253590   3.188   4.198   2.170
 9799TIP3   OH253591   3.230   4.362   2.269
 9799TIP3    H153592   3.311   4.356   2.321
 9799TIP3    H253593   3.234   4.449   2.229
 9800TIP3   OH253594   2.380   4.862   2.744
 9800TIP3    H153595   2.408   4.852   2.653
 9800TIP3    H253596   2.435   4.800   2.793
 9801TIP3   OH253597   2.970   5.020   2.148
 9801TIP3    H153598   2.933   5.108   2.148
 9801TIP3    H253599   2.899   4.964   2.176
 9802TIP3   OH253600   3.585   5.268   2.238
 9802TIP3    H153601   3.536   5.186   2.245
 9802TIP3    H253602   3.635   5.260   2.157
 9803TIP3   OH253603   2.648   5.226   2.595
 9803TIP3    H153604   2.648   5.310   2.551
 9803TIP3    H253605   2.574   5.229   2.655
 9804TIP3   OH253606   2.107   4.651   2.055
 9804TIP3    H153607   2.144   4.724   2.106
 9804TIP3    H253608   2.013   4.659   2.068
 9805TIP3   OH253609   2.632   5.020   2.405
 9805TIP3    H153610   2.649   5.085   2.472
 9805TIP3    H253611   2.585   4.950   2.451
 9806TIP3   OH253612   2.579   5.480   2.500
 9806TIP3    H153613   2.486   5.472   2.522
 9806TIP3    H253614   2.603   5.568   2.529
 9807TIP3   OH253615   3.386   5.075   2.064
 9807TIP3    H153616   3.397   5.041   2.153
 9807TIP3    H253617   3.305   5.034   2.033
 9808TIP3   OH253618   3.757   5.530   2.073
 9808TIP3    H153619   3.823   5.599   2.079
 9808TIP3    H253620   3.677   5.571   2.106
 9809TIP3   OH253621   3.473   4.987   2.317
 9809TIP3    H153622   3.430   4.903   2.336
 9809TIP3    H253623   3.564   4.972   2.340
 9810TIP3   OH253624   2.687   5.171   1.912
 9810TIP3    H153625   2.694   5.082   1.878
 9810TIP3    H253626   2.656   5.161   2.002
 9811TIP3   OH253627   2.572   5.154   2.169
 9811TIP3    H153628   2.593   5.102   2.247
 9811TIP3    H253629   2.590   5.244   2.194
 9812TIP3   OH253630   2.190   4.874   2.202
 9812TIP3    H153631   2.126   4.928   2.248
 9812TIP3    H253632   2.244   4.938   2.155
 9813TIP3   OH253633   3.094   4.052   2.413
 9813TIP3    H153634   3.131   4.071   2.327
 9813TIP3    H253635   3.142   4.110   2.473
 9814TIP3   OH253636   2.878   5.277   2.156
 9814TIP3    H153637   2.798   5.308   2.199
 9814TIP3    H253638   2.924   5.358   2.131
 9815TIP3   OH253639   2.776   4.254   2.427
 9815TIP3    H153640   2.854   4.311   2.427
 9815TIP3    H253641   2.767   4.226   2.518
 9816TIP3   OH253642   2.896   3.883   2.486
 9816TIP3    H153643   2.898   3.886   2.581
 9816TIP3    H253644   2.969   3.939   2.458
 9817TIP3   OH253645   2.648   5.405   2.247
 9817TIP3    H153646   2.666   5.490   2.206
 9817TIP3    H253647   2.623   5.427   2.337
 9818TIP3   OH253648   2.508   4.046   2.167
 9818TIP3    H153649   2.491   4.124   2.219
 9818TIP3    H253650   2.586   4.007   2.208
 9819TIP3   OH253651   2.334   5.068   2.061
 9819TIP3    H153652   2.404   5.113   2.107
 9819TIP3    H253653   2.378   5.002   2.007
 9820TIP3   OH253654   2.107   4.378   1.972
 9820TIP3    H153655   2.121   4.456   2.027
 9820TIP3    H253656   2.118   4.410   1.883
 9821TIP3   OH253657   2.211   3.820   2.919
 9821TIP3    H153658   2.173   3.839   2.833
 9821TIP3    H253659   2.204   3.725   2.928
 9822TIP3   OH253660   2.094   5.299   2.463
 9822TIP3    H153661   2.032   5.323   2.532
 9822TIP3    H253662   2.056   5.335   2.383
 9823TIP3   OH253663   2.890   5.345   1.834
 9823TIP3    H153664   2.825   5.285   1.869
 9823TIP3    H253665   2.971   5.295   1.832
 9824TIP3   OH253666   3.372   5.319   1.932
 9824TIP3    H153667   3.394   5.243   1.987
 9824TIP3    H253668   3.437   5.318   1.863
 9825TIP3   OH253669   2.469   4.873   1.930
 9825TIP3    H153670   2.497   4.818   2.003
 9825TIP3    H253671   2.549   4.889   1.880
 9826TIP3   OH253672   3.150   4.979   1.950
 9826TIP3    H153673   3.087   4.986   2.021
 9826TIP3    H253674   3.109   4.921   1.886
 9827TIP3   OH253675   2.560   4.716   2.137
 9827TIP3    H153676   2.492   4.685   2.197
 9827TIP3    H253677   2.596   4.636   2.099
 9828TIP3   OH253678   2.747   4.571   1.959
 9828TIP3    H153679   2.735   4.606   1.870
 9828TIP3    H253680   2.839   4.587   1.978
 9829TIP3   OH253681   3.621   4.770   1.942
 9829TIP3    H153682   3.632   4.743   1.851
 9829TIP3    H253683   3.629   4.865   1.940
 9830TIP3   OH253684   2.749   5.645   2.150
 9830TIP3    H153685   2.823   5.609   2.101
 9830TIP3    H253686   2.708   5.705   2.088
 9831TIP3   OH253687   2.133   5.186   1.915
 9831TIP3    H153688   2.201   5.158   1.976
 9831TIP3    H253689   2.096   5.105   1.882
 9832TIP3   OH253690   1.890   5.581   2.612
 9832TIP3    H153691   1.838   5.548   2.539
 9832TIP3    H253692   1.917   5.503   2.660
 9833TIP3   OH253693   1.987   5.346   2.719
 9833TIP3    H153694   2.062   5.289   2.738
 9833TIP3    H253695   1.914   5.307   2.769
 9834TIP3   OH253696   3.786   4.633   2.125
 9834TIP3    H153697   3.725   4.685   2.073
 9834TIP3    H253698   3.780   4.670   2.213
 9835TIP3   OH253699   3.401   4.389   1.911
 9835TIP3    H153700   3.404   4.479   1.943
 9835TIP3    H253701   3.449   4.391   1.828
 9836TIP3   OH253702   3.580   4.608   2.514
 9836TIP3    H153703   3.604   4.608   2.606
 9836TIP3    H253704   3.657   4.640   2.468
 9837TIP3   OH253705   3.463   4.115   1.931
 9837TIP3    H153706   3.446   4.209   1.941
 9837TIP3    H253707   3.380   4.078   1.903
 9838TIP3   OH253708   3.461   4.360   2.448
 9838TIP3    H153709   3.529   4.296   2.470
 9838TIP3    H253710   3.500   4.444   2.469
 9839TIP3   OH253711   1.862   4.093   2.785
 9839TIP3    H153712   1.910   4.151   2.844
 9839TIP3    H253713   1.799   4.048   2.842
 9840TIP3   OH253714   3.688   4.010   2.055
 9840TIP3    H153715   3.723   3.958   1.982
 9840TIP3    H253716   3.613   4.056   2.017
 9841TIP3   OH253717   2.024   4.039   2.325
 9841TIP3    H153718   1.950   4.029   2.385
 9841TIP3    H253719   1.994   4.104   2.262
 9842TIP3   OH253720   3.435   5.601   2.587
 9842TIP3    H153721   3.491   5.560   2.521
 9842TIP3    H253722   3.484   5.678   2.615
 9843TIP3   OH253723   2.865   3.919   2.761
 9843TIP3    H153724   2.776   3.893   2.787
 9843TIP3    H253725   2.920   3.844   2.786
 9844TIP3   OH253726   2.117   3.849   2.661
 9844TIP3    H153727   2.031   3.823   2.630
 9844TIP3    H253728   2.175   3.778   2.634
 9845TIP3   OH253729   2.090   3.821   2.161
 9845TIP3    H153730   2.158   3.860   2.106
 9845TIP3    H253731   2.067   3.890   2.224
 9846TIP3   OH253732   2.628   3.789   2.525
 9846TIP3    H153733   2.720   3.810   2.506
 9846TIP3    H253734   2.617   3.813   2.617
 9847TIP3   OH253735   1.998   5.379   2.212
 9847TIP3    H153736   1.923   5.398   2.154
 9847TIP3    H253737   2.055   5.456   2.203
 9848TIP3   OH253738   2.300   3.941   2.012
 9848TIP3    H153739   2.348   3.876   1.961
 9848TIP3    H253740   2.365   3.976   2.073
 9849TIP3   OH253741   2.768   4.024   2.277
 9849TIP3    H153742   2.798   3.961   2.343
 9849TIP3    H253743   2.772   4.108   2.322
 9850TIP3   OH253744   2.960   5.522   2.032
 9850TIP3    H153745   3.055   5.534   2.029
 9850TIP3    H253746   2.939   5.468   1.955
 9851TIP3   OH253747   3.595   5.501   2.384
 9851TIP3    H153748   3.591   5.414   2.344
 9851TIP3    H253749   3.583   5.562   2.310
 9852TIP3   OH253750   2.154   5.471   1.906
 9852TIP3    H153751   2.134   5.512   1.990
 9852TIP3    H253752   2.153   5.377   1.925
 9853TIP3   OH253753   5.133   5.021   2.832
 9853TIP3    H153754   5.087   4.944   2.865
 9853TIP3    H253755   5.163   5.067   2.910
 9854TIP3   OH253756   5.085   5.580   2.940
 9854TIP3    H153757   5.051   5.531   2.865
 9854TIP3    H253758   5.088   5.516   3.011
 9855TIP3   OH253759   4.619   4.853   2.925
 9855TIP3    H153760   4.651   4.903   2.851
 9855TIP3    H253761   4.689   4.792   2.946
 9856TIP3   OH253762   4.307   4.238   2.588
 9856TIP3    H153763   4.362   4.307   2.549
 9856TIP3    H253764   4.274   4.189   2.514
 9857TIP3   OH253765   5.173   4.312   2.421
 9857TIP3    H153766   5.252   4.259   2.418
 9857TIP3    H253767   5.200   4.394   2.462
 9858TIP3   OH253768   5.001   5.163   2.393
 9858TIP3    H153769   4.960   5.109   2.326
 9858TIP3    H253770   4.932   5.224   2.421
 9859TIP3   OH253771   4.104   4.189   2.767
 9859TIP3    H153772   4.132   4.220   2.853
 9859TIP3    H253773   4.178   4.208   2.709
 9860TIP3   OH253774   5.062   5.449   2.698
 9860TIP3    H153775   5.096   5.361   2.679
 9860TIP3    H253776   4.999   5.466   2.628
 9861TIP3   OH253777   5.151   5.203   2.623
 9861TIP3    H153778   5.108   5.172   2.543
 9861TIP3    H253779   5.142   5.130   2.685
 9862TIP3   OH253780   5.207   4.789   2.456
 9862TIP3    H153781   5.174   4.829   2.537
 9862TIP3    H253782   5.262   4.716   2.486
 9863TIP3   OH253783   4.284   4.757   2.461
 9863TIP3    H153784   4.201   4.734   2.418
 9863TIP3    H253785   4.273   4.731   2.552
 9864TIP3   OH253786   4.843   5.374   2.494
 9864TIP3    H153787   4.764   5.384   2.547
 9864TIP3    H253788   4.839   5.444   2.430
 9865TIP3   OH253789   5.467   3.817   2.179
 9865TIP3    H153790   5.383   3.858   2.201
 9865TIP3    H253791   5.525   3.891   2.159
 9866TIP3   OH253792   5.571   5.279   1.999
 9866TIP3    H153793   5.589   5.373   2.008
 9866TIP3    H253794   5.657   5.238   1.999
 9867TIP3   OH253795   4.864   5.591   2.330
 9867TIP3    H153796   4.851   5.589   2.235
 9867TIP3    H253797   4.818   5.669   2.360
 9868TIP3   OH253798   4.192   5.573   2.568
 9868TIP3    H153799   4.238   5.534   2.642
 9868TIP3    H253800   4.142   5.501   2.530
 9869TIP3   OH253801   5.144   5.527   2.064
 9869TIP3    H153802   5.188   5.450   2.028
 9869TIP3    H253803   5.157   5.520   2.159
 9870TIP3   OH253804   5.121   5.488   2.342
 9870TIP3    H153805   5.030   5.516   2.347
 9870TIP3    H253806   5.121   5.398   2.376
 9871TIP3   OH253807   5.192   4.579   1.872
 9871TIP3    H153808   5.216   4.631   1.795
 9871TIP3    H253809   5.274   4.539   1.900
 9872TIP3   OH253810   4.708   4.137   2.064
 9872TIP3    H153811   4.666   4.140   2.150
 9872TIP3    H253812   4.653   4.079   2.013
 9873TIP3   OH253813   4.349   4.183   1.899
 9873TIP3    H153814   4.355   4.183   1.994
 9873TIP3    H253815   4.397   4.262   1.872
 9874TIP3   OH253816   3.661   4.173   2.512
 9874TIP3    H153817   3.732   4.155   2.573
 9874TIP3    H253818   3.623   4.087   2.493
 9875TIP3   OH253819   4.500   4.071   2.694
 9875TIP3    H153820   4.424   4.122   2.666
 9875TIP3    H253821   4.574   4.132   2.687
 9876TIP3   OH253822   4.340   4.362   2.287
 9876TIP3    H153823   4.411   4.380   2.348
 9876TIP3    H253824   4.342   4.435   2.226
 9877TIP3   OH253825   4.332   4.545   2.080
 9877TIP3    H153826   4.245   4.573   2.051
 9877TIP3    H253827   4.378   4.520   2.000
 9878TIP3   OH253828   4.197   4.073   2.404
 9878TIP3    H153829   4.148   3.996   2.432
 9878TIP3    H253830   4.252   4.042   2.332
 9879TIP3   OH253831   4.600   4.952   2.276
 9879TIP3    H153832   4.553   4.872   2.253
 9879TIP3    H253833   4.565   4.976   2.361
 9880TIP3   OH253834   4.973   4.186   2.069
 9880TIP3    H153835   4.879   4.166   2.062
 9880TIP3    H253836   4.984   4.265   2.017
 9881TIP3   OH253837   4.846   5.016   2.177
 9881TIP3    H153838   4.832   5.110   2.162
 9881TIP3    H253839   4.764   4.985   2.214
 9882TIP3   OH253840   5.535   4.466   2.159
 9882TIP3    H153841   5.490   4.446   2.077
 9882TIP3    H253842   5.581   4.548   2.142
 9883TIP3   OH253843   5.460   5.230   2.256
 9883TIP3    H153844   5.403   5.155   2.271
 9883TIP3    H253845   5.464   5.239   2.161
 9884TIP3   OH253846   4.309   5.230   2.518
 9884TIP3    H153847   4.356   5.302   2.475
 9884TIP3    H253848   4.217   5.250   2.505
 9885TIP3   OH253849   4.059   4.641   2.086
 9885TIP3    H153850   4.078   4.667   2.176
 9885TIP3    H253851   3.964   4.633   2.083
 9886TIP3   OH253852   4.446   4.989   2.496
 9886TIP3    H153853   4.395   5.068   2.513
 9886TIP3    H253854   4.380   4.919   2.491
 9887TIP3   OH253855   4.423   5.471   2.437
 9887TIP3    H153856   4.350   5.527   2.463
 9887TIP3    H253857   4.498   5.505   2.486
 9888TIP3   OH253858   5.256   5.062   2.045
 9888TIP3    H153859   5.277   5.024   2.131
 9888TIP3    H253860   5.173   5.021   2.021
 9889TIP3   OH253861   5.638   5.541   2.064
 9889TIP3    H153862   5.698   5.615   2.056
 9889TIP3    H253863   5.559   5.578   2.102
 9890TIP3   OH253864   5.342   4.967   2.286
 9890TIP3    H153865   5.284   4.914   2.341
 9890TIP3    H253866   5.428   4.926   2.296
 9891TIP3   OH253867   4.591   5.206   1.877
 9891TIP3    H153868   4.610   5.126   1.829
 9891TIP3    H253869   4.552   5.177   1.959
 9892TIP3   OH253870   4.466   5.129   2.107
 9892TIP3    H153871   4.508   5.069   2.168
 9892TIP3    H253872   4.478   5.216   2.147
 9893TIP3   OH253873   5.007   4.107   2.329
 9893TIP3    H153874   4.997   4.134   2.238
 9893TIP3    H253875   5.055   4.179   2.370
 9894TIP3   OH253876   4.786   5.282   2.163
 9894TIP3    H153877   4.696   5.305   2.185
 9894TIP3    H253878   4.826   5.364   2.134
 9895TIP3   OH253879   4.782   3.977   2.444
 9895TIP3    H153880   4.809   3.970   2.535
 9895TIP3    H253881   4.858   4.017   2.400
 9896TIP3   OH253882   4.530   5.379   2.204
 9896TIP3    H153883   4.543   5.461   2.157
 9896TIP3    H253884   4.487   5.404   2.285
 9897TIP3   OH253885   4.358   4.117   2.174
 9897TIP3    H153886   4.339   4.202   2.214
 9897TIP3    H253887   4.445   4.095   2.207
 9898TIP3   OH253888   4.209   5.110   1.995
 9898TIP3    H153889   4.286   5.127   2.049
 9898TIP3    H253890   4.234   5.038   1.938
 9899TIP3   OH253891   4.059   5.350   2.477
 9899TIP3    H153892   3.980   5.336   2.529
 9899TIP3    H253893   4.028   5.375   2.391
 9900TIP3   OH253894   4.804   5.373   1.858
 9900TIP3    H153895   4.729   5.315   1.875
 9900TIP3    H253896   4.878   5.313   1.847
 9901TIP3   OH253897   5.253   5.313   1.938
 9901TIP3    H153898   5.269   5.229   1.980
 9901TIP3    H253899   5.322   5.320   1.872
 9902TIP3   OH253900   4.338   4.928   1.830
 9902TIP3    H153901   4.370   4.846   1.793
 9902TIP3    H253902   4.411   4.960   1.883
 9903TIP3   OH253903   5.012   4.970   1.959
 9903TIP3    H153904   4.947   4.968   2.029
 9903TIP3    H253905   4.981   4.905   1.895
 9904TIP3   OH253906   4.454   4.727   2.245
 9904TIP3    H153907   4.393   4.737   2.319
 9904TIP3    H253908   4.407   4.670   2.184
 9905TIP3   OH253909   5.550   4.808   1.850
 9905TIP3    H153910   5.523   4.772   1.766
 9905TIP3    H253911   5.512   4.896   1.852
 9906TIP3   OH253912   4.610   5.617   2.094
 9906TIP3    H153913   4.702   5.597   2.079
 9906TIP3    H253914   4.591   5.689   2.034
 9907TIP3   OH253915   3.968   5.173   1.887
 9907TIP3    H153916   4.049   5.162   1.938
 9907TIP3    H253917   3.951   5.086   1.850
 9908TIP3   OH253918   3.777   5.577   2.578
 9908TIP3    H153919   3.724   5.541   2.507
 9908TIP3    H253920   3.807   5.501   2.627
 9909TIP3   OH253921   3.875   5.352   2.710
 9909TIP3    H153922   3.806   5.320   2.768
 9909TIP3    H253923   3.955   5.346   2.762
 9910TIP3   OH253924   5.599   4.871   2.316
 9910TIP3    H153925   5.654   4.949   2.315
 9910TIP3    H253926   5.620   4.828   2.398
 9911TIP3   OH253927   5.671   4.774   2.564
 9911TIP3    H153928   5.607   4.758   2.634
 9911TIP3    H253929   5.749   4.805   2.610
 9912TIP3   OH253930   5.647   4.712   2.093
 9912TIP3    H153931   5.604   4.746   2.015
 9912TIP3    H253932   5.618   4.770   2.163
 9913TIP3   OH253933   5.411   4.403   1.909
 9913TIP3    H153934   5.401   4.406   1.814
 9913TIP3    H253935   5.417   4.310   1.930
 9914TIP3   OH253936   5.363   4.592   2.573
 9914TIP3    H153937   5.422   4.529   2.533
 9914TIP3    H253938   5.411   4.626   2.648
 9915TIP3   OH253939   5.418   4.126   1.930
 9915TIP3    H153940   5.454   4.091   2.011
 9915TIP3    H253941   5.327   4.095   1.929
 9916TIP3   OH253942   5.511   4.395   2.428
 9916TIP3    H153943   5.481   4.304   2.420
 9916TIP3    H253944   5.523   4.424   2.337
 9917TIP3   OH253945   5.388   4.135   2.403
 9917TIP3    H153946   5.453   4.076   2.442
 9917TIP3    H253947   5.337   4.078   2.345
 9918TIP3   OH253948   3.881   4.064   2.664
 9918TIP3    H153949   3.837   4.020   2.737
 9918TIP3    H253950   3.957   4.106   2.704
 9919TIP3   OH253951   5.623   4.037   2.126
 9919TIP3    H153952   5.696   4.058   2.068
 9919TIP3    H253953   5.660   4.043   2.214
 9920TIP3   OH253954   5.397   5.591   2.615
 9920TIP3    H153955   5.411   5.546   2.532
 9920TIP3    H253956   5.448   5.672   2.607
 9921TIP3   OH253957   4.099   5.332   2.877
 9921TIP3    H153958   4.148   5.288   2.947
 9921TIP3    H253959   4.167   5.372   2.823
 9922TIP3   OH253960   4.325   5.407   2.738
 9922TIP3    H153961   4.339   5.330   2.683
 9922TIP3    H253962   4.400   5.410   2.797
 9923TIP3   OH253963   4.912   3.963   2.689
 9923TIP3    H153964   4.979   4.031   2.700
 9923TIP3    H253965   4.963   3.882   2.679
 9924TIP3   OH253966   5.429   3.923   2.730
 9924TIP3    H153967   5.478   3.933   2.649
 9924TIP3    H253968   5.372   4.000   2.733
 9925TIP3   OH253969   5.551   3.925   2.487
 9925TIP3    H153970   5.545   3.834   2.459
 9925TIP3    H253971   5.628   3.960   2.442
 9926TIP3   OH253972   4.017   3.881   2.482
 9926TIP3    H153973   3.960   3.932   2.539
 9926TIP3    H253974   4.049   3.810   2.537
 9927TIP3   OH253975   4.005   3.782   2.222
 9927TIP3    H153976   4.055   3.843   2.167
 9927TIP3    H253977   4.006   3.821   2.309
 9928TIP3   OH253978   4.519   3.848   2.528
 9928TIP3    H153979   4.603   3.871   2.487
 9928TIP3    H253980   4.506   3.915   2.595
 9929TIP3   OH253981   5.086   3.753   2.655
 9929TIP3    H153982   5.180   3.733   2.655
 9929TIP3    H253983   5.044   3.667   2.666
 9930TIP3   OH253984   5.229   3.946   2.268
 9930TIP3    H153985   5.151   3.997   2.288
 9930TIP3    H253986   5.200   3.855   2.274
 9931TIP3   OH253987   3.989   5.458   2.227
 9931TIP3    H153988   3.906   5.433   2.187
 9931TIP3    H253989   3.997   5.552   2.212
 9932TIP3   OH253990   4.153   3.964   2.063
 9932TIP3    H153991   4.189   3.922   1.985
 9932TIP3    H253992   4.225   4.016   2.098
 9933TIP3   OH253993   4.598   4.146   2.316
 9933TIP3    H153994   4.651   4.089   2.371
 9933TIP3    H253995   4.577   4.220   2.373
 9934TIP3   OH253996   4.871   5.539   2.059
 9934TIP3    H153997   4.966   5.546   2.056
 9934TIP3    H253998   4.848   5.495   1.977
 9935TIP3   OH253999   5.496   5.479   2.382
 9935TIP3    H154000   5.480   5.391   2.347
 9935TIP3    H254001   5.473   5.538   2.310
 9936TIP3   OH254002   4.160   5.495   1.971
 9936TIP3    H154003   4.133   5.458   2.055
 9936TIP3    H254004   4.233   5.441   1.943
 9937TIP3   OH254005   6.870   4.908   2.618
 9937TIP3    H154006   6.850   4.986   2.565
 9937TIP3    H254007   6.798   4.903   2.681
 9938TIP3   OH254008   7.093   4.948   2.778
 9938TIP3    H154009   7.019   4.925   2.721
 9938TIP3    H254010   7.083   5.042   2.793
 9939TIP3   OH254011   5.720   4.496   2.598
 9939TIP3    H154012   5.707   4.587   2.571
 9939TIP3    H254013   5.657   4.446   2.545
 9940TIP3   OH254014   5.892   4.845   2.728
 9940TIP3    H154015   5.836   4.811   2.797
 9940TIP3    H254016   5.978   4.808   2.745
 9941TIP3   OH254017   6.770   5.550   2.675
 9941TIP3    H154018   6.813   5.490   2.736
 9941TIP3    H254019   6.698   5.588   2.725
 9942TIP3   OH254020   6.986   4.418   2.879
 9942TIP3    H154021   7.018   4.342   2.929
 9942TIP3    H254022   6.909   4.385   2.833
 9943TIP3   OH254023   5.902   4.471   2.806
 9943TIP3    H154024   5.969   4.427   2.754
 9943TIP3    H254025   5.828   4.483   2.746
 9944TIP3   OH254026   6.862   5.141   2.468
 9944TIP3    H154027   6.951   5.168   2.488
 9944TIP3    H254028   6.812   5.223   2.463
 9945TIP3   OH254029   5.715   5.122   2.277
 9945TIP3    H154030   5.747   5.121   2.187
 9945TIP3    H254031   5.629   5.162   2.272
 9946TIP3   OH254032   6.473   3.801   2.724
 9946TIP3    H154033   6.525   3.815   2.803
 9946TIP3    H254034   6.405   3.869   2.727
 9947TIP3   OH254035   7.099   5.474   2.558
 9947TIP3    H154036   7.116   5.384   2.533
 9947TIP3    H254037   7.099   5.473   2.654
 9948TIP3   OH254038   7.121   5.198   2.542
 9948TIP3    H154039   7.184   5.130   2.520
 9948TIP3    H254040   7.113   5.193   2.637
 9949TIP3   OH254041   7.040   4.815   2.406
 9949TIP3    H154042   6.982   4.835   2.480
 9949TIP3    H254043   7.089   4.738   2.434
 9950TIP3   OH254044   6.336   5.099   2.734
 9950TIP3    H154045   6.305   5.151   2.660
 9950TIP3    H254046   6.360   5.015   2.696
 9951TIP3   OH254047   6.910   4.651   2.206
 9951TIP3    H154048   6.944   4.714   2.269
 9951TIP3    H254049   6.955   4.672   2.124
 9952TIP3   OH254050   6.743   5.398   2.443
 9952TIP3    H154051   6.748   5.436   2.531
 9952TIP3    H254052   6.733   5.474   2.385
 9953TIP3   OH254053   7.268   3.895   2.158
 9953TIP3    H154054   7.362   3.895   2.139
 9953TIP3    H254055   7.256   3.970   2.216
 9954TIP3   OH254056   7.531   5.224   2.071
 9954TIP3    H154057   7.532   5.319   2.054
 9954TIP3    H254058   7.621   5.196   2.054
 9955TIP3   OH254059   6.742   5.610   2.268
 9955TIP3    H154060   6.732   5.569   2.182
 9955TIP3    H254061   6.722   5.702   2.252
 9956TIP3   OH254062   6.069   5.392   2.545
 9956TIP3    H154063   6.126   5.316   2.538
 9956TIP3    H254064   5.986   5.364   2.506
 9957TIP3   OH254065   7.014   5.511   2.030
 9957TIP3    H154066   7.068   5.435   2.010
 9957TIP3    H254067   7.025   5.524   2.125
 9958TIP3   OH254068   7.014   5.561   2.306
 9958TIP3    H154069   6.920   5.572   2.316
 9958TIP3    H254070   7.043   5.528   2.390
 9959TIP3   OH254071   6.276   3.992   2.691
 9959TIP3    H154072   6.222   3.946   2.627
 9959TIP3    H254073   6.228   4.073   2.709
 9960TIP3   OH254074   7.031   4.707   1.963
 9960TIP3    H154075   6.995   4.795   1.947
 9960TIP3    H254076   7.126   4.720   1.962
 9961TIP3   OH254077   6.602   4.118   2.074
 9961TIP3    H154078   6.527   4.167   2.039
 9961TIP3    H254079   6.578   4.026   2.062
 9962TIP3   OH254080   6.357   4.145   1.946
 9962TIP3    H154081   6.311   4.132   2.029
 9962TIP3    H254082   6.300   4.203   1.896
 9963TIP3   OH254083   6.550   4.194   2.578
 9963TIP3    H154084   6.471   4.143   2.596
 9963TIP3    H254085   6.610   4.132   2.538
 9964TIP3   OH254086   6.210   4.376   2.109
 9964TIP3    H154087   6.120   4.388   2.078
 9964TIP3    H254088   6.263   4.428   2.048
 9965TIP3   OH254089   6.765   4.342   2.707
 9965TIP3    H154090   6.825   4.305   2.642
 9965TIP3    H254091   6.679   4.307   2.683
 9966TIP3   OH254092   6.874   4.133   2.065
 9966TIP3    H154093   6.779   4.136   2.072
 9966TIP3    H254094   6.905   4.211   2.111
 9967TIP3   OH254095   6.929   4.375   2.193
 9967TIP3    H154096   7.010   4.360   2.241
 9967TIP3    H254097   6.915   4.470   2.198
 9968TIP3   OH254098   6.858   5.058   2.192
 9968TIP3    H154099   6.792   5.126   2.181
 9968TIP3    H254100   6.861   5.042   2.286
 9969TIP3   OH254101   7.436   4.408   2.190
 9969TIP3    H154102   7.405   4.368   2.109
 9969TIP3    H254103   7.459   4.497   2.166
 9970TIP3   OH254104   7.408   5.226   2.325
 9970TIP3    H154105   7.353   5.149   2.336
 9970TIP3    H254106   7.452   5.213   2.242
 9971TIP3   OH254107   6.229   5.178   2.492
 9971TIP3    H154108   6.292   5.231   2.443
 9971TIP3    H254109   6.229   5.093   2.447
 9972TIP3   OH254110   5.915   4.687   2.041
 9972TIP3    H154111   5.966   4.748   2.094
 9972TIP3    H254112   5.825   4.701   2.067
 9973TIP3   OH254113   6.320   5.446   2.432
 9973TIP3    H154114   6.233   5.455   2.471
 9973TIP3    H254115   6.375   5.506   2.482
 9974TIP3   OH254116   7.128   5.106   2.145
 9974TIP3    H154117   7.165   5.076   2.228
 9974TIP3    H254118   7.034   5.091   2.154
 9975TIP3   OH254119   7.539   5.499   2.029
 9975TIP3    H154120   7.549   5.543   1.944
 9975TIP3    H254121   7.473   5.550   2.075
 9976TIP3   OH254122   7.255   4.990   2.362
 9976TIP3    H154123   7.182   4.929   2.377
 9976TIP3    H254124   7.331   4.934   2.348
 9977TIP3   OH254125   6.488   5.099   1.943
 9977TIP3    H154126   6.469   5.018   1.895
 9977TIP3    H254127   6.423   5.100   2.013
 9978TIP3   OH254128   6.284   5.100   2.144
 9978TIP3    H154129   6.287   5.041   2.219
 9978TIP3    H254130   6.329   5.179   2.173
 9979TIP3   OH254131   6.076   4.871   2.176
 9979TIP3    H154132   6.053   4.963   2.163
 9979TIP3    H254133   6.133   4.871   2.252
 9980TIP3   OH254134   6.677   5.259   2.209
 9980TIP3    H154135   6.583   5.271   2.200
 9980TIP3    H254136   6.699   5.301   2.293
 9981TIP3   OH254137   6.409   5.333   2.205
 9981TIP3    H154138   6.421   5.403   2.140
 9981TIP3    H254139   6.382   5.379   2.285
 9982TIP3   OH254140   6.233   4.118   2.188
 9982TIP3    H154141   6.220   4.212   2.179
 9982TIP3    H254142   6.151   4.086   2.226
 9983TIP3   OH254143   7.172   4.559   2.738
 9983TIP3    H154144   7.105   4.511   2.786
 9983TIP3    H254145   7.252   4.544   2.789
 9984TIP3   OH254146   6.074   5.139   1.957
 9984TIP3    H154147   6.145   5.160   2.017
 9984TIP3    H254148   6.096   5.053   1.922
 9985TIP3   OH254149   5.954   4.418   2.021
 9985TIP3    H154150   5.941   4.512   2.034
 9985TIP3    H254151   5.876   4.377   2.058
 9986TIP3   OH254152   5.836   5.315   2.430
 9986TIP3    H154153   5.852   5.368   2.352
 9986TIP3    H254154   5.798   5.234   2.397
 9987TIP3   OH254155   6.665   5.292   1.862
 9987TIP3    H154156   6.604   5.226   1.896
 9987TIP3    H254157   6.748   5.245   1.852
 9988TIP3   OH254158   7.151   5.288   1.944
 9988TIP3    H154159   7.149   5.229   2.019
 9988TIP3    H254160   7.232   5.267   1.898
 9989TIP3   OH254161   6.163   4.886   1.903
 9989TIP3    H154162   6.154   4.850   1.991
 9989TIP3    H254163   6.256   4.872   1.882
 9990TIP3   OH254164   6.887   4.942   1.943
 9990TIP3    H154165   6.865   4.971   2.032
 9990TIP3    H254166   6.804   4.910   1.908
 9991TIP3   OH254167   6.367   4.497   1.918
 9991TIP3    H154168   6.313   4.437   1.867
 9991TIP3    H254169   6.405   4.557   1.853
 9992TIP3   OH254170   7.300   4.776   1.939
 9992TIP3    H154171   7.302   4.764   1.844
 9992TIP3    H254172   7.317   4.869   1.952
 9993TIP3   OH254173   6.463   5.533   2.021
 9993TIP3    H154174   6.557   5.516   2.018
 9993TIP3    H254175   6.455   5.627   2.010
 9994TIP3   OH254176   5.804   5.133   2.012
 9994TIP3    H154177   5.897   5.153   2.004
 9994TIP3    H254178   5.788   5.069   1.943
 9995TIP3   OH254179   5.726   5.554   2.523
 9995TIP3    H154180   5.642   5.545   2.477
 9995TIP3    H254181   5.770   5.470   2.508
 9996TIP3   OH254182   7.494   4.851   2.324
 9996TIP3    H154183   7.569   4.909   2.323
 9996TIP3    H254184   7.510   4.793   2.399
 9997TIP3   OH254185   7.460   4.645   2.525
 9997TIP3    H154186   7.369   4.635   2.498
 9997TIP3    H254187   7.461   4.617   2.617
 9998TIP3   OH254188   7.424   5.025   3.060
 9998TIP3    H154189   7.505   4.981   3.085
 9998TIP3    H254190   7.399   5.075   3.138
 9999TIP3   OH254191   7.494   4.668   2.109
 9999TIP3    H154192   7.425   4.697   2.050
 9999TIP3    H254193   7.493   4.733   2.180
10000TIP3   OH254194   7.329   4.309   1.962
10000TIP3    H154195   7.293   4.346   1.882
10000TIP3    H254196   7.309   4.215   1.956
10001TIP3   OH254197   7.191   4.595   2.471
10001TIP3    H154198   7.177   4.513   2.423
10001TIP3    H254199   7.174   4.573   2.562
10002TIP3   OH254200   7.258   4.045   1.914
10002TIP3    H154201   7.256   3.989   1.991
10002TIP3    H254202   7.169   4.040   1.879
10003TIP3   OH254203   7.183   4.363   2.315
10003TIP3    H154204   7.184   4.268   2.330
10003TIP3    H254205   7.266   4.380   2.270
10004TIP3   OH254206   7.196   4.088   2.347
10004TIP3    H154207   7.256   4.067   2.418
10004TIP3    H254208   7.111   4.055   2.377
10005TIP3   OH254209   7.529   3.857   2.073
10005TIP3    H154210   7.538   3.863   1.978
10005TIP3    H254211   7.599   3.911   2.107
10006TIP3   OH254212   7.157   5.737   2.618
10006TIP3    H154213   7.152   5.649   2.581
10006TIP3    H254214   7.189   5.724   2.707
10007TIP3   OH254215   6.364   5.342   2.892
10007TIP3    H154216   6.353   5.253   2.859
10007TIP3    H254217   6.350   5.335   2.986
10008TIP3   OH254218   7.408   4.029   2.509
10008TIP3    H154219   7.456   3.947   2.511
10008TIP3    H254220   7.461   4.090   2.560
10009TIP3   OH254221   6.537   3.824   2.459
10009TIP3    H154222   6.603   3.893   2.451
10009TIP3    H254223   6.524   3.814   2.553
10010TIP3   OH254224   5.862   5.476   2.211
10010TIP3    H154225   5.779   5.468   2.165
10010TIP3    H254226   5.882   5.570   2.209
10011TIP3   OH254227   5.897   4.056   2.024
10011TIP3    H154228   5.913   3.962   2.012
10011TIP3    H254229   5.935   4.075   2.110
10012TIP3   OH254230   6.738   5.508   2.013
10012TIP3    H154231   6.834   5.515   2.011
10012TIP3    H254232   6.720   5.424   1.970
10013TIP3   OH254233   7.368   5.503   2.353
10013TIP3    H154234   7.371   5.408   2.341
10013TIP3    H254235   7.354   5.537   2.265
10014TIP3   OH254236   5.964   5.443   1.946
10014TIP3    H154237   5.952   5.437   2.041
10014TIP3    H254238   6.057   5.426   1.932
10015TIP3   OH254239   7.618   4.448   2.404
10015TIP3    H154240   7.571   4.521   2.444
10015TIP3    H254241   7.566   4.426   2.326
10016TIP3   OH254242   7.588   5.248   2.540
10016TIP3    H154243   7.664   5.253   2.482
10016TIP3    H254244   7.513   5.243   2.482
10017TIP3   OH254245   7.589   4.228   2.579
10017TIP3    H154246   7.668   4.175   2.579
10017TIP3    H254247   7.608   4.301   2.520
10018TIP3   OH254248   7.482   5.672   2.530
10018TIP3    H154249   7.430   5.625   2.466
10018TIP3    H254250   7.547   5.608   2.559
10019TIP3   OH254251   7.659   5.493   2.648
10019TIP3    H154252   7.630   5.408   2.614
10019TIP3    H254253   7.734   5.517   2.593
10020TIP3   OH254254   7.628   4.832   3.039
10020TIP3    H154255   7.579   4.757   3.073
10020TIP3    H254256   7.686   4.794   2.973
10021TIP3   OH254257   7.500   4.134   2.262
10021TIP3    H154258   7.460   4.112   2.346
10021TIP3    H254259   7.476   4.225   2.247
10022TIP3   OH254260   1.172   6.676   2.520
10022TIP3    H154261   1.162   6.771   2.526
10022TIP3    H254262   1.108   6.649   2.454
10023TIP3   OH254263   1.441   6.908   2.768
10023TIP3    H154264   1.386   6.844   2.813
10023TIP3    H254265   1.510   6.930   2.831
10024TIP3   OH254266   0.217   6.476   2.421
10024TIP3    H154267   0.246   6.503   2.508
10024TIP3    H254268   0.122   6.467   2.429
10025TIP3   OH254269   0.301   6.540   2.671
10025TIP3    H154270   0.300   6.470   2.737
10025TIP3    H254271   0.304   6.621   2.722
10026TIP3   OH254272   1.196   6.448   3.303
10026TIP3    H154273   1.108   6.414   3.288
10026TIP3    H254274   1.196   6.534   3.259
10027TIP3   OH254275   0.635   6.146   2.650
10027TIP3    H154276   0.597   6.228   2.618
10027TIP3    H254277   0.586   6.078   2.605
10028TIP3   OH254278   1.395   6.179   2.432
10028TIP3    H154279   1.393   6.162   2.526
10028TIP3    H254280   1.488   6.192   2.412
10029TIP3   OH254281   0.293   6.293   2.807
10029TIP3    H154282   0.352   6.231   2.851
10029TIP3    H254283   0.285   6.259   2.718
10030TIP3   OH254284   1.152   6.944   2.458
10030TIP3    H154285   1.136   6.942   2.363
10030TIP3    H254286   1.243   6.972   2.466
10031TIP3   OH254287   1.401   6.105   2.702
10031TIP3    H154288   1.384   6.107   2.796
10031TIP3    H254289   1.436   6.018   2.685
10032TIP3   OH254290   0.460   6.078   2.872
10032TIP3    H154291   0.484   6.001   2.924
10032TIP3    H254292   0.534   6.089   2.811
10033TIP3   OH254293   0.128   6.953   2.081
10033TIP3    H154294   0.033   6.959   2.070
10033TIP3    H254295   0.146   7.002   2.162
10034TIP3   OH254296   1.422   7.001   2.505
10034TIP3    H154297   1.489   6.957   2.452
10034TIP3    H254298   1.431   6.963   2.592
10035TIP3   OH254299   0.995   6.603   2.320
10035TIP3    H154300   0.930   6.674   2.328
10035TIP3    H254301   1.019   6.603   2.228
10036TIP3   OH254302   1.121   6.508   2.005
10036TIP3    H154303   1.189   6.529   2.069
10036TIP3    H254304   1.151   6.428   1.963
10037TIP3   OH254305   1.428   6.635   2.423
10037TIP3    H154306   1.342   6.656   2.458
10037TIP3    H254307   1.471   6.587   2.493
10038TIP3   OH254308   0.576   6.657   2.502
10038TIP3    H154309   0.519   6.649   2.425
10038TIP3    H254310   0.570   6.572   2.545
10039TIP3   OH254311   1.337   6.527   2.177
10039TIP3    H154312   1.377   6.567   2.254
10039TIP3    H254313   1.398   6.548   2.105
10040TIP3   OH254314   1.113   7.224   2.500
10040TIP3    H154315   1.082   7.134   2.486
10040TIP3    H254316   1.047   7.279   2.457
10041TIP3   OH254317   1.705   5.662   2.191
10041TIP3    H154318   1.622   5.682   2.233
10041TIP3    H254319   1.735   5.745   2.155
10042TIP3   OH254320   0.421   6.590   2.275
10042TIP3    H154321   0.371   6.640   2.210
10042TIP3    H254322   0.354   6.543   2.325
10043TIP3   OH254323   1.836   7.113   2.022
10043TIP3    H154324   1.843   7.208   2.038
10043TIP3    H254325   1.923   7.087   1.995
10044TIP3   OH254326   0.134   6.959   2.938
10044TIP3    H154327   0.118   7.015   3.014
10044TIP3    H254328   0.077   6.995   2.869
10045TIP3   OH254329   1.327   7.350   2.115
10045TIP3    H154330   1.377   7.289   2.061
10045TIP3    H254331   1.326   7.309   2.202
10046TIP3   OH254332   1.349   7.249   2.368
10046TIP3    H154333   1.267   7.248   2.417
10046TIP3    H254334   1.399   7.176   2.404
10047TIP3   OH254335   1.483   6.574   1.946
10047TIP3    H154336   1.436   6.579   1.862
10047TIP3    H254337   1.570   6.610   1.927
10048TIP3   OH254338   0.917   5.991   2.046
10048TIP3    H154339   0.888   5.976   2.136
10048TIP3    H254340   0.877   5.920   1.996
10049TIP3   OH254341   0.532   6.366   2.516
10049TIP3    H154342   0.440   6.350   2.537
10049TIP3    H254343   0.543   6.330   2.428
10050TIP3   OH254344   1.034   6.357   2.443
10050TIP3    H154345   1.005   6.442   2.409
10050TIP3    H254346   1.088   6.320   2.373
10051TIP3   OH254347   1.224   6.429   2.634
10051TIP3    H154348   1.212   6.524   2.627
10051TIP3    H254349   1.175   6.393   2.560
10052TIP3   OH254350   0.598   6.037   1.966
10052TIP3    H154351   0.584   6.002   2.054
10052TIP3    H254352   0.628   6.127   1.981
10053TIP3   OH254353   0.072   5.863   2.583
10053TIP3    H154354   0.124   5.915   2.644
10053TIP3    H254355   0.070   5.916   2.503
10054TIP3   OH254356   0.192   6.223   2.308
10054TIP3    H154357   0.198   6.229   2.213
10054TIP3    H254358   0.197   6.314   2.338
10055TIP3   OH254359   0.963   6.028   2.804
10055TIP3    H154360   0.883   5.978   2.820
10055TIP3    H254361   1.021   6.004   2.876
10056TIP3   OH254362   0.313   6.187   2.554
10056TIP3    H154363   0.263   6.193   2.473
10056TIP3    H254364   0.362   6.105   2.546
10057TIP3   OH254365   0.607   6.221   2.284
10057TIP3    H154366   0.693   6.214   2.326
10057TIP3    H254367   0.625   6.259   2.198
10058TIP3   OH254368   0.650   6.302   2.020
10058TIP3    H154369   0.589   6.327   1.951
10058TIP3    H254370   0.721   6.366   2.014
10059TIP3   OH254371   0.474   5.966   2.506
10059TIP3    H154372   0.449   5.880   2.541
10059TIP3    H254373   0.488   5.951   2.413
10060TIP3   OH254374   0.824   6.820   2.306
10060TIP3    H154375   0.757   6.773   2.256
10060TIP3    H254376   0.775   6.866   2.374
10061TIP3   OH254377   1.176   6.081   2.069
10061TIP3    H154378   1.085   6.052   2.063
10061TIP3    H254379   1.175   6.155   2.130
10062TIP3   OH254380   1.221   6.286   2.252
10062TIP3    H154381   1.283   6.250   2.315
10062TIP3    H254382   1.262   6.367   2.221
10063TIP3   OH254383   1.049   6.930   2.195
10063TIP3    H154384   1.030   7.024   2.189
10063TIP3    H254385   0.969   6.892   2.231
10064TIP3   OH254386   1.854   6.302   2.167
10064TIP3    H154387   1.893   6.240   2.106
10064TIP3    H254388   1.846   6.384   2.118
10065TIP3   OH254389   1.668   7.112   2.255
10065TIP3    H154390   1.641   7.022   2.275
10065TIP3    H254391   1.724   7.103   2.177
10066TIP3   OH254392   1.532   6.576   2.911
10066TIP3    H154393   1.462   6.640   2.925
10066TIP3    H254394   1.586   6.583   2.990
10067TIP3   OH254395   0.155   6.527   1.961
10067TIP3    H154396   0.209   6.586   2.013
10067TIP3    H254397   0.067   6.537   1.996
10068TIP3   OH254398   0.656   6.927   2.497
10068TIP3    H154399   0.652   6.979   2.577
10068TIP3    H254400   0.618   6.842   2.521
10069TIP3   OH254401   1.488   6.925   2.052
10069TIP3    H154402   1.511   6.897   2.141
10069TIP3    H254403   1.401   6.889   2.037
10070TIP3   OH254404   1.870   7.374   2.101
10070TIP3    H154405   1.950   7.423   2.084
10070TIP3    H254406   1.805   7.440   2.126
10071TIP3   OH254407   1.574   6.842   2.307
10071TIP3    H154408   1.521   6.772   2.346
10071TIP3    H254409   1.659   6.801   2.293
10072TIP3   OH254410   0.772   7.073   1.862
10072TIP3    H154411   0.771   6.978   1.854
10072TIP3    H254412   0.705   7.103   1.801
10073TIP3   OH254413   0.299   6.735   2.072
10073TIP3    H154414   0.238   6.809   2.078
10073TIP3    H254415   0.374   6.769   2.023
10074TIP3   OH254416   1.333   5.957   2.272
10074TIP3    H154417   1.280   5.994   2.202
10074TIP3    H254418   1.347   6.030   2.332
10075TIP3   OH254419   0.987   7.196   2.195
10075TIP3    H154420   0.966   7.254   2.269
10075TIP3    H254421   1.003   7.255   2.122
10076TIP3   OH254422   0.828   6.168   2.445
10076TIP3    H154423   0.899   6.231   2.460
10076TIP3    H254424   0.786   6.159   2.530
10077TIP3   OH254425   0.944   5.766   2.487
10077TIP3    H154426   0.887   5.730   2.555
10077TIP3    H254427   1.014   5.810   2.536
10078TIP3   OH254428   0.558   5.957   2.228
10078TIP3    H154429   0.556   6.049   2.254
10078TIP3    H254430   0.645   5.926   2.253
10079TIP3   OH254431   1.497   6.484   2.654
10079TIP3    H154432   1.511   6.523   2.740
10079TIP3    H254433   1.408   6.449   2.658
10080TIP3   OH254434   0.205   6.259   2.039
10080TIP3    H154435   0.188   6.345   2.002
10080TIP3    H254436   0.242   6.208   1.967
10081TIP3   OH254437   0.286   5.717   2.799
10081TIP3    H154438   0.333   5.724   2.716
10081TIP3    H254439   0.294   5.624   2.823
10082TIP3   OH254440   0.175   7.110   2.296
10082TIP3    H154441   0.149   7.125   2.387
10082TIP3    H254442   0.175   7.197   2.256
10083TIP3   OH254443   1.003   7.220   1.877
10083TIP3    H154444   0.925   7.165   1.885
10083TIP3    H254445   1.076   7.158   1.870
10084TIP3   OH254446   1.465   7.183   1.946
10084TIP3    H154447   1.495   7.103   1.989
10084TIP3    H254448   1.528   7.197   1.875
10085TIP3   OH254449   0.544   6.798   1.953
10085TIP3    H154450   0.580   6.755   2.030
10085TIP3    H254451   0.619   6.812   1.895
10086TIP3   OH254452   1.228   6.847   2.001
10086TIP3    H154453   1.162   6.865   2.069
10086TIP3    H254454   1.184   6.789   1.940
10087TIP3   OH254455   0.660   6.658   2.156
10087TIP3    H154456   0.590   6.613   2.203
10087TIP3    H254457   0.714   6.587   2.120
10088TIP3   OH254458   0.841   6.499   2.005
10088TIP3    H154459   0.830   6.524   1.913
10088TIP3    H254460   0.936   6.497   2.018
10089TIP3   OH254461   1.721   6.662   1.837
10089TIP3    H154462   1.715   6.634   1.746
10089TIP3    H254463   1.722   6.758   1.833
10090TIP3   OH254464   0.782   7.483   2.080
10090TIP3    H154465   0.878   7.477   2.072
10090TIP3    H254466   0.768   7.519   2.167
10091TIP3   OH254467   0.247   7.000   1.836
10091TIP3    H154468   0.208   7.003   1.924
10091TIP3    H254469   0.220   6.915   1.801
10092TIP3   OH254470   7.683   7.547   2.320
10092TIP3    H154471   7.603   7.548   2.372
10092TIP3    H254472   7.751   7.575   2.380
10093TIP3   OH254473   0.106   7.228   2.530
10093TIP3    H154474   0.027   7.248   2.579
10093TIP3    H254475   0.151   7.312   2.521
10094TIP3   OH254476   1.820   6.721   2.270
10094TIP3    H154477   1.882   6.793   2.269
10094TIP3    H254478   1.845   6.669   2.347
10095TIP3   OH254479   1.893   6.570   2.492
10095TIP3    H154480   1.832   6.502   2.519
10095TIP3    H254481   1.913   6.618   2.572
10096TIP3   OH254482   1.856   6.552   2.050
10096TIP3    H154483   1.812   6.589   1.973
10096TIP3    H254484   1.839   6.614   2.120
10097TIP3   OH254485   1.507   6.298   1.864
10097TIP3    H154486   1.533   6.366   1.926
10097TIP3    H254487   1.546   6.217   1.899
10098TIP3   OH254488   1.721   6.359   2.563
10098TIP3    H154489   1.700   6.306   2.486
10098TIP3    H254490   1.639   6.400   2.587
10099TIP3   OH254491   1.584   6.039   1.906
10099TIP3    H154492   1.626   5.980   1.968
10099TIP3    H254493   1.498   6.001   1.891
10100TIP3   OH254494   1.663   6.201   2.348
10100TIP3    H154495   1.675   6.106   2.348
10100TIP3    H254496   1.725   6.232   2.282
10101TIP3   OH254497   1.683   5.925   2.381
10101TIP3    H154498   1.709   5.894   2.467
10101TIP3    H254499   1.607   5.872   2.358
10102TIP3   OH254500   0.208   5.974   2.797
10102TIP3    H154501   0.232   5.883   2.811
10102TIP3    H254502   0.286   6.024   2.822
10103TIP3   OH254503   0.048   6.361   2.919
10103TIP3    H154504   0.129   6.327   2.881
10103TIP3    H254505   0.048   6.454   2.897
10104TIP3   OH254506   1.783   5.882   2.031
10104TIP3    H154507   1.819   5.823   1.965
10104TIP3    H254508   1.838   5.960   2.027
10105TIP3   OH254509   0.053   5.987   2.336
10105TIP3    H154510  -0.040   6.006   2.332
10105TIP3    H254511   0.096   6.072   2.325
10106TIP3   OH254512   1.520   7.511   2.562
10106TIP3    H154513   1.568   7.451   2.505
10106TIP3    H254514   1.564   7.504   2.647
10107TIP3   OH254515   1.516   5.860   2.657
10107TIP3    H154516   1.612   5.863   2.661
10107TIP3    H254517   1.496   5.768   2.641
10108TIP3   OH254518   1.785   5.836   2.623
10108TIP3    H154519   1.828   5.751   2.626
10108TIP3    H254520   1.854   5.899   2.644
10109TIP3   OH254521   0.403   5.705   2.549
10109TIP3    H154522   0.327   5.657   2.515
10109TIP3    H254523   0.479   5.653   2.522
10110TIP3   OH254524   0.140   5.750   2.218
10110TIP3    H154525   0.211   5.781   2.162
10110TIP3    H254526   0.105   5.830   2.257
10111TIP3   OH254527   0.794   5.680   2.704
10111TIP3    H154528   0.817   5.613   2.767
10111TIP3    H254529   0.774   5.757   2.757
10112TIP3   OH254530   1.472   5.732   2.320
10112TIP3    H154531   1.419   5.810   2.304
10112TIP3    H254532   1.412   5.659   2.307
10113TIP3   OH254533   0.180   7.364   2.197
10113TIP3    H154534   0.228   7.430   2.148
10113TIP3    H254535   0.112   7.413   2.244
10114TIP3   OH254536   0.353   5.841   2.066
10114TIP3    H154537   0.397   5.785   2.001
10114TIP3    H254538   0.422   5.865   2.128
10115TIP3   OH254539   0.825   5.936   2.301
10115TIP3    H154540   0.860   5.866   2.355
10115TIP3    H254541   0.832   6.014   2.355
10116TIP3   OH254542   1.056   7.429   2.044
10116TIP3    H154543   1.146   7.420   2.074
10116TIP3    H254544   1.049   7.369   1.970
10117TIP3   OH254545   1.670   7.349   2.397
10117TIP3    H154546   1.664   7.263   2.356
10117TIP3    H254547   1.690   7.408   2.325
10118TIP3   OH254548   0.342   7.455   1.835
10118TIP3    H154549   0.317   7.500   1.916
10118TIP3    H254550   0.432   7.427   1.850
10119TIP3   OH254551   3.107   6.645   2.542
10119TIP3    H154552   3.099   6.740   2.539
10119TIP3    H254553   3.041   6.614   2.479
10120TIP3   OH254554   3.329   6.897   2.816
10120TIP3    H154555   3.341   6.812   2.859
10120TIP3    H254556   3.306   6.956   2.888
10121TIP3   OH254557   2.059   6.424   2.321
10121TIP3    H154558   2.012   6.484   2.379
10121TIP3    H254559   1.992   6.386   2.265
10122TIP3   OH254560   1.926   6.697   2.738
10122TIP3    H154561   1.927   6.792   2.740
10122TIP3    H254562   1.924   6.671   2.830
10123TIP3   OH254563   3.082   7.375   2.710
10123TIP3    H154564   3.150   7.360   2.644
10123TIP3    H254565   3.123   7.353   2.793
10124TIP3   OH254566   3.098   6.382   3.002
10124TIP3    H154567   3.035   6.312   3.021
10124TIP3    H254568   3.091   6.394   2.907
10125TIP3   OH254569   2.525   5.993   2.684
10125TIP3    H154570   2.479   6.071   2.713
10125TIP3    H254571   2.473   5.960   2.610
10126TIP3   OH254572   3.267   6.049   2.608
10126TIP3    H154573   3.320   5.996   2.667
10126TIP3    H254574   3.293   6.139   2.627
10127TIP3   OH254575   2.135   6.238   2.759
10127TIP3    H154576   2.184   6.205   2.834
10127TIP3    H254577   2.202   6.265   2.695
10128TIP3   OH254578   2.459   6.479   2.667
10128TIP3    H154579   2.506   6.464   2.749
10128TIP3    H254580   2.427   6.393   2.641
10129TIP3   OH254581   3.072   6.905   2.449
10129TIP3    H154582   3.052   6.893   2.356
10129TIP3    H254583   3.021   6.982   2.474
10130TIP3   OH254584   3.436   5.932   2.790
10130TIP3    H154585   3.515   5.897   2.749
10130TIP3    H254586   3.465   6.010   2.837
10131TIP3   OH254587   2.300   6.122   2.943
10131TIP3    H154588   2.252   6.058   2.996
10131TIP3    H254589   2.362   6.162   3.003
10132TIP3   OH254590   2.000   6.927   2.291
10132TIP3    H154591   2.005   7.015   2.253
10132TIP3    H254592   1.995   6.942   2.386
10133TIP3   OH254593   3.224   7.249   2.495
10133TIP3    H154594   3.259   7.163   2.519
10133TIP3    H254595   3.299   7.308   2.502
10134TIP3   OH254596   3.314   6.999   2.560
10134TIP3    H154597   3.239   6.948   2.527
10134TIP3    H254598   3.328   6.965   2.648
10135TIP3   OH254599   2.953   6.564   2.324
10135TIP3    H154600   2.877   6.619   2.303
10135TIP3    H254601   3.010   6.573   2.248
10136TIP3   OH254602   2.986   6.450   1.959
10136TIP3    H154603   3.041   6.469   2.034
10136TIP3    H254604   3.032   6.380   1.912
10137TIP3   OH254605   3.322   6.598   2.370
10137TIP3    H154606   3.259   6.617   2.439
10137TIP3    H254607   3.387   6.542   2.412
10138TIP3   OH254608   2.467   6.679   2.474
10138TIP3    H154609   2.413   6.636   2.408
10138TIP3    H254610   2.469   6.618   2.548
10139TIP3   OH254611   3.187   6.492   2.152
10139TIP3    H154612   3.233   6.533   2.225
10139TIP3    H254613   3.239   6.514   2.075
10140TIP3   OH254614   2.961   7.155   2.499
10140TIP3    H154615   3.050   7.190   2.508
10140TIP3    H254616   2.914   7.222   2.449
10141TIP3   OH254617   3.544   5.681   2.177
10141TIP3    H154618   3.467   5.718   2.221
10141TIP3    H254619   3.572   5.750   2.116
10142TIP3   OH254620   2.310   6.554   2.274
10142TIP3    H154621   2.264   6.630   2.238
10142TIP3    H254622   2.241   6.491   2.294
10143TIP3   OH254623   3.730   7.101   1.949
10143TIP3    H154624   3.722   7.194   1.971
10143TIP3    H254625   3.820   7.079   1.971
10144TIP3   OH254626   1.937   7.221   2.749
10144TIP3    H154627   2.020   7.233   2.794
10144TIP3    H254628   1.878   7.187   2.816
10145TIP3   OH254629   2.856   7.385   2.386
10145TIP3    H154630   2.786   7.371   2.323
10145TIP3    H254631   2.844   7.475   2.416
10146TIP3   OH254632   2.294   7.484   2.548
10146TIP3    H154633   2.381   7.525   2.550
10146TIP3    H254634   2.266   7.483   2.640
10147TIP3   OH254635   3.185   7.414   2.010
10147TIP3    H154636   3.245   7.342   1.991
10147TIP3    H254637   3.162   7.402   2.102
10148TIP3   OH254638   3.103   7.360   2.270
10148TIP3    H154639   3.019   7.385   2.309
10148TIP3    H254640   3.148   7.309   2.338
10149TIP3   OH254641   3.326   6.553   1.925
10149TIP3    H154642   3.296   6.574   1.837
10149TIP3    H254643   3.417   6.585   1.928
10150TIP3   OH254644   2.873   5.981   2.027
10150TIP3    H154645   2.844   5.989   2.118
10150TIP3    H254646   2.823   5.907   1.993
10151TIP3   OH254647   2.367   6.228   2.578
10151TIP3    H154648   2.286   6.210   2.531
10151TIP3    H254649   2.436   6.218   2.512
10152TIP3   OH254650   3.016   6.330   2.459
10152TIP3    H154651   2.988   6.411   2.416
10152TIP3    H254652   3.082   6.293   2.400
10153TIP3   OH254653   3.108   6.420   2.717
10153TIP3    H154654   3.112   6.510   2.685
10153TIP3    H254655   3.064   6.372   2.647
10154TIP3   OH254656   2.510   6.044   1.918
10154TIP3    H154657   2.505   6.106   1.991
10154TIP3    H254658   2.419   6.034   1.890
10155TIP3   OH254659   1.960   6.050   2.636
10155TIP3    H154660   2.033   6.109   2.652
10155TIP3    H254661   1.957   6.040   2.541
10156TIP3   OH254662   2.087   5.895   2.149
10156TIP3    H154663   2.177   5.872   2.124
10156TIP3    H254664   2.062   5.965   2.089
10157TIP3   OH254665   2.799   5.987   2.674
10157TIP3    H154666   2.706   5.999   2.694
10157TIP3    H254667   2.841   5.988   2.760
10158TIP3   OH254668   2.134   6.192   2.447
10158TIP3    H154669   2.117   6.274   2.400
10158TIP3    H254670   2.080   6.127   2.402
10159TIP3   OH254671   2.535   6.191   2.364
10159TIP3    H154672   2.626   6.199   2.393
10159TIP3    H254673   2.535   6.231   2.277
10160TIP3   OH254674   2.515   6.259   2.095
10160TIP3    H154675   2.426   6.283   2.069
10160TIP3    H254676   2.571   6.322   2.049
10161TIP3   OH254677   2.403   5.847   2.482
10161TIP3    H154678   2.478   5.789   2.495
10161TIP3    H254679   2.408   5.874   2.391
10162TIP3   OH254680   2.745   6.738   2.245
10162TIP3    H154681   2.673   6.703   2.194
10162TIP3    H254682   2.704   6.794   2.311
10163TIP3   OH254683   3.132   6.076   2.014
10163TIP3    H154684   3.044   6.040   2.025
10163TIP3    H254685   3.155   6.112   2.100
10164TIP3   OH254686   3.197   6.226   2.254
10164TIP3    H154687   3.289   6.215   2.277
10164TIP3    H254688   3.192   6.313   2.214
10165TIP3   OH254689   2.967   6.891   2.185
10165TIP3    H154690   2.942   6.983   2.176
10165TIP3    H254691   2.885   6.845   2.202
10166TIP3   OH254692   3.630   6.295   2.094
10166TIP3    H154693   3.597   6.286   2.004
10166TIP3    H254694   3.657   6.386   2.100
10167TIP3   OH254695   3.483   7.081   2.352
10167TIP3    H154696   3.438   7.060   2.434
10167TIP3    H254697   3.476   7.002   2.299
10168TIP3   OH254698   3.386   6.640   2.930
10168TIP3    H154699   3.369   6.568   2.991
10168TIP3    H254700   3.437   6.600   2.860
10169TIP3   OH254701   2.597   7.129   2.591
10169TIP3    H154702   2.568   7.186   2.520
10169TIP3    H254703   2.541   7.152   2.665
10170TIP3   OH254704   2.130   6.541   1.990
10170TIP3    H154705   2.154   6.619   2.040
10170TIP3    H254706   2.035   6.534   2.001
10171TIP3   OH254707   2.603   6.910   2.409
10171TIP3    H154708   2.607   6.971   2.482
10171TIP3    H254709   2.550   6.837   2.442
10172TIP3   OH254710   2.486   7.313   2.412
10172TIP3    H154711   2.391   7.319   2.425
10172TIP3    H254712   2.520   7.395   2.447
10173TIP3   OH254713   3.357   6.937   2.012
10173TIP3    H154714   3.385   6.899   2.095
10173TIP3    H254715   3.271   6.899   1.996
10174TIP3   OH254716   3.713   7.369   2.013
10174TIP3    H154717   3.750   7.454   1.987
10174TIP3    H254718   3.624   7.391   2.043
10175TIP3   OH254719   3.443   6.820   2.244
10175TIP3    H154720   3.393   6.751   2.289
10175TIP3    H254721   3.535   6.796   2.257
10176TIP3   OH254722   2.674   7.043   1.907
10176TIP3    H154723   2.685   6.956   1.869
10176TIP3    H254724   2.645   7.027   1.996
10177TIP3   OH254725   2.570   7.036   2.163
10177TIP3    H154726   2.580   6.991   2.247
10177TIP3    H254727   2.601   7.125   2.179
10178TIP3   OH254728   2.175   6.762   2.156
10178TIP3    H154729   2.110   6.810   2.207
10178TIP3    H254730   2.232   6.830   2.121
10179TIP3   OH254731   3.131   5.980   2.387
10179TIP3    H154732   3.136   6.061   2.336
10179TIP3    H254733   3.175   6.000   2.469
10180TIP3   OH254734   2.905   7.158   2.159
10180TIP3    H154735   2.822   7.205   2.162
10180TIP3    H254736   2.972   7.226   2.171
10181TIP3   OH254737   2.794   6.168   2.464
10181TIP3    H154738   2.867   6.230   2.469
10181TIP3    H254739   2.798   6.118   2.545
10182TIP3   OH254740   2.914   5.830   2.480
10182TIP3    H154741   2.888   5.884   2.555
10182TIP3    H254742   2.994   5.872   2.448
10183TIP3   OH254743   2.661   7.300   2.201
10183TIP3    H154744   2.654   7.379   2.147
10183TIP3    H254745   2.590   7.308   2.265
10184TIP3   OH254746   2.500   5.943   2.235
10184TIP3    H154747   2.484   6.031   2.268
10184TIP3    H254748   2.595   5.933   2.237
10185TIP3   OH254749   3.355   6.296   2.702
10185TIP3    H154750   3.274   6.341   2.726
10185TIP3    H254751   3.389   6.262   2.785
10186TIP3   OH254752   2.325   6.963   2.045
10186TIP3    H154753   2.397   7.006   2.091
10186TIP3    H254754   2.369   6.907   1.980
10187TIP3   OH254755   2.255   6.296   2.009
10187TIP3    H154756   2.213   6.382   2.017
10187TIP3    H254757   2.182   6.235   1.998
10188TIP3   OH254758   1.968   7.057   2.529
10188TIP3    H154759   1.956   7.107   2.610
10188TIP3    H254760   1.972   7.124   2.461
10189TIP3   OH254761   2.870   7.219   1.825
10189TIP3    H154762   2.801   7.162   1.859
10189TIP3    H254763   2.950   7.168   1.836
10190TIP3   OH254764   3.344   7.203   1.936
10190TIP3    H154765   3.367   7.119   1.977
10190TIP3    H254766   3.414   7.217   1.871
10191TIP3   OH254767   2.447   6.773   1.891
10191TIP3    H154768   2.464   6.718   1.968
10191TIP3    H254769   2.532   6.783   1.850
10192TIP3   OH254770   3.103   6.850   1.950
10192TIP3    H154771   3.053   6.854   2.032
10192TIP3    H254772   3.054   6.788   1.896
10193TIP3   OH254773   2.528   6.622   2.110
10193TIP3    H154774   2.462   6.586   2.169
10193TIP3    H254775   2.576   6.545   2.078
10194TIP3   OH254776   2.693   6.440   1.975
10194TIP3    H154777   2.682   6.476   1.887
10194TIP3    H254778   2.788   6.439   1.989
10195TIP3   OH254779   3.584   6.659   1.867
10195TIP3    H154780   3.574   6.628   1.777
10195TIP3    H254781   3.575   6.754   1.860
10196TIP3   OH254782   2.671   7.540   2.067
10196TIP3    H154783   2.758   7.521   2.032
10196TIP3    H254784   2.651   7.628   2.034
10197TIP3   OH254785   2.081   7.024   1.930
10197TIP3    H154786   2.164   7.013   1.977
10197TIP3    H254787   2.065   6.938   1.890
10198TIP3   OH254788   1.899   7.401   2.545
10198TIP3    H154789   1.815   7.374   2.508
10198TIP3    H254790   1.912   7.344   2.621
10199TIP3   OH254791   3.702   6.743   2.285
10199TIP3    H154792   3.772   6.808   2.289
10199TIP3    H254793   3.723   6.681   2.356
10200TIP3   OH254794   3.743   6.536   2.462
10200TIP3    H154795   3.660   6.500   2.493
10200TIP3    H254796   3.795   6.548   2.542
10201TIP3   OH254797   3.773   6.870   3.010
10201TIP3    H154798   3.683   6.859   2.978
10201TIP3    H254799   3.770   6.952   3.059
10202TIP3   OH254800   3.709   6.555   2.088
10202TIP3    H154801   3.663   6.592   2.012
10202TIP3    H254802   3.699   6.621   2.156
10203TIP3   OH254803   3.555   6.262   1.825
10203TIP3    H154804   3.476   6.288   1.777
10203TIP3    H254805   3.557   6.167   1.817
10204TIP3   OH254806   3.489   6.409   2.490
10204TIP3    H154807   3.487   6.336   2.428
10204TIP3    H254808   3.449   6.374   2.570
10205TIP3   OH254809   3.509   5.991   1.786
10205TIP3    H154810   3.540   5.946   1.865
10205TIP3    H254811   3.416   5.972   1.782
10206TIP3   OH254812   3.469   6.198   2.305
10206TIP3    H154813   3.503   6.115   2.338
10206TIP3    H254814   3.527   6.222   2.233
10207TIP3   OH254815   3.465   6.172   2.927
10207TIP3    H154816   3.559   6.189   2.929
10207TIP3    H254817   3.428   6.233   2.991
10208TIP3   OH254818   3.555   5.944   2.395
10208TIP3    H154819   3.580   5.908   2.480
10208TIP3    H254820   3.480   5.891   2.367
10209TIP3   OH254821   3.635   5.867   1.997
10209TIP3    H154822   3.689   5.811   1.941
10209TIP3    H254823   3.695   5.934   2.030
10210TIP3   OH254824   1.953   5.998   2.365
10210TIP3    H154825   1.862   5.971   2.351
10210TIP3    H254826   2.001   5.957   2.293
10211TIP3   OH254827   3.432   7.420   2.517
10211TIP3    H154828   3.506   7.389   2.463
10211TIP3    H254829   3.471   7.436   2.603
10212TIP3   OH254830   3.635   5.809   2.630
10212TIP3    H154831   3.682   5.728   2.611
10212TIP3    H254832   3.699   5.864   2.675
10213TIP3   OH254833   2.126   5.614   2.143
10213TIP3    H154834   2.213   5.653   2.134
10213TIP3    H254835   2.069   5.688   2.162
10214TIP3   OH254836   2.649   5.741   2.565
10214TIP3    H154837   2.738   5.753   2.531
10214TIP3    H254838   2.639   5.810   2.630
10215TIP3   OH254839   3.331   5.795   2.314
10215TIP3    H154840   3.261   5.857   2.333
10215TIP3    H254841   3.288   5.709   2.320
10216TIP3   OH254842   2.001   7.215   2.294
10216TIP3    H154843   1.941   7.253   2.230
10216TIP3    H254844   2.057   7.289   2.320
10217TIP3   OH254845   2.334   5.785   2.079
10217TIP3    H154846   2.379   5.755   2.000
10217TIP3    H254847   2.400   5.837   2.125
10218TIP3   OH254848   2.773   5.967   2.280
10218TIP3    H154849   2.815   5.898   2.332
10218TIP3    H254850   2.776   6.044   2.336
10219TIP3   OH254851   2.910   7.453   1.966
10219TIP3    H154852   3.006   7.455   1.975
10219TIP3    H254853   2.892   7.373   1.916
10220TIP3   OH254854   3.609   7.327   2.325
10220TIP3    H154855   3.573   7.238   2.327
10220TIP3    H254856   3.567   7.367   2.249
10221TIP3   OH254857   2.233   7.386   1.865
10221TIP3    H154858   2.204   7.415   1.951
10221TIP3    H254859   2.305   7.325   1.883
10222TIP3   OH254860   4.778   6.607   2.442
10222TIP3    H154861   4.805   6.697   2.459
10222TIP3    H254862   4.684   6.607   2.460
10223TIP3   OH254863   4.320   6.910   2.752
10223TIP3    H154864   4.350   6.949   2.670
10223TIP3    H254865   4.397   6.911   2.809
10224TIP3   OH254866   3.851   6.313   2.335
10224TIP3    H154867   3.824   6.394   2.377
10224TIP3    H254868   3.789   6.300   2.264
10225TIP3   OH254869   3.911   6.557   2.679
10225TIP3    H154870   3.925   6.473   2.721
10225TIP3    H254871   3.992   6.606   2.694
10226TIP3   OH254872   4.357   6.010   2.648
10226TIP3    H154873   4.347   6.104   2.638
10226TIP3    H254874   4.283   5.972   2.600
10227TIP3   OH254875   5.180   6.079   2.585
10227TIP3    H154876   5.247   6.080   2.654
10227TIP3    H254877   5.219   6.129   2.513
10228TIP3   OH254878   3.958   6.305   2.779
10228TIP3    H154879   3.973   6.235   2.842
10228TIP3    H254880   3.982   6.268   2.694
10229TIP3   OH254881   4.355   6.487   2.707
10229TIP3    H154882   4.436   6.463   2.751
10229TIP3    H254883   4.326   6.407   2.663
10230TIP3   OH254884   4.840   6.887   2.461
10230TIP3    H154885   4.744   6.892   2.460
10230TIP3    H254886   4.869   6.978   2.472
10231TIP3   OH254887   5.359   6.099   2.808
10231TIP3    H154888   5.423   6.075   2.876
10231TIP3    H254889   5.346   6.193   2.820
10232TIP3   OH254890   3.907   6.929   2.266
10232TIP3    H154891   3.919   6.973   2.181
10232TIP3    H254892   3.899   7.001   2.329
10233TIP3   OH254893   4.552   5.677   2.826
10233TIP3    H154894   4.542   5.594   2.873
10233TIP3    H254895   4.493   5.737   2.871
10234TIP3   OH254896   4.976   7.207   2.770
10234TIP3    H154897   4.979   7.198   2.675
10234TIP3    H254898   5.036   7.280   2.789
10235TIP3   OH254899   4.877   6.408   2.038
10235TIP3    H154900   4.878   6.390   2.132
10235TIP3    H254901   4.936   6.343   2.000
10236TIP3   OH254902   4.490   6.594   2.486
10236TIP3    H154903   4.424   6.576   2.419
10236TIP3    H254904   4.451   6.567   2.568
10237TIP3   OH254905   4.710   7.252   2.716
10237TIP3    H154906   4.791   7.226   2.760
10237TIP3    H254907   4.728   7.240   2.623
10238TIP3   OH254908   5.431   5.670   2.192
10238TIP3    H154909   5.355   5.701   2.241
10238TIP3    H254910   5.461   5.748   2.144
10239TIP3   OH254911   4.285   6.544   2.306
10239TIP3    H154912   4.213   6.603   2.284
10239TIP3    H254913   4.245   6.456   2.304
10240TIP3   OH254914   5.581   7.094   1.984
10240TIP3    H154915   5.585   7.190   1.979
10240TIP3    H254916   5.671   7.066   1.970
10241TIP3   OH254917   4.792   7.476   2.342
10241TIP3    H154918   4.832   7.399   2.382
10241TIP3    H254919   4.737   7.513   2.411
10242TIP3   OH254920   4.139   7.150   2.518
10242TIP3    H154921   4.124   7.162   2.611
10242TIP3    H254922   4.052   7.151   2.479
10243TIP3   OH254923   5.106   7.372   2.061
10243TIP3    H154924   5.107   7.280   2.035
10243TIP3    H254925   5.103   7.369   2.157
10244TIP3   OH254926   5.131   7.361   2.336
10244TIP3    H154927   5.066   7.306   2.380
10244TIP3    H254928   5.197   7.378   2.403
10245TIP3   OH254929   4.368   5.875   2.896
10245TIP3    H154930   4.274   5.863   2.914
10245TIP3    H254931   4.370   5.927   2.816
10246TIP3   OH254932   4.782   5.966   2.053
10246TIP3    H154933   4.716   5.977   2.121
10246TIP3    H254934   4.742   5.906   1.990
10247TIP3   OH254935   4.293   6.267   2.554
10247TIP3    H154936   4.198   6.254   2.555
10247TIP3    H254937   4.317   6.258   2.462
10248TIP3   OH254938   4.872   6.383   2.316
10248TIP3    H154939   4.842   6.464   2.358
10248TIP3    H254940   4.959   6.368   2.353
10249TIP3   OH254941   4.469   6.039   1.924
10249TIP3    H154942   4.429   6.026   2.010
10249TIP3    H254943   4.409   6.097   1.878
10250TIP3   OH254944   3.831   5.936   2.764
10250TIP3    H154945   3.868   5.989   2.835
10250TIP3    H254946   3.904   5.883   2.733
10251TIP3   OH254947   3.794   6.076   2.075
10251TIP3    H154948   3.878   6.113   2.047
10251TIP3    H254949   3.736   6.152   2.082
10252TIP3   OH254950   4.613   5.902   2.669
10252TIP3    H154951   4.527   5.944   2.657
10252TIP3    H254952   4.596   5.832   2.732
10253TIP3   OH254953   4.026   6.209   2.528
10253TIP3    H154954   3.965   6.237   2.459
10253TIP3    H254955   4.044   6.117   2.508
10254TIP3   OH254956   4.371   6.246   2.288
10254TIP3    H154957   4.465   6.243   2.305
10254TIP3    H254958   4.363   6.278   2.198
10255TIP3   OH254959   4.368   6.325   2.028
10255TIP3    H154960   4.330   6.294   1.946
10255TIP3    H254961   4.454   6.360   2.003
10256TIP3   OH254962   4.603   6.441   2.812
10256TIP3    H154963   4.612   6.531   2.843
10256TIP3    H254964   4.691   6.416   2.782
10257TIP3   OH254965   4.127   5.953   2.486
10257TIP3    H154966   4.074   5.891   2.536
10257TIP3    H254967   4.128   5.918   2.398
10258TIP3   OH254968   4.602   6.856   2.170
10258TIP3    H154969   4.557   6.774   2.146
10258TIP3    H254970   4.604   6.855   2.265
10259TIP3   OH254971   5.019   6.001   2.182
10259TIP3    H154972   4.935   5.997   2.136
10259TIP3    H254973   5.054   6.088   2.161
10260TIP3   OH254974   5.149   6.243   2.136
10260TIP3    H154975   5.204   6.227   2.213
10260TIP3    H254976   5.212   6.255   2.064
10261TIP3   OH254977   4.158   6.679   2.744
10261TIP3    H154978   4.207   6.761   2.733
10261TIP3    H254979   4.221   6.610   2.726
10262TIP3   OH254980   4.833   6.915   2.031
10262TIP3    H154981   4.851   7.000   2.070
10262TIP3    H254982   4.756   6.883   2.078
10263TIP3   OH254983   5.531   6.262   2.080
10263TIP3    H154984   5.459   6.288   2.022
10263TIP3    H254985   5.557   6.343   2.124
10264TIP3   OH254986   5.387   7.085   2.184
10264TIP3    H154987   5.411   7.134   2.263
10264TIP3    H254988   5.468   7.079   2.134
10265TIP3   OH254989   4.388   7.044   2.512
10265TIP3    H154990   4.439   7.123   2.494
10265TIP3    H254991   4.297   7.071   2.502
10266TIP3   OH254992   3.983   6.515   2.068
10266TIP3    H154993   4.025   6.585   2.118
10266TIP3    H254994   3.890   6.525   2.087
10267TIP3   OH254995   4.568   6.853   2.440
10267TIP3    H154996   4.503   6.916   2.470
10267TIP3    H254997   4.534   6.768   2.467
10268TIP3   OH254998   4.485   7.311   2.492
10268TIP3    H154999   4.450   7.294   2.579
10268TIP3    H255000   4.535   7.392   2.502
10269TIP3   OH255001   5.591   7.369   1.992
10269TIP3    H155002   5.618   7.433   1.925
10269TIP3    H255003   5.510   7.406   2.028
10270TIP3   OH255004   4.590   7.031   1.845
10270TIP3    H155005   4.587   6.940   1.816
10270TIP3    H255006   4.549   7.030   1.932
10271TIP3   OH255007   4.478   7.087   2.099
10271TIP3    H155008   4.524   7.010   2.133
10271TIP3    H255009   4.521   7.161   2.141
10272TIP3   OH255010   4.095   6.729   2.212
10272TIP3    H155011   4.027   6.783   2.252
10272TIP3    H255012   4.153   6.792   2.170
10273TIP3   OH255013   5.012   5.914   2.443
10273TIP3    H155014   5.016   5.949   2.354
10273TIP3    H255015   5.066   5.973   2.495
10274TIP3   OH255016   4.854   7.155   2.158
10274TIP3    H155017   4.774   7.207   2.154
10274TIP3    H255018   4.880   7.158   2.250
10275TIP3   OH255019   4.639   6.236   2.369
10275TIP3    H155020   4.718   6.278   2.334
10275TIP3    H255021   4.625   6.278   2.454
10276TIP3   OH255022   4.754   5.816   2.455
10276TIP3    H155023   4.711   5.857   2.530
10276TIP3    H255024   4.843   5.851   2.457
10277TIP3   OH255025   4.607   7.296   2.232
10277TIP3    H155026   4.673   7.364   2.241
10277TIP3    H255027   4.574   7.282   2.321
10278TIP3   OH255028   4.347   5.991   2.170
10278TIP3    H155029   4.328   6.072   2.217
10278TIP3    H255030   4.430   5.960   2.206
10279TIP3   OH255031   4.237   6.930   2.075
10279TIP3    H155032   4.308   6.989   2.099
10279TIP3    H255033   4.274   6.873   2.008
10280TIP3   OH255034   4.012   6.221   1.994
10280TIP3    H155035   4.039   6.278   2.066
10280TIP3    H255036   4.008   6.279   1.918
10281TIP3   OH255037   3.884   7.165   2.413
10281TIP3    H155038   3.823   7.201   2.478
10281TIP3    H255039   3.886   7.230   2.343
10282TIP3   OH255040   4.784   7.222   1.846
10282TIP3    H155041   4.714   7.156   1.850
10282TIP3    H255042   4.864   7.171   1.836
10283TIP3   OH255043   5.222   7.118   1.964
10283TIP3    H155044   5.274   7.116   2.044
10283TIP3    H255045   5.276   7.166   1.901
10284TIP3   OH255046   4.342   6.750   1.899
10284TIP3    H155047   4.379   6.699   1.972
10284TIP3    H255048   4.415   6.761   1.839
10285TIP3   OH255049   4.884   6.829   1.776
10285TIP3    H155050   4.846   6.856   1.860
10285TIP3    H255051   4.926   6.745   1.795
10286TIP3   OH255052   4.464   6.628   2.111
10286TIP3    H155053   4.408   6.585   2.176
10286TIP3    H255054   4.515   6.556   2.073
10287TIP3   OH255055   4.610   6.443   1.968
10287TIP3    H155056   4.614   6.468   1.876
10287TIP3    H255057   4.701   6.431   1.994
10288TIP3   OH255058   5.451   6.646   2.011
10288TIP3    H155059   5.451   6.604   1.925
10288TIP3    H255060   5.438   6.739   1.992
10289TIP3   OH255061   4.608   7.593   1.937
10289TIP3    H155062   4.688   7.550   1.968
10289TIP3    H255063   4.626   7.686   1.947
10290TIP3   OH255064   3.987   7.002   1.991
10290TIP3    H155065   4.075   6.987   2.025
10290TIP3    H255066   3.965   6.920   1.947
10291TIP3   OH255067   3.821   7.473   2.424
10291TIP3    H155068   3.739   7.443   2.385
10291TIP3    H255069   3.823   7.433   2.510
10292TIP3   OH255070   3.778   7.335   2.654
10292TIP3    H155071   3.832   7.311   2.729
10292TIP3    H255072   3.700   7.377   2.693
10293TIP3   OH255073   5.604   6.503   2.193
10293TIP3    H155074   5.548   6.566   2.149
10293TIP3    H255075   5.595   6.522   2.287
10294TIP3   OH255076   5.310   6.262   1.896
10294TIP3    H155077   5.334   6.292   1.808
10294TIP3    H255078   5.331   6.168   1.896
10295TIP3   OH255079   4.027   6.783   2.975
10295TIP3    H155080   3.936   6.809   2.988
10295TIP3    H255081   4.028   6.744   2.887
10296TIP3   OH255082   5.362   5.994   1.871
10296TIP3    H155083   5.412   5.950   1.940
10296TIP3    H255084   5.273   5.960   1.881
10297TIP3   OH255085   5.305   6.186   2.357
10297TIP3    H155086   5.371   6.117   2.362
10297TIP3    H255087   5.340   6.257   2.410
10298TIP3   OH255088   5.442   5.934   2.404
10298TIP3    H155089   5.481   5.884   2.475
10298TIP3    H255090   5.365   5.884   2.378
10299TIP3   OH255091   3.727   6.234   2.929
10299TIP3    H155092   3.796   6.173   2.954
10299TIP3    H255093   3.770   6.297   2.871
10300TIP3   OH255094   5.542   5.867   2.038
10300TIP3    H155095   5.581   5.826   1.961
10300TIP3    H255096   5.605   5.935   2.063
10301TIP3   OH255097   3.818   5.904   2.286
10301TIP3    H155098   3.734   5.913   2.333
10301TIP3    H255099   3.816   5.973   2.221
10302TIP3   OH255100   5.331   7.446   2.507
10302TIP3    H155101   5.396   7.479   2.445
10302TIP3    H255102   5.335   7.506   2.581
10303TIP3   OH255103   4.174   7.148   2.799
10303TIP3    H155104   4.197   7.056   2.795
10303TIP3    H255105   4.257   7.194   2.784
10304TIP3   OH255106   4.435   7.249   2.761
10304TIP3    H155107   4.526   7.221   2.749
10304TIP3    H255108   4.435   7.300   2.841
10305TIP3   OH255109   5.582   5.791   2.595
10305TIP3    H155110   5.655   5.730   2.584
10305TIP3    H255111   5.622   5.869   2.634
10306TIP3   OH255112   3.990   5.755   2.614
10306TIP3    H155113   3.915   5.698   2.598
10306TIP3    H255114   4.066   5.697   2.610
10307TIP3   OH255115   3.950   5.720   2.134
10307TIP3    H155116   4.016   5.772   2.088
10307TIP3    H255117   3.909   5.781   2.195
10308TIP3   OH255118   4.634   5.578   2.578
10308TIP3    H155119   4.672   5.655   2.535
10308TIP3    H255120   4.608   5.609   2.664
10309TIP3   OH255121   5.228   5.747   2.362
10309TIP3    H155122   5.152   5.798   2.390
10309TIP3    H255123   5.200   5.656   2.369
10310TIP3   OH255124   3.925   7.357   2.193
10310TIP3    H155125   3.847   7.356   2.138
10310TIP3    H255126   3.902   7.415   2.266
10311TIP3   OH255127   4.147   5.876   2.007
10311TIP3    H155128   4.202   5.820   1.952
10311TIP3    H255129   4.209   5.918   2.067
10312TIP3   OH255130   4.607   5.976   2.270
10312TIP3    H155131   4.648   5.913   2.329
10312TIP3    H255132   4.621   6.061   2.312
10313TIP3   OH255133   4.828   7.445   2.001
10313TIP3    H155134   4.915   7.435   2.039
10313TIP3    H255135   4.813   7.363   1.953
10314TIP3   OH255136   5.518   7.530   2.319
10314TIP3    H155137   5.469   7.503   2.242
10314TIP3    H255138   5.545   7.620   2.300
10315TIP3   OH255139   4.065   7.340   1.943
10315TIP3    H155140   4.023   7.334   2.029
10315TIP3    H255141   4.142   7.285   1.950
10316TIP3   OH255142   6.944   6.777   2.607
10316TIP3    H155143   6.919   6.708   2.669
10316TIP3    H255144   6.881   6.847   2.622
10317TIP3   OH255145   6.884   6.563   2.770
10317TIP3    H155146   6.810   6.545   2.828
10317TIP3    H255147   6.895   6.482   2.720
10318TIP3   OH255148   5.744   6.595   2.658
10318TIP3    H155149   5.686   6.641   2.718
10318TIP3    H255150   5.691   6.579   2.580
10319TIP3   OH255151   6.232   6.110   2.691
10319TIP3    H155152   6.222   6.176   2.622
10319TIP3    H255153   6.196   6.030   2.654
10320TIP3   OH255154   7.091   6.145   2.578
10320TIP3    H155155   7.104   6.118   2.669
10320TIP3    H255156   7.148   6.087   2.528
10321TIP3   OH255157   5.998   6.258   2.753
10321TIP3    H155158   6.083   6.215   2.758
10321TIP3    H255159   5.965   6.236   2.665
10322TIP3   OH255160   7.119   6.080   2.841
10322TIP3    H155161   7.131   5.997   2.887
10322TIP3    H255162   7.155   6.146   2.901
10323TIP3   OH255163   5.785   7.007   2.253
10323TIP3    H155164   5.790   7.089   2.203
10323TIP3    H255165   5.798   7.034   2.344
10324TIP3   OH255166   6.683   6.586   2.359
10324TIP3    H155167   6.611   6.647   2.345
10324TIP3    H255168   6.748   6.611   2.293
10325TIP3   OH255169   6.720   6.542   1.952
10325TIP3    H155170   6.771   6.575   2.026
10325TIP3    H255171   6.776   6.474   1.913
10326TIP3   OH255172   7.072   6.668   2.387
10326TIP3    H155173   7.031   6.711   2.462
10326TIP3    H255174   7.103   6.584   2.422
10327TIP3   OH255175   6.481   7.068   2.758
10327TIP3    H155176   6.572   7.038   2.761
10327TIP3    H255177   6.433   6.991   2.726
10328TIP3   OH255178   6.895   6.633   2.177
10328TIP3    H155179   6.960   6.651   2.245
10328TIP3    H255180   6.944   6.645   2.095
10329TIP3   OH255181   7.352   5.677   2.126
10329TIP3    H155182   7.270   5.707   2.166
10329TIP3    H255183   7.392   5.757   2.092
10330TIP3   OH255184   6.075   6.579   2.279
10330TIP3    H155185   6.022   6.654   2.251
10330TIP3    H255186   6.012   6.518   2.317
10331TIP3   OH255187   7.470   7.132   1.964
10331TIP3    H155188   7.488   7.219   1.999
10331TIP3    H255189   7.487   7.140   1.870
10332TIP3   OH255190   5.783   7.069   3.017
10332TIP3    H155191   5.848   7.007   3.050
10332TIP3    H255192   5.821   7.155   3.036
10333TIP3   OH255193   6.060   7.254   2.565
10333TIP3    H155194   6.038   7.267   2.657
10333TIP3    H255195   5.992   7.195   2.532
10334TIP3   OH255196   6.828   7.244   2.058
10334TIP3    H155197   6.919   7.254   2.029
10334TIP3    H255198   6.834   7.193   2.139
10335TIP3   OH255199   7.017   6.642   1.933
10335TIP3    H155200   7.014   6.656   1.838
10335TIP3    H255201   7.066   6.561   1.943
10336TIP3   OH255202   6.670   5.859   2.157
10336TIP3    H155203   6.602   5.896   2.214
10336TIP3    H255204   6.623   5.832   2.078
10337TIP3   OH255205   6.170   6.295   2.503
10337TIP3    H155206   6.089   6.254   2.472
10337TIP3    H255207   6.228   6.292   2.427
10338TIP3   OH255208   6.884   6.367   2.313
10338TIP3    H155209   6.898   6.439   2.252
10338TIP3    H255210   6.935   6.295   2.276
10339TIP3   OH255211   6.885   6.313   2.644
10339TIP3    H155212   6.954   6.254   2.617
10339TIP3    H255213   6.836   6.265   2.711
10340TIP3   OH255214   6.362   6.029   1.932
10340TIP3    H155215   6.330   6.023   2.022
10340TIP3    H255216   6.296   6.082   1.887
10341TIP3   OH255217   5.659   6.056   2.645
10341TIP3    H155218   5.583   6.114   2.651
10341TIP3    H255219   5.685   6.061   2.553
10342TIP3   OH255220   5.719   6.069   2.102
10342TIP3    H155221   5.795   6.115   2.065
10342TIP3    H255222   5.648   6.133   2.096
10343TIP3   OH255223   6.510   6.135   2.683
10343TIP3    H155224   6.416   6.121   2.692
10343TIP3    H255225   6.550   6.062   2.730
10344TIP3   OH255226   5.950   6.123   2.499
10344TIP3    H155227   5.872   6.097   2.450
10344TIP3    H255228   6.000   6.042   2.509
10345TIP3   OH255229   6.340   6.244   2.294
10345TIP3    H155230   6.433   6.267   2.302
10345TIP3    H255231   6.316   6.273   2.206
10346TIP3   OH255232   6.267   6.300   2.040
10346TIP3    H155233   6.215   6.270   1.965
10346TIP3    H255234   6.331   6.360   2.001
10347TIP3   OH255235   6.607   6.395   2.681
10347TIP3    H155236   6.561   6.312   2.696
10347TIP3    H255237   6.627   6.428   2.768
10348TIP3   OH255238   6.115   5.899   2.542
10348TIP3    H155239   6.066   5.821   2.565
10348TIP3    H255240   6.189   5.867   2.490
10349TIP3   OH255241   6.483   6.760   2.294
10349TIP3    H155242   6.409   6.727   2.244
10349TIP3    H255243   6.444   6.817   2.360
10350TIP3   OH255244   6.933   5.942   2.112
10350TIP3    H155245   6.842   5.926   2.138
10350TIP3    H255246   6.952   6.030   2.145
10351TIP3   OH255247   7.057   6.192   2.185
10351TIP3    H155248   7.136   6.195   2.238
10351TIP3    H255249   7.079   6.242   2.106
10352TIP3   OH255250   6.845   6.910   2.095
10352TIP3    H155251   6.836   6.976   2.164
10352TIP3    H255252   6.829   6.827   2.140
10353TIP3   OH255253   7.524   6.337   2.184
10353TIP3    H155254   7.508   6.276   2.112
10353TIP3    H255255   7.554   6.417   2.142
10354TIP3   OH255256   7.368   7.100   2.230
10354TIP3    H155257   7.320   7.019   2.244
10354TIP3    H255258   7.397   7.097   2.139
10355TIP3   OH255259   6.330   7.220   2.546
10355TIP3    H155260   6.360   7.194   2.633
10355TIP3    H255261   6.236   7.235   2.557
10356TIP3   OH255262   5.841   6.532   2.059
10356TIP3    H155263   5.874   6.616   2.090
10356TIP3    H255264   5.760   6.518   2.108
10357TIP3   OH255265   6.415   6.965   2.466
10357TIP3    H155266   6.495   7.011   2.442
10357TIP3    H255267   6.351   7.034   2.481
10358TIP3   OH255268   7.107   6.987   2.054
10358TIP3    H155269   7.145   6.946   2.131
10358TIP3    H255270   7.015   6.959   2.055
10359TIP3   OH255271   7.508   7.396   2.058
10359TIP3    H155272   7.555   7.408   2.141
10359TIP3    H255273   7.419   7.425   2.078
10360TIP3   OH255274   7.242   6.848   2.252
10360TIP3    H155275   7.180   6.793   2.301
10360TIP3    H255276   7.323   6.798   2.253
10361TIP3   OH255277   6.453   7.038   1.904
10361TIP3    H155278   6.469   6.955   1.859
10361TIP3    H255279   6.478   7.021   1.995
10362TIP3   OH255280   6.525   6.999   2.159
10362TIP3    H155281   6.518   6.909   2.191
10362TIP3    H255282   6.555   7.049   2.235
10363TIP3   OH255283   5.921   6.782   2.166
10363TIP3    H155284   5.857   6.841   2.205
10363TIP3    H255285   5.985   6.840   2.125
10364TIP3   OH255286   6.856   6.037   2.461
10364TIP3    H155287   6.862   5.945   2.485
10364TIP3    H255288   6.940   6.074   2.486
10365TIP3   OH255289   6.626   6.186   2.440
10365TIP3    H155290   6.702   6.129   2.435
10365TIP3    H255291   6.584   6.163   2.523
10366TIP3   OH255292   6.617   5.846   2.540
10366TIP3    H155293   6.611   5.875   2.631
10366TIP3    H255294   6.708   5.817   2.531
10367TIP3   OH255295   6.251   5.990   2.182
10367TIP3    H155296   6.237   6.079   2.214
10367TIP3    H255297   6.325   5.957   2.233
10368TIP3   OH255298   6.078   6.969   2.030
10368TIP3    H155299   6.121   7.052   2.009
10368TIP3    H255300   6.131   6.903   1.985
10369TIP3   OH255301   5.877   6.260   1.983
10369TIP3    H155302   5.875   6.349   2.018
10369TIP3    H255303   5.826   6.264   1.902
10370TIP3   OH255304   6.054   5.597   2.851
10370TIP3    H155305   6.035   5.634   2.765
10370TIP3    H255306   6.149   5.588   2.854
10371TIP3   OH255307   5.814   7.139   2.494
10371TIP3    H155308   5.788   7.125   2.585
10371TIP3    H255309   5.771   7.221   2.469
10372TIP3   OH255310   6.603   7.270   1.901
10372TIP3    H155311   6.559   7.185   1.903
10372TIP3    H255312   6.682   7.258   1.955
10373TIP3   OH255313   7.086   7.240   1.946
10373TIP3    H155314   7.108   7.159   1.992
10373TIP3    H255315   7.153   7.247   1.878
10374TIP3   OH255316   6.215   6.773   1.900
10374TIP3    H155317   6.235   6.727   1.982
10374TIP3    H255318   6.300   6.782   1.857
10375TIP3   OH255319   6.767   6.963   1.833
10375TIP3    H155320   6.785   6.945   1.925
10375TIP3    H255321   6.752   6.876   1.795
10376TIP3   OH255322   6.294   6.644   2.129
10376TIP3    H155323   6.224   6.606   2.182
10376TIP3    H255324   6.336   6.569   2.087
10377TIP3   OH255325   6.448   6.485   1.953
10377TIP3    H155326   6.437   6.504   1.860
10377TIP3    H255327   6.540   6.504   1.971
10378TIP3   OH255328   7.371   6.614   1.895
10378TIP3    H155329   7.305   6.551   1.926
10378TIP3    H255330   7.334   6.700   1.917
10379TIP3   OH255331   5.834   7.013   1.913
10379TIP3    H155332   5.909   7.004   1.973
10379TIP3    H255333   5.820   6.924   1.880
10380TIP3   OH255334   5.686   7.387   2.485
10380TIP3    H155335   5.629   7.432   2.423
10380TIP3    H255336   5.632   7.372   2.562
10381TIP3   OH255337   5.757   7.167   2.759
10381TIP3    H155338   5.742   7.119   2.841
10381TIP3    H255339   5.839   7.214   2.774
10382TIP3   OH255340   7.485   6.711   2.296
10382TIP3    H155341   7.549   6.769   2.337
10382TIP3    H255342   7.457   6.653   2.367
10383TIP3   OH255343   7.408   6.559   2.517
10383TIP3    H155344   7.324   6.515   2.508
10383TIP3    H255345   7.411   6.586   2.609
10384TIP3   OH255346   7.585   6.579   2.068
10384TIP3    H155347   7.516   6.591   2.002
10384TIP3    H255348   7.555   6.631   2.143
10385TIP3   OH255349   7.421   6.192   1.970
10385TIP3    H155350   7.342   6.244   1.984
10385TIP3    H255351   7.438   6.198   1.876
10386TIP3   OH255352   7.174   6.418   2.482
10386TIP3    H155353   7.214   6.362   2.415
10386TIP3    H255354   7.122   6.357   2.535
10387TIP3   OH255355   5.700   6.732   2.930
10387TIP3    H155356   5.716   6.826   2.939
10387TIP3    H255357   5.767   6.691   2.986
10388TIP3   OH255358   7.247   5.954   1.815
10388TIP3    H155359   7.275   5.935   1.904
10388TIP3    H255360   7.153   5.936   1.814
10389TIP3   OH255361   7.303   6.239   2.317
10389TIP3    H155362   7.346   6.156   2.336
10389TIP3    H255363   7.368   6.289   2.268
10390TIP3   OH255364   7.238   6.266   3.013
10390TIP3    H155365   7.321   6.278   2.966
10390TIP3    H255366   7.256   6.196   3.075
10391TIP3   OH255367   7.225   5.937   2.449
10391TIP3    H155368   7.211   5.871   2.516
10391TIP3    H255369   7.190   5.898   2.369
10392TIP3   OH255370   7.447   5.927   2.041
10392TIP3    H155371   7.532   5.906   2.002
10392TIP3    H255372   7.437   6.021   2.025
10393TIP3   OH255373   5.707   6.029   2.373
10393TIP3    H155374   5.617   5.995   2.373
10393TIP3    H255375   5.724   6.052   2.281
10394TIP3   OH255376   6.468   7.326   2.843
10394TIP3    H155377   6.483   7.235   2.816
10394TIP3    H255378   6.389   7.322   2.897
10395TIP3   OH255379   7.257   5.672   2.868
10395TIP3    H155380   7.222   5.715   2.946
10395TIP3    H255381   7.207   5.590   2.861
10396TIP3   OH255382   5.986   5.655   2.583
10396TIP3    H155383   5.894   5.639   2.562
10396TIP3    H255384   6.028   5.570   2.568
10397TIP3   OH255385   5.835   5.747   2.130
10397TIP3    H155386   5.911   5.782   2.083
10397TIP3    H255387   5.798   5.822   2.176
10398TIP3   OH255388   6.446   5.631   2.583
10398TIP3    H155389   6.502   5.700   2.549
10398TIP3    H255390   6.473   5.619   2.674
10399TIP3   OH255391   6.886   5.771   2.553
10399TIP3    H155392   6.979   5.769   2.576
10399TIP3    H255393   6.850   5.691   2.591
10400TIP3   OH255394   7.129   5.796   2.233
10400TIP3    H155395   7.061   5.845   2.187
10400TIP3    H255396   7.086   5.716   2.263
10401TIP3   OH255397   5.798   7.264   2.146
10401TIP3    H155398   5.727   7.304   2.096
10401TIP3    H255399   5.865   7.332   2.151
10402TIP3   OH255400   6.057   5.867   2.012
10402TIP3    H155401   6.109   5.807   1.958
10402TIP3    H255402   6.121   5.906   2.072
10403TIP3   OH255403   6.480   5.958   2.334
10403TIP3    H155404   6.519   5.908   2.406
10403TIP3    H255405   6.502   6.049   2.353
10404TIP3   OH255406   7.359   7.348   2.352
10404TIP3    H155407   7.364   7.257   2.324
10404TIP3    H255408   7.314   7.393   2.280
10405TIP3   OH255409   6.070   7.408   1.911
10405TIP3    H155410   6.040   7.426   2.000
10405TIP3    H255411   6.117   7.325   1.918
10406TIP3   OH255412   7.631   6.421   2.427
10406TIP3    H155413   7.554   6.465   2.462
10406TIP3    H255414   7.599   6.376   2.348
10407TIP3   OH255415   7.473   7.539   2.510
10407TIP3    H155416   7.422   7.476   2.458
10407TIP3    H255417   7.515   7.486   2.578
10408TIP3   OH255418   7.617   7.385   2.689
10408TIP3    H155419   7.615   7.351   2.779
10408TIP3    H255420   7.699   7.433   2.683
10409TIP3   OH255421   0.060   6.633   2.894
10409TIP3    H155422   0.128   6.687   2.855
10409TIP3    H255423   0.082   6.631   2.988
10410TIP3   OH255424   7.464   6.313   2.853
10410TIP3    H155425   7.481   6.308   2.759
10410TIP3    H255426   7.551   6.326   2.892
10411TIP3   OH255427   7.458   6.004   2.316
10411TIP3    H155428   7.393   5.963   2.373
10411TIP3    H255429   7.445   5.961   2.232
10412TIP3   OH255430   1.684   7.557   2.205
10412TIP3    H155431   1.590   7.555   2.221
10412TIP3    H255432   1.708   7.649   2.210
10413TIP3   OH255433   0.216   7.480   2.533
10413TIP3    H155434   0.211   7.574   2.515
10413TIP3    H255435   0.282   7.472   2.602
10414TIP3   OH255436   1.647   7.479   2.800
10414TIP3    H155437   1.632   7.413   2.868
10414TIP3    H255438   1.742   7.494   2.802
10415TIP3   OH255439   0.505   7.631   2.271
10415TIP3    H155440   0.482   7.713   2.315
10415TIP3    H255441   0.591   7.609   2.307
10416TIP3   OH255442   0.317   7.572   2.081
10416TIP3    H155443   0.249   7.638   2.092
10416TIP3    H255444   0.386   7.598   2.141
10417TIP3   OH255445   1.417   7.561   2.289
10417TIP3    H155446   1.374   7.493   2.238
10417TIP3    H255447   1.423   7.526   2.378
10418TIP3   OH255448   2.611   7.397   2.767
10418TIP3    H155449   2.667   7.445   2.828
10418TIP3    H255450   2.532   7.377   2.817
10419TIP3   OH255451   3.494   7.494   2.129
10419TIP3    H155452   3.416   7.507   2.184
10419TIP3    H255453   3.519   7.582   2.102
10420TIP3   OH255454   3.554   7.470   2.759
10420TIP3    H155455   3.525   7.562   2.756
10420TIP3    H255456   3.512   7.434   2.837
10421TIP3   OH255457   2.091   7.480   2.372
10421TIP3    H155458   2.020   7.456   2.431
10421TIP3    H255459   2.169   7.482   2.427
10422TIP3   OH255460   2.113   7.511   2.094
10422TIP3    H155461   2.129   7.603   2.074
10422TIP3    H255462   2.118   7.505   2.189
10423TIP3   OH255463   2.568   7.540   2.536
10423TIP3    H155464   2.647   7.584   2.504
10423TIP3    H255465   2.594   7.502   2.620
10424TIP3   OH255466   3.393   7.437   2.981
10424TIP3    H155467   3.365   7.522   3.015
10424TIP3    H255468   3.312   7.390   2.965
10425TIP3   OH255469   3.301   7.560   2.315
10425TIP3    H155470   3.217   7.515   2.305
10425TIP3    H255471   3.337   7.527   2.397
10426TIP3   OH255472   4.628   7.502   2.804
10426TIP3    H155473   4.670   7.422   2.773
10426TIP3    H255474   4.569   7.473   2.875
10427TIP3   OH255475   5.364   7.485   2.092
10427TIP3    H155476   5.276   7.447   2.088
10427TIP3    H255477   5.349   7.580   2.091
10428TIP3   OH255478   4.447   7.401   2.991
10428TIP3    H155479   4.375   7.461   2.977
10428TIP3    H255480   4.429   7.361   3.076
10429TIP3   OH255481   3.962   7.567   2.876
10429TIP3    H155482   3.928   7.592   2.790
10429TIP3    H255483   3.947   7.472   2.880
10430TIP3   OH255484   3.877  -0.017   2.633
10430TIP3    H155485   3.862  -0.058   2.549
10430TIP3    H255486   3.871   0.077   2.615
10431TIP3   OH255487   3.777   7.631   1.986
10431TIP3    H155488   3.816   7.698   1.930
10431TIP3    H255489   3.705   7.676   2.030
10432TIP3   OH255490   4.604   7.556   2.529
10432TIP3    H155491   4.573   7.645   2.512
10432TIP3    H255492   4.623   7.555   2.623
10433TIP3   OH255493   5.037   7.622   2.305
10433TIP3    H155494   4.944   7.601   2.303
10433TIP3    H255495   5.081   7.538   2.320
10434TIP3   OH255496   6.448   7.564   2.702
10434TIP3    H155497   6.476   7.480   2.741
10434TIP3    H255498   6.378   7.594   2.760
10435TIP3   OH255499   7.262   7.495   2.139
10435TIP3    H155500   7.167   7.497   2.148
10435TIP3    H255501   7.289   7.587   2.143
10436TIP3   OH255502   6.273   7.609   2.910
10436TIP3    H155503   6.181   7.586   2.895
10436TIP3    H255504   6.288   7.590   3.003
10437TIP3   OH255505   5.945   7.473   2.438
10437TIP3    H155506   5.855   7.444   2.455
10437TIP3    H255507   5.999   7.408   2.483
10438TIP3   OH255508   5.979   7.480   2.164
10438TIP3    H155509   5.953   7.570   2.146
10438TIP3    H255510   5.977   7.473   2.259
10439TIP3   OH255511   6.995   7.561   2.203
10439TIP3    H155512   7.011   7.647   2.242
10439TIP3    H255513   6.954   7.510   2.274
   7.68049   7.68049  10.00000
