Title
55513
    1DOPE     N    1   3.667   3.711   7.238  0.3511  0.4901 -0.1163
    1DOPE   HN1    2   3.576   3.710   7.188 -0.2576 -0.7321  0.9483
    1DOPE   HN2    3   3.735   3.674   7.169 -0.9193  0.1969 -1.2351
    1DOPE   HN3    4   3.691   3.643   7.313  3.1628  1.2691 -0.2033
    1DOPE   C12    5   3.684   3.860   7.277  0.3997  0.5443  0.0600
    1DOPE  H12A    6   3.767   3.865   7.350  1.4454  1.8810 -1.1498
    1DOPE  H12B    7   3.585   3.874   7.326 -1.4724 -0.9583 -2.9767
    1DOPE   C11    8   3.694   3.946   7.149 -0.0294 -0.5139 -0.0061
    1DOPE  H11A    9   3.710   4.053   7.173 -0.5399  0.1125 -2.2290
    1DOPE  H11B   10   3.599   3.936   7.092 -0.9271  0.4224  1.2659
    1DOPE     P   11   3.953   3.924   7.093  0.0551  0.1135 -0.0929
    1DOPE   O13   12   3.979   3.868   7.228 -0.3661 -0.2715 -0.2053
    1DOPE   O14   13   3.960   4.070   7.073 -0.3519  0.3804  0.0361
    1DOPE   O11   14   4.027   3.846   6.980  0.5936 -0.6264  0.3519
    1DOPE   O12   15   3.801   3.885   7.068 -0.0534 -0.4441 -0.0742
    1DOPE    C1   16   3.950   3.763   6.890  0.7484  0.3032 -0.5580
    1DOPE    HA   17   3.870   3.824   6.842 -0.1596  0.1034  0.6660
    1DOPE    HB   18   3.901   3.677   6.940  1.2133  0.3994  0.0698
    1DOPE    C2   19   4.043   3.694   6.783  0.7891  0.6669 -0.7464
    1DOPE    HS   20   4.117   3.631   6.836 -1.3177 -1.8508 -0.5611
    1DOPE   O21   21   4.094   3.796   6.693  0.4192 -0.3277 -0.5417
    1DOPE   C21   22   4.205   3.767   6.640 -0.0919 -0.1469  0.7115
    1DOPE   O22   23   4.278   3.668   6.659 -0.1554  0.0383  0.0307
    1DOPE   C22   24   4.239   3.888   6.545 -0.8813 -0.1477  0.6974
    1DOPE   H2R   25   4.349   3.904   6.544 -0.6923 -1.1928  1.9481
    1DOPE   H2S   26   4.191   3.979   6.588 -1.4708 -0.5648  0.9354
    1DOPE    C3   27   3.963   3.590   6.704 -0.3811 -0.3479  0.2433
    1DOPE    HX   28   3.921   3.516   6.776  0.6576 -0.1926  1.0394
    1DOPE    HY   29   4.038   3.538   6.640  0.6300  0.4593  0.7382
    1DOPE   O31   30   3.854   3.650   6.633  0.2022 -0.6232  0.3553
    1DOPE   C31   31   3.761   3.564   6.597  0.3866 -0.3534  0.2013
    1DOPE   O32   32   3.764   3.448   6.622  0.2436  0.0534  0.0664
    1DOPE   C32   33   3.651   3.630   6.517 -0.1061 -0.4147  0.3034
    1DOPE   H2X   34   3.581   3.670   6.593 -0.4262 -0.7998  0.2164
    1DOPE   H2Y   35   3.700   3.715   6.464 -0.4682 -0.1356  0.4150
    1DOPE   C23   36   4.198   3.853   6.398 -0.4500 -0.6152  0.1901
    1DOPE   H3R   37   4.247   3.755   6.379  3.1300  0.8392  1.1608
    1DOPE   H3S   38   4.232   3.934   6.331  1.9701  1.4567  3.6471
    1DOPE   C24   39   4.044   3.827   6.382  0.1558  1.1036 -0.1914
    1DOPE   H4R   40   3.991   3.925   6.376 -0.7932  0.6413  0.4652
    1DOPE   H4S   41   4.002   3.764   6.463  0.2279 -1.5013 -2.0541
    1DOPE   C25   42   4.028   3.739   6.258  0.5946 -0.6630 -0.3717
    1DOPE   H5R   43   4.094   3.651   6.269  1.5041  0.1936  1.5978
    1DOPE   H5S   44   4.063   3.786   6.164 -2.0265  1.9767 -0.2039
    1DOPE   C26   45   3.878   3.704   6.237 -0.7555 -0.1362  0.3890
    1DOPE   H6R   46   3.819   3.798   6.238  0.0350  0.3648  0.9238
    1DOPE   H6S   47   3.839   3.638   6.317 -2.4256  1.3731  0.8880
    1DOPE   C27   48   3.846   3.627   6.111  0.1589 -0.3565 -0.2372
    1DOPE   H7R   49   3.906   3.679   6.033  1.7153  1.2768  1.9318
    1DOPE   H7S   50   3.736   3.625   6.097 -0.1542 -0.8327  1.9938
    1DOPE   C28   51   3.901   3.484   6.117 -0.0195  0.4522  0.2242
    1DOPE   H8R   52   3.820   3.440   6.179  0.7306  1.1689  1.7753
    1DOPE   H8S   53   3.989   3.473   6.184 -0.0052  0.1898  0.1625
    1DOPE   C29   54   3.907   3.415   5.988  0.6149  0.0474 -0.3517
    1DOPE   H9R   55   3.813   3.370   5.956  0.5222  0.2589 -0.3796
    1DOPE  C210   56   4.012   3.427   5.903  0.0718 -0.1765 -0.0633
    1DOPE  H10R   57   4.009   3.357   5.818 -2.3954  1.6347 -1.6291
    1DOPE  C211   58   4.137   3.500   5.933  0.4269 -0.4182 -0.0390
    1DOPE  H11R   59   4.190   3.459   6.022  0.8290 -0.9156 -0.5040
    1DOPE  H11S   60   4.127   3.610   5.940  3.0165 -0.0853 -0.6125
    1DOPE  C212   61   4.236   3.470   5.821  0.2174 -0.3862  0.2911
    1DOPE  H12R   62   4.205   3.520   5.727 -1.2596 -1.5816  0.1005
    1DOPE  H12S   63   4.247   3.362   5.798  0.9175 -0.5375  1.2527
    1DOPE  C213   64   4.375   3.526   5.866 -0.2161 -0.1507 -0.0765
    1DOPE  H13R   65   4.443   3.508   5.780 -1.3599 -3.8256 -0.3801
    1DOPE  H13S   66   4.424   3.475   5.951 -2.6624  0.6852  1.9400
    1DOPE  C214   67   4.375   3.681   5.895 -0.2544 -0.3487  0.5483
    1DOPE  H14R   68   4.327   3.705   5.992  1.7498 -0.7305  1.7005
    1DOPE  H14S   69   4.316   3.730   5.815  1.2250  0.6936  0.0473
    1DOPE  C215   70   4.524   3.746   5.894 -0.1675 -0.1408  1.1069
    1DOPE  H15R   71   4.572   3.723   5.992  0.8302  1.3228  0.9918
    1DOPE  H15S   72   4.516   3.856   5.878 -0.1285 -0.3862 -0.7164
    1DOPE  C216   73   4.617   3.695   5.772 -0.5314 -0.0553  0.0678
    1DOPE  H16R   74   4.538   3.690   5.693 -2.6302 -2.0209  2.1309
    1DOPE  H16S   75   4.650   3.590   5.784 -1.3134 -0.6884 -2.5167
    1DOPE  C217   76   4.733   3.783   5.744  0.4989 -0.4501 -0.1534
    1DOPE  H17R   77   4.711   3.886   5.711  3.5481  0.2603 -0.2968
    1DOPE  H17S   78   4.796   3.741   5.662 -1.9173 -1.4560 -1.5880
    1DOPE  C218   79   4.808   3.802   5.876 -0.5164 -0.0392  0.0254
    1DOPE  H18R   80   4.897   3.865   5.853 -1.1526 -0.0639 -2.8504
    1DOPE  H18S   81   4.848   3.710   5.924  2.8753  0.9752 -0.5556
    1DOPE  H18T   82   4.748   3.860   5.950 -1.2178  0.7199 -1.1154
    1DOPE   C33   83   3.576   3.522   6.438  0.3351  0.1125  0.2698
    1DOPE   H3X   84   3.523   3.450   6.505 -1.3725  0.6768 -0.4273
    1DOPE   H3Y   85   3.647   3.466   6.374  2.9087  2.6979  0.6565
    1DOPE   C34   86   3.469   3.594   6.359 -0.1479  0.4382  0.4610
    1DOPE   H4X   87   3.382   3.525   6.349 -0.9995  1.0219  3.0657
    1DOPE   H4Y   88   3.441   3.683   6.419  2.2028 -0.1590  2.5953
    1DOPE   C35   89   3.501   3.621   6.209  0.4899  0.6825 -0.7689
    1DOPE   H5X   90   3.514   3.519   6.168  0.3760 -0.6338  2.1823
    1DOPE   H5Y   91   3.582   3.697   6.210  0.4348  0.9236  3.4482
    1DOPE   C36   92   3.379   3.673   6.121  0.4744 -0.1447 -0.4731
    1DOPE   H6X   93   3.339   3.772   6.151  0.8249 -0.1216 -0.0786
    1DOPE   H6Y   94   3.294   3.601   6.125  1.4312 -1.3112 -0.3555
    1DOPE   C37   95   3.421   3.689   5.971  0.3520  0.3829  0.4693
    1DOPE   H7X   96   3.509   3.756   5.984 -1.1239  2.2370  1.4547
    1DOPE   H7Y   97   3.469   3.597   5.930 -0.0320 -0.0721  1.0198
    1DOPE   C38   98   3.314   3.741   5.872  0.3848 -0.2725  0.1783
    1DOPE   H8X   99   3.276   3.833   5.922 -0.2059  0.0736 -0.8756
    1DOPE   H8Y  100   3.226   3.672   5.867  0.4987 -0.3244 -2.2476
    1DOPE   C39  101   3.383   3.777   5.741  0.0596  0.4026  0.0105
    1DOPE   H9X  102   3.472   3.837   5.763  0.7388 -1.2647  2.2449
    1DOPE  C310  103   3.357   3.731   5.615  0.2453 -0.8483 -0.2502
    1DOPE  H10X  104   3.405   3.776   5.527  2.3969 -3.6478 -0.6717
    1DOPE  C311  105   3.250   3.637   5.581  0.5178  0.3092  0.4793
    1DOPE  H11X  106   3.195   3.607   5.673 -0.7772 -0.6616 -0.5713
    1DOPE  H11Y  107   3.171   3.676   5.513  0.9392 -1.2876 -0.9962
    1DOPE  C312  108   3.298   3.503   5.526  0.3497  0.4014 -0.2702
    1DOPE  H12X  109   3.353   3.446   5.605  0.9825  0.3116 -0.7684
    1DOPE  H12Y  110   3.377   3.522   5.451  2.1913 -0.7541  1.2839
    1DOPE  C313  111   3.183   3.415   5.470 -0.0868  0.5830  0.2376
    1DOPE  H13X  112   3.100   3.414   5.544 -0.0634  0.9639  0.2698
    1DOPE  H13Y  113   3.136   3.461   5.380  1.5902 -0.7244 -1.4015
    1DOPE  C314  114   3.221   3.268   5.441  0.9620  0.2137 -0.0098
    1DOPE  H14X  115   3.271   3.227   5.531 -0.5187 -0.0744  0.7105
    1DOPE  H14Y  116   3.295   3.276   5.358  2.3341  1.9024  1.2833
    1DOPE  C315  117   3.092   3.190   5.404 -0.0467 -0.7606 -0.8886
    1DOPE  H15X  118   3.051   3.238   5.313 -2.6556 -1.1473 -0.0111
    1DOPE  H15Y  119   3.029   3.213   5.493  2.3403  2.0330  0.2382
    1DOPE  C316  120   3.126   3.045   5.386 -0.0217  0.0071 -0.3226
    1DOPE  H16X  121   3.186   3.008   5.472  1.8836 -0.2481 -1.7026
    1DOPE  H16Y  122   3.192   3.029   5.298  0.2763  0.6581 -0.2271
    1DOPE  C317  123   3.000   2.959   5.362  0.0823 -0.4270  0.2023
    1DOPE  H17X  124   2.934   2.968   5.451  1.0117  1.0468  0.7770
    1DOPE  H17Y  125   2.939   3.002   5.279  0.5907 -1.2812 -0.6393
    1DOPE  C318  126   3.026   2.816   5.328 -0.2064 -0.3519  0.0642
    1DOPE  H18X  127   3.109   2.798   5.256  0.2300  0.4117  0.3650
    1DOPE  H18Y  128   3.046   2.761   5.423 -1.6496  0.9799  1.1718
    1DOPE  H18Z  129   2.939   2.764   5.282  0.3477 -0.3727 -0.9961
    2DOPE     N  130   4.509   3.570   6.790 -0.2367 -0.1806 -0.5541
    2DOPE   HN1  131   4.495   3.474   6.826  0.1604  0.5098  1.6293
    2DOPE   HN2  132   4.498   3.617   6.882 -1.9440 -0.7074 -0.4690
    2DOPE   HN3  133   4.429   3.595   6.729 -1.3012 -1.5440  0.2301
    2DOPE   C12  134   4.650   3.584   6.730  0.2202  0.2604 -0.2372
    2DOPE  H12A  135   4.651   3.514   6.645 -3.3719  1.3859 -1.3670
    2DOPE  H12B  136   4.723   3.550   6.807 -1.0370 -0.2488  0.7682
    2DOPE   C11  137   4.667   3.728   6.677  0.6699 -0.6005 -0.8155
    2DOPE  H11A  138   4.576   3.760   6.622  0.5181  1.6297  0.5989
    2DOPE  H11B  139   4.754   3.746   6.610  0.0583  1.0638 -1.2121
    2DOPE     P  140   4.591   3.902   6.867 -0.7420 -0.2824 -0.0703
    2DOPE   O13  141   4.678   3.989   6.956  0.6306  0.1543  0.3823
    2DOPE   O14  142   4.480   3.819   6.924 -0.5532 -0.2549  0.5281
    2DOPE   O11  143   4.529   3.993   6.758 -0.3789 -0.2467 -0.6415
    2DOPE   O12  144   4.684   3.811   6.788 -0.1202  0.0748  0.0197
    2DOPE    C1  145   4.597   4.083   6.677  0.6226  0.9722  0.4856
    2DOPE    HA  146   4.557   4.079   6.574  0.0519  1.8206  0.6681
    2DOPE    HB  147   4.700   4.041   6.667  0.0781 -1.1656  2.6481
    2DOPE    C2  148   4.587   4.224   6.729 -0.0276 -0.1503  0.3268
    2DOPE    HS  149   4.596   4.210   6.839 -0.3389 -1.7084  0.1819
    2DOPE   O21  150   4.460   4.266   6.695 -0.1111  0.3807  0.1838
    2DOPE   C21  151   4.418   4.370   6.758  0.5186 -0.5585  0.2603
    2DOPE   O22  152   4.477   4.424   6.849 -0.2917  0.1400  0.0451
    2DOPE   C22  153   4.293   4.410   6.676 -0.8838  0.0811  0.2621
    2DOPE   H2R  154   4.226   4.322   6.680  1.3429 -1.7649 -0.6307
    2DOPE   H2S  155   4.317   4.443   6.572 -0.5703 -2.0897 -0.3933
    2DOPE    C3  156   4.705   4.324   6.692  0.4442  0.6648 -0.8265
    2DOPE    HX  157   4.795   4.271   6.729 -0.8746 -0.4333  0.9804
    2DOPE    HY  158   4.682   4.413   6.754  0.0893  0.6825 -0.9810
    2DOPE   O31  159   4.727   4.349   6.552  0.2344  0.9946 -0.7592
    2DOPE   C31  160   4.668   4.459   6.503  0.7259 -0.7899  0.4587
    2DOPE   O32  161   4.622   4.552   6.568 -0.1782 -0.3866  0.2207
    2DOPE   C32  162   4.646   4.434   6.351 -0.1901  0.1940  0.8233
    2DOPE   H2X  163   4.664   4.532   6.302  0.1449 -0.8401 -1.2293
    2DOPE   H2Y  164   4.719   4.361   6.308 -0.2753 -0.3255  1.5356
    2DOPE   C23  165   4.216   4.516   6.757  0.0989 -0.0146  0.3153
    2DOPE   H3R  166   4.280   4.596   6.800 -1.7983  2.0094 -0.4807
    2DOPE   H3S  167   4.145   4.478   6.832  0.4573  1.0445  1.2191
    2DOPE   C24  168   4.139   4.608   6.652 -0.2517 -0.1333  0.1561
    2DOPE   H4R  169   4.071   4.541   6.597  1.8575  0.5447 -3.6206
    2DOPE   H4S  170   4.202   4.650   6.571 -1.0774 -0.3299 -0.5955
    2DOPE   C25  171   4.060   4.720   6.715 -0.4088  0.3567 -0.6686
    2DOPE   H5R  172   4.133   4.795   6.753  1.0939 -1.7194  0.7895
    2DOPE   H5S  173   4.016   4.677   6.807  2.0943  0.5838  0.7345
    2DOPE   C26  174   3.944   4.786   6.632 -0.4728 -0.6142  0.3676
    2DOPE   H6R  175   3.880   4.846   6.700 -0.4411  0.5485 -0.5911
    2DOPE   H6S  176   3.875   4.702   6.608 -2.6842  0.4892  2.4005
    2DOPE   C27  177   3.989   4.866   6.510 -0.0695  0.6349 -0.4461
    2DOPE   H7R  178   4.055   4.811   6.441 -2.3059 -2.7875 -0.0880
    2DOPE   H7S  179   4.047   4.951   6.551  0.3362  0.6261 -0.9972
    2DOPE   C28  180   3.864   4.915   6.430 -0.0941 -0.2207 -0.0094
    2DOPE   H8R  181   3.789   4.953   6.503 -0.5494 -1.1768  0.0345
    2DOPE   H8S  182   3.820   4.821   6.392 -0.4432  0.3553 -1.0564
    2DOPE   C29  183   3.914   5.014   6.328  0.2604  0.1186  0.2194
    2DOPE   H9R  184   3.968   5.103   6.363 -0.3144  0.6912 -0.3195
    2DOPE  C210  185   3.906   4.986   6.199 -0.3621 -0.2170 -0.1049
    2DOPE  H10R  186   3.960   5.056   6.134  0.9922  1.4977  2.6965
    2DOPE  C211  187   3.860   4.863   6.123 -0.0474  0.0507 -0.6167
    2DOPE  H11R  188   3.874   4.779   6.195 -0.9713  1.5316  1.4001
    2DOPE  H11S  189   3.923   4.842   6.034  2.1208 -0.4838  0.9532
    2DOPE  C212  190   3.706   4.875   6.085  0.1261 -0.8220  0.0664
    2DOPE  H12R  191   3.647   4.896   6.176  0.4521  0.0989  0.0799
    2DOPE  H12S  192   3.687   4.771   6.051  2.8740 -1.3739 -0.0001
    2DOPE  C213  193   3.681   4.976   5.978 -0.0321  0.4355 -0.5544
    2DOPE  H13R  194   3.747   4.964   5.890  1.0645  0.5459  0.2412
    2DOPE  H13S  195   3.705   5.076   6.019  0.5729  0.8262 -1.7964
    2DOPE  C214  196   3.533   4.976   5.939  0.2813  0.3768 -0.4991
    2DOPE  H14R  197   3.505   4.868   5.941 -1.9711  0.9182 -0.2128
    2DOPE  H14S  198   3.513   5.025   5.842 -0.9809 -0.9277 -0.9257
    2DOPE  C215  199   3.444   5.064   6.034 -0.2824  0.3372 -0.6005
    2DOPE  H15R  200   3.510   5.149   6.062  0.0596 -0.3190  0.6208
    2DOPE  H15S  201   3.432   5.008   6.129 -2.2712  0.2511 -0.8748
    2DOPE  C216  202   3.308   5.099   5.970 -0.5001  0.2429 -0.2016
    2DOPE  H16R  203   3.246   5.006   5.964  0.6043 -0.4505 -1.3812
    2DOPE  H16S  204   3.326   5.134   5.866 -1.7752  0.8330 -0.2394
    2DOPE  C217  205   3.220   5.197   6.037 -0.2210 -0.1577 -0.8972
    2DOPE  H17R  206   3.145   5.233   5.963  0.2370  1.2396 -0.7163
    2DOPE  H17S  207   3.289   5.281   6.061  1.9498 -1.7355 -1.3363
    2DOPE  C218  208   3.137   5.149   6.158 -0.5351 -0.0874 -0.1108
    2DOPE  H18R  209   3.100   5.240   6.210 -0.5559 -0.7632  1.0740
    2DOPE  H18S  210   3.194   5.089   6.231 -2.0252 -0.0733  1.1271
    2DOPE  H18T  211   3.046   5.094   6.125 -0.9305  0.8264 -0.5901
    2DOPE   C33  212   4.500   4.395   6.330  0.3172  1.0551  0.0216
    2DOPE   H3X  213   4.446   4.476   6.383  0.1052  1.0988 -0.2567
    2DOPE   H3Y  214   4.465   4.293   6.357 -0.6149  1.2940 -0.2221
    2DOPE   C34  215   4.451   4.420   6.187 -0.1187  0.0245  0.1265
    2DOPE   H4X  216   4.488   4.514   6.140 -3.6002  0.6155 -1.8078
    2DOPE   H4Y  217   4.476   4.348   6.106  2.6028  2.3774 -1.2895
    2DOPE   C35  218   4.302   4.435   6.162  0.1466  0.7075 -0.0579
    2DOPE   H5X  219   4.260   4.494   6.247 -1.4879 -1.0456  0.4303
    2DOPE   H5Y  220   4.235   4.347   6.166 -0.7116  1.3708  0.6355
    2DOPE   C36  221   4.257   4.521   6.044  0.1551 -0.2420 -0.1672
    2DOPE   H6X  222   4.266   4.465   5.949 -1.1950  1.5793 -1.4373
    2DOPE   H6Y  223   4.328   4.606   6.035 -0.3061  0.0734 -0.9094
    2DOPE   C37  224   4.123   4.593   6.055  0.1971  0.4604 -0.2311
    2DOPE   H7X  225   4.062   4.541   6.131  0.4906  0.2126 -0.1595
    2DOPE   H7Y  226   4.124   4.695   6.097 -1.4144  0.0819  0.7781
    2DOPE   C38  227   4.033   4.598   5.926 -0.8161 -0.6608 -0.4819
    2DOPE   H8X  228   3.934   4.640   5.953 -0.6155 -1.2123  1.2861
    2DOPE   H8Y  229   4.009   4.491   5.905 -2.1419 -0.4667 -0.0337
    2DOPE   C39  230   4.093   4.674   5.809 -0.1686  0.3919 -0.5282
    2DOPE   H9X  231   4.090   4.783   5.825  0.7582  0.3764 -0.1898
    2DOPE  C310  232   4.137   4.621   5.696 -0.4522 -0.7258  0.7696
    2DOPE  H10X  233   4.183   4.688   5.622 -3.2641 -1.2834 -1.6793
    2DOPE  C311  234   4.139   4.480   5.657 -0.8278  0.3289 -0.2160
    2DOPE  H11X  235   4.247   4.457   5.666 -0.4395  1.4025 -1.8007
    2DOPE  H11Y  236   4.082   4.415   5.727  0.1205  0.8449  1.0621
    2DOPE  C312  237   4.108   4.449   5.507 -0.2249 -0.6240  0.1286
    2DOPE  H12X  238   4.127   4.339   5.517  2.8673 -0.1920  0.0641
    2DOPE  H12Y  239   4.183   4.492   5.438 -0.1069  1.6098  1.5660
    2DOPE  C313  240   3.960   4.484   5.459  0.9543 -0.3237 -0.2403
    2DOPE  H13X  241   3.895   4.472   5.549 -1.7130  0.7982 -1.9189
    2DOPE  H13Y  242   3.958   4.592   5.435  1.1992  0.1813  1.7666
    2DOPE  C314  243   3.903   4.400   5.347  0.6372 -0.1610 -0.1630
    2DOPE  H14X  244   3.827   4.459   5.293  2.7739  2.5160 -0.4402
    2DOPE  H14Y  245   3.842   4.331   5.410  0.0495 -0.3007 -0.8744
    2DOPE  C315  246   3.997   4.329   5.257  0.2854  0.3485  0.1569
    2DOPE  H15X  247   4.060   4.266   5.324 -0.8095 -1.1353 -0.1595
    2DOPE  H15Y  248   4.062   4.398   5.199  1.5895 -0.4477  0.6324
    2DOPE  C316  249   3.921   4.242   5.161 -0.8701  0.2541  0.4892
    2DOPE  H16X  250   3.912   4.300   5.067  0.4350  0.7171  0.6297
    2DOPE  H16Y  251   3.815   4.211   5.177 -0.3513 -1.3703  0.9912
    2DOPE  C317  252   3.999   4.114   5.125  0.8489 -0.1328  0.2921
    2DOPE  H17X  253   3.993   4.088   5.017  0.6268 -0.6742  0.4304
    2DOPE  H17Y  254   4.105   4.142   5.143  0.6624 -0.7366  2.6856
    2DOPE  C318  255   3.963   3.980   5.201  0.1919 -0.1633  0.2529
    2DOPE  H18X  256   4.023   3.973   5.295 -0.3035 -0.5432  0.5465
    2DOPE  H18Y  257   3.857   3.959   5.229  0.1557 -0.2508  0.0479
    2DOPE  H18Z  258   3.997   3.895   5.138 -0.7628  1.3593 -2.4663
    3DOPE     N  259   4.049   5.230   6.811  0.2989 -0.7744  0.0635
    3DOPE   HN1  260   4.133   5.277   6.772  1.0356 -2.7171 -0.8184
    3DOPE   HN2  261   4.004   5.288   6.884  0.2741 -0.9565  0.1917
    3DOPE   HN3  262   4.071   5.138   6.853 -0.3774 -1.3878 -0.8700
    3DOPE   C12  263   3.945   5.216   6.706 -0.0691 -0.0266 -0.5077
    3DOPE  H12A  264   3.967   5.126   6.644  0.5168 -0.8365  0.8222
    3DOPE  H12B  265   3.942   5.304   6.640  1.1907  0.4932  0.0880
    3DOPE   C11  266   3.808   5.205   6.776  0.8363 -0.3494 -0.5570
    3DOPE  H11A  267   3.810   5.115   6.841  1.4183 -1.3696 -1.9395
    3DOPE  H11B  268   3.728   5.184   6.701 -2.0394  0.1839  2.1682
    3DOPE     P  269   3.787   5.349   6.993  0.1693  0.2558  0.4739
    3DOPE   O13  270   3.735   5.478   7.030  0.5719  0.0431  0.0590
    3DOPE   O14  271   3.922   5.320   7.041  0.0503 -0.0837 -0.3172
    3DOPE   O11  272   3.700   5.230   7.041 -0.3030  0.6504  0.5414
    3DOPE   O12  273   3.784   5.333   6.841 -0.0272 -0.3574  0.2468
    3DOPE    C1  274   3.559   5.232   7.015  0.0930 -0.7060  0.9771
    3DOPE    HA  275   3.540   5.236   6.905 -2.2676  0.9684  1.3588
    3DOPE    HB  276   3.517   5.326   7.057  1.2177 -0.0398  0.6514
    3DOPE    C2  277   3.460   5.121   7.066  0.3806 -0.3696 -0.4071
    3DOPE    HS  278   3.484   5.099   7.172 -1.5908  2.6373  0.7939
    3DOPE   O21  279   3.471   5.005   6.981  0.3478  0.4805 -0.5160
    3DOPE   C21  280   3.569   4.923   6.995  0.4174 -0.3259 -0.1665
    3DOPE   O22  281   3.638   4.918   7.095  0.0713  0.5963  0.4328
    3DOPE   C22  282   3.581   4.828   6.873 -0.7138  0.1025  0.0891
    3DOPE   H2R  283   3.647   4.880   6.800  1.1022 -0.7792  1.0114
    3DOPE   H2S  284   3.482   4.806   6.827 -0.2002 -2.2720 -0.0422
    3DOPE    C3  285   3.311   5.165   7.055 -0.6390  0.6224  0.4710
    3DOPE    HX  286   3.311   5.246   7.131  2.3529 -0.3128  1.6099
    3DOPE    HY  287   3.240   5.085   7.085 -1.1406  1.4997  1.6778
    3DOPE   O31  288   3.297   5.213   6.914  0.4677  0.0691 -0.4804
    3DOPE   C31  289   3.175   5.197   6.865 -0.3332 -0.4903 -0.2632
    3DOPE   O32  290   3.079   5.148   6.923 -0.5595 -0.6590  0.5760
    3DOPE   C32  291   3.171   5.257   6.721  0.6337 -0.0497  0.0628
    3DOPE   H2X  292   3.065   5.266   6.691  1.4480 -0.2706 -3.2892
    3DOPE   H2Y  293   3.200   5.363   6.736 -1.1336  0.3287  1.0608
    3DOPE   C23  294   3.645   4.691   6.911  0.3997  0.6203  0.1957
    3DOPE   H3R  295   3.736   4.699   6.974  1.0016 -0.9816 -0.4242
    3DOPE   H3S  296   3.673   4.637   6.818  1.3088  0.9699  0.2616
    3DOPE   C24  297   3.548   4.601   6.989 -0.5853  0.0308  0.8548
    3DOPE   H4R  298   3.488   4.665   7.056  1.4585  2.6241  0.3434
    3DOPE   H4S  299   3.606   4.540   7.061 -0.0228 -0.9390 -0.3777
    3DOPE   C25  300   3.462   4.507   6.899 -0.1060 -0.3003 -0.0369
    3DOPE   H5R  301   3.421   4.427   6.964  0.4394  0.7376  1.6555
    3DOPE   H5S  302   3.527   4.461   6.822 -0.4076 -1.1417  0.2040
    3DOPE   C26  303   3.357   4.583   6.819  0.9406 -0.1684  0.2162
    3DOPE   H6R  304   3.401   4.647   6.740 -0.8832  1.4429  0.4452
    3DOPE   H6S  305   3.302   4.662   6.874  0.6309  0.6223 -1.1859
    3DOPE   C27  306   3.249   4.485   6.754  0.0806 -0.4709 -0.3752
    3DOPE   H7R  307   3.218   4.423   6.841 -2.8413  0.0135 -0.9763
    3DOPE   H7S  308   3.293   4.413   6.682  1.1508 -2.0407  1.7423
    3DOPE   C28  309   3.129   4.561   6.700 -0.3706 -0.5783  1.0488
    3DOPE   H8R  310   3.075   4.507   6.619 -0.0803  2.0647 -1.0703
    3DOPE   H8S  311   3.179   4.645   6.646  1.6568 -2.0470  0.5020
    3DOPE   C29  312   3.039   4.616   6.810 -1.2303  0.2922  0.5644
    3DOPE   H9R  313   3.018   4.540   6.886  0.4092 -1.8755 -1.0315
    3DOPE  C210  314   2.986   4.740   6.817 -0.3117 -0.3116  0.3527
    3DOPE  H10R  315   2.922   4.774   6.900 -1.7477  0.8949 -1.1646
    3DOPE  C211  316   3.001   4.849   6.706  0.0464  0.6992 -0.7133
    3DOPE  H11R  317   3.044   4.801   6.616  0.3721 -0.5110  0.0648
    3DOPE  H11S  318   3.076   4.924   6.740  0.5799 -0.5773  1.0543
    3DOPE  C212  319   2.872   4.918   6.669  0.3140 -0.4638 -0.8882
    3DOPE  H12R  320   2.893   4.996   6.592  1.4749  1.5767  1.3480
    3DOPE  H12S  321   2.850   4.976   6.762  0.2219 -0.2557 -1.0381
    3DOPE  C213  322   2.749   4.834   6.629  0.4099  0.2731 -0.4516
    3DOPE  H13R  323   2.741   4.740   6.688 -2.6651 -1.4446 -3.1978
    3DOPE  H13S  324   2.762   4.795   6.526 -0.0692  0.6649 -0.6666
    3DOPE  C214  325   2.622   4.920   6.638 -0.3613  0.1922 -0.4337
    3DOPE  H14R  326   2.612   4.946   6.745  0.9106  1.4238 -0.5994
    3DOPE  H14S  327   2.542   4.845   6.618 -0.7718  0.0040  1.6444
    3DOPE  C215  328   2.610   5.042   6.546 -0.0262  0.0069 -0.5360
    3DOPE  H15R  329   2.628   5.010   6.442  2.4262  0.4808 -0.3094
    3DOPE  H15S  330   2.696   5.110   6.564 -0.5123  0.0568  2.0065
    3DOPE  C216  331   2.477   5.115   6.558 -0.2116 -0.7537 -0.0855
    3DOPE  H16R  332   2.475   5.157   6.661  0.8868  0.9166 -0.6858
    3DOPE  H16S  333   2.403   5.036   6.537  2.8598 -3.3004 -2.3278
    3DOPE  C217  334   2.451   5.241   6.478  0.4310  0.7358  0.0312
    3DOPE  H17R  335   2.530   5.317   6.497 -0.2510  1.5047 -0.1304
    3DOPE  H17S  336   2.354   5.286   6.509 -0.0352  0.7090 -1.3043
    3DOPE  C218  337   2.446   5.223   6.330  0.0659 -0.2517  0.1264
    3DOPE  H18R  338   2.539   5.171   6.298 -0.0207 -0.5470  0.3446
    3DOPE  H18S  339   2.443   5.316   6.270 -0.9540 -0.2112  0.2250
    3DOPE  H18T  340   2.360   5.153   6.318  0.1265 -0.1940 -0.7713
    3DOPE   C33  341   3.255   5.184   6.613 -0.4195 -0.1217  0.5075
    3DOPE   H3X  342   3.215   5.086   6.579 -3.1578  0.7440  0.9793
    3DOPE   H3Y  343   3.348   5.183   6.673 -0.2871  1.3070  0.3680
    3DOPE   C34  344   3.296   5.267   6.491 -0.1916 -0.5515 -0.8847
    3DOPE   H4X  345   3.231   5.248   6.403 -1.0577  2.4300 -0.9836
    3DOPE   H4Y  346   3.269   5.374   6.505 -1.2882 -0.7707 -1.2341
    3DOPE   C35  347   3.442   5.261   6.452  0.3696  0.6504  0.3392
    3DOPE   H5X  348   3.473   5.158   6.425 -0.2573  0.9608 -1.8096
    3DOPE   H5Y  349   3.506   5.281   6.541  0.4846 -0.4632  0.5158
    3DOPE   C36  350   3.480   5.351   6.335 -0.4565  0.4905  0.6331
    3DOPE   H6X  351   3.470   5.459   6.358 -1.3545  0.6409 -0.3526
    3DOPE   H6Y  352   3.418   5.336   6.244  1.0159  2.0163 -0.6918
    3DOPE   C37  353   3.635   5.340   6.302 -0.6132  0.5481  0.0191
    3DOPE   H7X  354   3.669   5.234   6.297  1.2734  1.1415 -3.6802
    3DOPE   H7Y  355   3.662   5.383   6.203 -0.1920  0.9038  0.2827
    3DOPE   C38  356   3.734   5.412   6.398  0.5667  0.1595  0.0334
    3DOPE   H8X  357   3.721   5.378   6.503  0.2046 -0.0768 -0.0891
    3DOPE   H8Y  358   3.709   5.520   6.398 -0.3705 -0.0083  2.1996
    3DOPE   C39  359   3.877   5.406   6.364  0.5058 -0.3810 -0.5867
    3DOPE   H9X  360   3.928   5.320   6.411  1.3891 -0.5078 -1.7168
    3DOPE  C310  361   3.956   5.495   6.305  0.3195  0.0655  0.0728
    3DOPE  H10X  362   4.056   5.461   6.274 -0.1250  1.0441 -2.8307
    3DOPE  C311  363   3.919   5.637   6.249 -0.5406  0.3288  0.3689
    3DOPE  H11X  364   3.811   5.644   6.274 -0.1949  0.1166  1.9930
    3DOPE  H11Y  365   3.971   5.708   6.317  0.4739 -1.0258  1.0376
    3DOPE  C312  366   3.943   5.644   6.104 -0.3418  0.5252  0.4380
    3DOPE  H12X  367   4.031   5.582   6.076 -2.9503 -2.6732 -1.3944
    3DOPE  H12Y  368   3.978   5.744   6.069 -0.1271  0.0553 -0.7568
    3DOPE  C313  369   3.816   5.606   6.015 -0.0200  0.7411  0.2566
    3DOPE  H13X  370   3.791   5.502   6.042  0.3015  0.5630 -0.1222
    3DOPE  H13Y  371   3.735   5.675   6.048  0.3847  1.1006  0.5196
    3DOPE  C314  372   3.832   5.614   5.861  0.0069  0.6916 -0.6002
    3DOPE  H14X  373   3.850   5.721   5.840  2.2606  0.9580  2.0183
    3DOPE  H14Y  374   3.734   5.577   5.825 -0.0922  0.7625 -0.4050
    3DOPE  C315  375   3.938   5.526   5.799 -0.7248 -0.1718 -0.6967
    3DOPE  H15X  376   4.037   5.523   5.850 -0.1265  0.8932 -1.7682
    3DOPE  H15Y  377   3.966   5.565   5.699  1.7448 -0.1233 -0.0579
    3DOPE  C316  378   3.888   5.380   5.771 -0.4832  0.3921 -0.4208
    3DOPE  H16X  379   3.785   5.396   5.730 -0.5194  1.4426  0.0364
    3DOPE  H16Y  380   3.885   5.319   5.864 -0.8560 -0.8983 -1.2619
    3DOPE  C317  381   3.992   5.304   5.682 -0.1358 -0.1011 -0.2044
    3DOPE  H17X  382   4.093   5.328   5.722  0.2184  3.4389 -2.7506
    3DOPE  H17Y  383   3.972   5.196   5.696  0.3503 -0.1324  0.3047
    3DOPE  C318  384   3.978   5.347   5.534 -0.3470 -0.0269 -0.5631
    3DOPE  H18X  385   4.003   5.455   5.528  0.5884 -0.1248  1.1501
    3DOPE  H18Y  386   4.051   5.303   5.462 -1.1186  0.6528 -1.8061
    3DOPE  H18Z  387   3.872   5.326   5.508 -1.6864  1.3078  3.1627
    4DOPE     N  388   4.249   2.300   7.480  0.3999  0.7746  0.1412
    4DOPE   HN1  389   4.157   2.344   7.499 -1.5110 -2.4618 -0.8747
    4DOPE   HN2  390   4.243   2.201   7.511  2.3256 -0.1792 -2.2247
    4DOPE   HN3  391   4.312   2.349   7.547 -0.8112  1.5738  0.7365
    4DOPE   C12  392   4.280   2.322   7.329 -0.7458 -0.5383  0.0400
    4DOPE  H12A  393   4.373   2.268   7.299 -0.2481  2.0098 -3.8426
    4DOPE  H12B  394   4.313   2.428   7.329 -1.5705 -0.2670  0.9979
    4DOPE   C11  395   4.154   2.286   7.243  0.6999 -0.2096 -0.7555
    4DOPE  H11A  396   4.115   2.187   7.272 -0.4294 -0.1199 -1.8694
    4DOPE  H11B  397   4.186   2.277   7.137 -0.5952  0.2129 -1.2026
    4DOPE     P  398   4.035   2.524   7.185  0.5035  0.2991 -0.0984
    4DOPE   O13  399   4.169   2.584   7.183 -0.7305  0.1866  0.1651
    4DOPE   O14  400   3.928   2.605   7.244  0.1644 -0.0360  0.1605
    4DOPE   O11  401   3.990   2.492   7.038  0.1459  0.2941  0.1282
    4DOPE   O12  402   4.047   2.382   7.261 -0.1834 -0.3859  0.2620
    4DOPE    C1  403   3.911   2.365   7.032 -0.6676 -0.1027 -0.3473
    4DOPE    HA  404   3.829   2.364   7.106 -0.4230  3.2289  0.1195
    4DOPE    HB  405   3.973   2.277   7.057  0.0461  0.3740 -0.3860
    4DOPE    C2  406   3.855   2.335   6.888  0.3548 -0.6521 -0.6606
    4DOPE    HS  407   3.836   2.226   6.879  2.1276 -1.1219  0.6743
    4DOPE   O21  408   3.945   2.382   6.791 -0.2933  0.1691 -0.1414
    4DOPE   C21  409   4.065   2.331   6.785 -0.3371 -0.6712  0.1243
    4DOPE   O22  410   4.114   2.242   6.859 -0.3048 -0.4072 -0.3767
    4DOPE   C22  411   4.138   2.388   6.665 -0.4791 -0.2252  0.4459
    4DOPE   H2R  412   4.132   2.499   6.676 -0.7696 -0.3044  1.0936
    4DOPE   H2S  413   4.078   2.354   6.577 -2.3866 -1.9676  2.3122
    4DOPE    C3  414   3.719   2.406   6.877  0.0894 -0.0179  0.2842
    4DOPE    HX  415   3.725   2.515   6.901  1.6645  0.0005 -0.0763
    4DOPE    HY  416   3.651   2.360   6.951 -0.0927  0.1184  0.2037
    4DOPE   O31  417   3.666   2.382   6.746  0.4453  0.3910 -0.4387
    4DOPE   C31  418   3.652   2.487   6.661  0.2030  0.5486  0.2771
    4DOPE   O32  419   3.685   2.597   6.687  0.4736 -0.3922  0.4441
    4DOPE   C32  420   3.578   2.439   6.542  0.0608 -0.3415 -0.6443
    4DOPE   H2X  421   3.538   2.336   6.547  2.3385 -1.2489  0.8887
    4DOPE   H2Y  422   3.492   2.503   6.513 -0.7626 -0.9014  0.4719
    4DOPE   C23  423   4.285   2.345   6.659  0.4962 -0.3729  0.3523
    4DOPE   H3R  424   4.287   2.238   6.629  2.4384 -0.3916  0.4731
    4DOPE   H3S  425   4.338   2.354   6.756 -2.6939 -0.3575  2.2568
    4DOPE   C24  426   4.360   2.422   6.546  0.0507  0.2707 -0.5741
    4DOPE   H4R  427   4.360   2.527   6.582  0.5416 -0.2757  1.1366
    4DOPE   H4S  428   4.313   2.417   6.446  1.4969 -0.0461 -1.2720
    4DOPE   C25  429   4.506   2.375   6.544  0.6764  0.7929 -0.5068
    4DOPE   H5R  430   4.511   2.265   6.529 -0.7234  0.9241 -2.2603
    4DOPE   H5S  431   4.566   2.402   6.634 -0.6090  0.9126  0.3325
    4DOPE   C26  432   4.573   2.430   6.414 -0.3353  0.1669 -0.0594
    4DOPE   H6R  433   4.683   2.418   6.424 -0.6147 -0.5893  3.2816
    4DOPE   H6S  434   4.535   2.534   6.416 -0.1159  0.2336  0.7163
    4DOPE   C27  435   4.521   2.367   6.282 -0.1286  0.9309  0.5747
    4DOPE   H7R  436   4.412   2.389   6.271 -0.7098 -1.6758  0.4952
    4DOPE   H7S  437   4.535   2.257   6.289 -0.7092  0.6347 -1.8261
    4DOPE   C28  438   4.601   2.414   6.155  0.4396  0.0297 -0.0320
    4DOPE   H8R  439   4.707   2.381   6.159  0.0778 -1.0590  1.2453
    4DOPE   H8S  440   4.616   2.524   6.154  0.9942 -0.0400 -0.8913
    4DOPE   C29  441   4.536   2.358   6.033  0.0971  0.6891 -0.8271
    4DOPE   H9R  442   4.527   2.248   6.033  2.0246  0.4583 -3.0813
    4DOPE  C210  443   4.486   2.427   5.936 -0.0207 -1.2235  0.2289
    4DOPE  H10R  444   4.428   2.369   5.863 -1.7345 -0.7282  1.1610
    4DOPE  C211  445   4.475   2.578   5.924 -0.2773  0.7820 -0.0903
    4DOPE  H11R  446   4.514   2.622   5.829 -1.1739  0.1979 -0.7400
    4DOPE  H11S  447   4.522   2.633   6.009 -0.3236  1.5432 -0.5426
    4DOPE  C212  448   4.329   2.617   5.900  0.1733 -0.6634 -0.3683
    4DOPE  H12R  449   4.282   2.564   5.815  0.3908 -1.1985 -0.1586
    4DOPE  H12S  450   4.318   2.726   5.881  0.7558 -0.4944  0.2402
    4DOPE  C213  451   4.226   2.598   6.024 -1.1837  0.0169  0.1640
    4DOPE  H13R  452   4.208   2.489   6.039 -1.0815 -0.1670 -0.9401
    4DOPE  H13S  453   4.130   2.641   5.989 -0.8298  1.0265  0.3985
    4DOPE  C214  454   4.279   2.669   6.142 -0.3264 -0.0617 -0.3532
    4DOPE  H14R  455   4.285   2.772   6.101 -1.7215  0.9202  1.7441
    4DOPE  H14S  456   4.380   2.642   6.179 -0.2729  0.2787 -0.2407
    4DOPE  C215  457   4.175   2.649   6.253 -0.2535  0.0444  0.2258
    4DOPE  H15R  458   4.194   2.545   6.288  1.5012 -0.3076 -1.5591
    4DOPE  H15S  459   4.069   2.648   6.219 -0.4583 -1.4439  0.8062
    4DOPE  C216  460   4.205   2.737   6.379  0.2580  0.3509 -0.5494
    4DOPE  H16R  461   4.207   2.846   6.361  0.7070  0.4807  0.2438
    4DOPE  H16S  462   4.307   2.709   6.412 -0.3607 -0.4525  0.7407
    4DOPE  C217  463   4.120   2.715   6.499  0.1199  0.0722  0.4060
    4DOPE  H17R  464   4.103   2.606   6.507 -0.9795  0.2220  0.3124
    4DOPE  H17S  465   4.021   2.761   6.480  1.4368  3.3091  0.6020
    4DOPE  C218  466   4.178   2.769   6.632 -0.1837 -0.2125  0.3953
    4DOPE  H18R  467   4.183   2.879   6.624 -0.6216  0.1241  3.4740
    4DOPE  H18S  468   4.277   2.727   6.661 -0.5159 -1.4414 -0.1896
    4DOPE  H18T  469   4.116   2.733   6.717  0.5589 -0.8230  0.6969
    4DOPE   C33  470   3.675   2.443   6.423 -0.5623 -0.1292  0.0643
    4DOPE   H3X  471   3.729   2.539   6.407 -0.6417  0.5197  3.2027
    4DOPE   H3Y  472   3.616   2.418   6.332 -3.4243 -2.6344  2.4142
    4DOPE   C34  473   3.786   2.338   6.440 -0.1509 -1.0865 -0.1407
    4DOPE   H4X  474   3.828   2.340   6.543  0.2468 -0.9912 -0.3032
    4DOPE   H4Y  475   3.729   2.243   6.430 -0.4465 -0.8847 -0.3894
    4DOPE   C35  476   3.902   2.350   6.339  0.1643  0.0997  0.3019
    4DOPE   H5X  477   3.980   2.279   6.374  2.4852  1.8371 -1.0125
    4DOPE   H5Y  478   3.940   2.454   6.340 -0.3766  0.2961  0.6439
    4DOPE   C36  479   3.874   2.295   6.197 -0.0934  0.2552  0.1893
    4DOPE   H6X  480   3.817   2.201   6.214 -0.7120  0.3629 -1.2243
    4DOPE   H6Y  481   3.972   2.280   6.147 -0.2117  0.3994 -0.0865
    4DOPE   C37  482   3.789   2.390   6.104  0.4066  0.0200 -0.0285
    4DOPE   H7X  483   3.682   2.394   6.131  0.3821  2.5834 -0.2036
    4DOPE   H7Y  484   3.822   2.496   6.104 -0.2072  0.2309 -1.3460
    4DOPE   C38  485   3.813   2.350   5.953 -0.7940 -0.3192  0.3107
    4DOPE   H8X  486   3.915   2.381   5.922 -1.0597 -1.5192 -1.9337
    4DOPE   H8Y  487   3.749   2.417   5.892  1.6035  2.0209  0.1929
    4DOPE   C39  488   3.809   2.203   5.919 -0.5344 -0.5256 -0.1969
    4DOPE   H9X  489   3.722   2.145   5.951 -0.5215 -0.7326 -0.5290
    4DOPE  C310  490   3.903   2.126   5.857  0.2139 -0.7146  0.3932
    4DOPE  H10X  491   3.873   2.020   5.859  0.5470 -0.8089  2.7630
    4DOPE  C311  492   4.038   2.167   5.801 -0.9241  0.5559  0.4625
    4DOPE  H11X  493   4.080   2.261   5.843  1.5765 -0.5696  0.7142
    4DOPE  H11Y  494   4.121   2.102   5.839 -0.4158  0.7507 -0.3021
    4DOPE  C312  495   4.058   2.181   5.649 -0.4063  0.1761 -0.4019
    4DOPE  H12X  496   3.990   2.264   5.619  0.2968  0.7573 -0.4261
    4DOPE  H12Y  497   4.034   2.086   5.596 -1.9470  1.2890 -1.8207
    4DOPE  C313  498   4.196   2.229   5.617 -0.3255 -0.0888  0.2944
    4DOPE  H13X  499   4.203   2.330   5.663 -1.2014 -0.0629  0.3990
    4DOPE  H13Y  500   4.277   2.163   5.655 -1.8352 -0.7320  2.6639
    4DOPE  C314  501   4.216   2.235   5.461 -0.6493  0.1117 -0.3642
    4DOPE  H14X  502   4.314   2.286   5.448 -0.1751  0.3631  3.3311
    4DOPE  H14Y  503   4.138   2.297   5.410 -1.8073 -2.2345 -1.6002
    4DOPE  C315  504   4.223   2.095   5.388 -0.3974  0.1677  0.7021
    4DOPE  H15X  505   4.125   2.042   5.394  0.6646 -1.8527  0.9923
    4DOPE  H15Y  506   4.292   2.032   5.448  0.8685  1.3384  0.5290
    4DOPE  C316  507   4.260   2.115   5.243  0.2931  0.1481  0.5982
    4DOPE  H16X  508   4.336   2.046   5.200  1.0753  1.0947  0.4237
    4DOPE  H16Y  509   4.311   2.213   5.226 -0.3460  0.4345  0.2996
    4DOPE  C317  510   4.141   2.139   5.153  0.5096 -0.1513 -0.0021
    4DOPE  H17X  511   4.074   2.051   5.152  0.2045 -0.1487  4.0564
    4DOPE  H17Y  512   4.085   2.227   5.190  2.4544  0.4069  1.8620
    4DOPE  C318  513   4.182   2.194   5.014  0.1633 -0.3539 -0.4981
    4DOPE  H18X  514   4.290   2.168   5.007  0.2572 -1.1672  2.4916
    4DOPE  H18Y  515   4.132   2.150   4.926  2.3980 -0.6991 -1.6628
    4DOPE  H18Z  516   4.176   2.304   5.023  0.7251 -0.4297  1.3276
    5DOPE     N  517   1.915   4.108   7.126  0.0897 -0.2171 -0.9533
    5DOPE   HN1  518   2.005   4.083   7.171  0.3687  0.6573 -1.0039
    5DOPE   HN2  519   1.827   4.079   7.174 -0.7384  0.4555 -1.9980
    5DOPE   HN3  520   1.899   4.059   7.035 -1.9325 -0.0614 -0.7422
    5DOPE   C12  521   1.913   4.259   7.101 -0.7255 -0.3946 -0.1390
    5DOPE  H12A  522   2.013   4.287   7.060 -1.1174 -0.5399 -1.2301
    5DOPE  H12B  523   1.890   4.315   7.194 -1.0258  0.6123 -0.8081
    5DOPE   C11  524   1.809   4.291   6.997  0.3464  0.1541  0.9538
    5DOPE  H11A  525   1.812   4.208   6.923 -0.8131  1.4728 -0.6472
    5DOPE  H11B  526   1.844   4.386   6.950 -0.7176 -0.0833 -0.3637
    5DOPE     P  527   1.568   4.386   7.007  0.3209 -0.1060 -0.0462
    5DOPE   O13  528   1.613   4.526   7.033 -0.4419 -0.9805 -0.4504
    5DOPE   O14  529   1.438   4.354   7.066 -0.6361  0.2933  0.1315
    5DOPE   O11  530   1.571   4.370   6.850 -0.3940 -0.0915  0.0903
    5DOPE   O12  531   1.677   4.285   7.055 -0.4637 -0.5203 -0.0069
    5DOPE    C1  532   1.463   4.357   6.769 -0.9285  0.6347 -0.0948
    5DOPE    HA  533   1.411   4.455   6.765 -2.7712 -0.3497 -2.4696
    5DOPE    HB  534   1.387   4.284   6.807  0.0607  0.0329  0.7880
    5DOPE    C2  535   1.514   4.315   6.629  0.3174  0.4251 -0.3826
    5DOPE    HS  536   1.591   4.386   6.593  1.9630 -1.4763 -0.8020
    5DOPE   O21  537   1.402   4.298   6.545 -0.6365  0.1012 -0.4553
    5DOPE   C21  538   1.375   4.410   6.475 -0.1510  0.2286 -0.0806
    5DOPE   O22  539   1.445   4.511   6.483  0.4154 -0.2256 -0.0851
    5DOPE   C22  540   1.270   4.376   6.375  0.7412 -0.2411 -0.0700
    5DOPE   H2R  541   1.180   4.435   6.402  0.5239  0.1165 -1.4981
    5DOPE   H2S  542   1.243   4.269   6.390 -0.2197 -0.0865 -0.5487
    5DOPE    C3  543   1.579   4.179   6.645  0.4272 -0.0907 -0.4181
    5DOPE    HX  544   1.496   4.107   6.658  0.8615 -0.4345  0.5932
    5DOPE    HY  545   1.647   4.173   6.733 -0.6121 -2.0151  0.3229
    5DOPE   O31  546   1.647   4.135   6.525 -0.7283  0.2626 -1.0729
    5DOPE   C31  547   1.775   4.164   6.518 -0.0440  0.0196 -0.2471
    5DOPE   O32  548   1.839   4.224   6.610 -0.1468  0.2839  0.0501
    5DOPE   C32  549   1.832   4.116   6.387 -0.2168  0.4225 -0.4467
    5DOPE   H2X  550   1.820   4.005   6.385  1.4638  0.1891  0.3251
    5DOPE   H2Y  551   1.782   4.171   6.305  3.1469  2.0196 -1.5950
    5DOPE   C23  552   1.317   4.404   6.231  0.1870 -0.4768  0.6472
    5DOPE   H3R  553   1.359   4.505   6.214 -1.8137  0.1426 -1.1159
    5DOPE   H3S  554   1.226   4.397   6.168  1.3230 -0.1066 -1.0909
    5DOPE   C24  555   1.415   4.303   6.181  0.4471  0.6684 -0.3598
    5DOPE   H4R  556   1.380   4.203   6.213 -0.7453  1.1022 -0.2686
    5DOPE   H4S  557   1.507   4.325   6.240  1.0958  0.0662 -1.1163
    5DOPE   C25  558   1.449   4.305   6.037 -0.1831  0.2707  0.2188
    5DOPE   H5R  559   1.475   4.411   6.016 -0.7142  0.4230  0.3258
    5DOPE   H5S  560   1.355   4.281   5.982 -0.4265  1.0982  0.2531
    5DOPE   C26  561   1.567   4.220   5.993 -0.6782  0.2010 -0.2184
    5DOPE   H6R  562   1.561   4.114   6.024  1.6466  0.9283  3.3236
    5DOPE   H6S  563   1.662   4.265   6.030  0.6138  0.0907 -3.1255
    5DOPE   C27  564   1.600   4.225   5.846 -0.1425 -0.2668  0.3838
    5DOPE   H7R  565   1.618   4.332   5.826  1.1225 -0.1701  1.9306
    5DOPE   H7S  566   1.517   4.192   5.779  0.3994  0.8172 -0.8492
    5DOPE   C28  567   1.722   4.147   5.810  0.2480 -0.0958 -0.4394
    5DOPE   H8R  568   1.688   4.045   5.783  0.2982 -0.2814  0.1725
    5DOPE   H8S  569   1.796   4.140   5.893 -1.0156 -0.9350  0.6510
    5DOPE   C29  570   1.785   4.209   5.685  0.3171 -0.4609 -0.1808
    5DOPE   H9R  571   1.749   4.169   5.589 -2.2460  0.0445  0.5001
    5DOPE  C210  572   1.880   4.303   5.681  1.1664 -0.2178 -1.0448
    5DOPE  H10R  573   1.911   4.353   5.588  0.2880  0.3884 -1.0223
    5DOPE  C211  574   1.937   4.366   5.803  0.4623  0.6110 -0.2473
    5DOPE  H11R  575   1.902   4.319   5.897 -0.8662 -0.6164 -1.3156
    5DOPE  H11S  576   1.902   4.471   5.808  0.8731  0.9049 -2.4342
    5DOPE  C212  577   2.095   4.359   5.803  0.0430  0.3195 -0.6383
    5DOPE  H12R  578   2.134   4.256   5.817 -1.2379 -0.1052  0.0063
    5DOPE  H12S  579   2.115   4.404   5.902  0.0744 -0.7068 -0.1574
    5DOPE  C213  580   2.157   4.440   5.697 -0.4948 -0.2298  0.5595
    5DOPE  H13R  581   2.248   4.491   5.737  0.4070 -0.5967 -0.9622
    5DOPE  H13S  582   2.092   4.519   5.653 -0.3444 -0.2746  0.2559
    5DOPE  C214  583   2.212   4.354   5.578  0.0719 -0.7742 -0.2000
    5DOPE  H14R  584   2.136   4.284   5.539  0.2266 -1.6928  1.0665
    5DOPE  H14S  585   2.285   4.280   5.619  1.2897  0.4462 -0.0806
    5DOPE  C215  586   2.264   4.446   5.468 -0.2328  0.7907  0.4846
    5DOPE  H15R  587   2.334   4.514   5.521 -2.3645  2.9465  0.7103
    5DOPE  H15S  588   2.189   4.512   5.420 -0.6886  0.0580  0.1738
    5DOPE  C216  589   2.335   4.360   5.365 -0.3537  0.6848  0.1338
    5DOPE  H16R  590   2.262   4.314   5.296 -0.2987 -0.5355  0.8519
    5DOPE  H16S  591   2.385   4.278   5.422  0.1558  0.4603 -0.6280
    5DOPE  C217  592   2.434   4.436   5.280  0.2848 -0.7414  0.0339
    5DOPE  H17R  593   2.381   4.508   5.214 -0.3861 -0.0395  1.3012
    5DOPE  H17S  594   2.481   4.364   5.209 -0.4088 -0.4730 -0.7132
    5DOPE  C218  595   2.548   4.507   5.346 -0.6015 -0.2891  0.3045
    5DOPE  H18R  596   2.498   4.592   5.397 -0.5916  0.4152 -0.8281
    5DOPE  H18S  597   2.637   4.530   5.283  0.5238 -1.2585  1.4905
    5DOPE  H18T  598   2.600   4.453   5.428  2.2635  1.1895 -0.4010
    5DOPE   C33  599   1.985   4.134   6.361 -0.4578  0.4114 -0.3841
    5DOPE   H3X  600   2.004   4.091   6.260  2.0612 -0.3820  0.3359
    5DOPE   H3Y  601   2.051   4.070   6.424  2.5736  1.7891 -1.9547
    5DOPE   C34  602   2.039   4.271   6.369 -0.4613 -0.3424 -0.0658
    5DOPE   H4X  603   1.974   4.342   6.313 -0.6435  0.8934  1.6105
    5DOPE   H4Y  604   2.035   4.313   6.472  2.8293 -1.1396  0.4785
    5DOPE   C35  605   2.182   4.283   6.318  0.7035  0.2427  0.7389
    5DOPE   H5X  606   2.187   4.264   6.209  1.1148 -2.0212  1.1123
    5DOPE   H5Y  607   2.248   4.213   6.374  0.5106 -0.9218 -0.4323
    5DOPE   C36  608   2.244   4.418   6.349 -0.6366 -0.4286 -0.2495
    5DOPE   H6X  609   2.194   4.490   6.281 -0.0083 -1.0812 -1.4276
    5DOPE   H6Y  610   2.348   4.418   6.310  0.2939  3.5421  1.7195
    5DOPE   C37  611   2.264   4.453   6.499  0.3820  0.3275 -0.7029
    5DOPE   H7X  612   2.164   4.463   6.546  0.5018 -1.3944  0.0056
    5DOPE   H7Y  613   2.325   4.372   6.546  1.4346  1.3117 -0.3241
    5DOPE   C38  614   2.346   4.581   6.511  0.1554 -0.2577 -0.3766
    5DOPE   H8X  615   2.444   4.563   6.462 -0.3543  1.5552 -2.1776
    5DOPE   H8Y  616   2.360   4.601   6.620 -3.2447  2.6017 -0.2979
    5DOPE   C39  617   2.276   4.702   6.471 -0.0401 -0.3735  0.2941
    5DOPE   H9X  618   2.189   4.729   6.532 -1.5852 -2.8566 -0.6543
    5DOPE  C310  619   2.306   4.780   6.369 -1.0824 -0.0249  0.3207
    5DOPE  H10X  620   2.251   4.872   6.344 -2.1626 -0.6618  0.3033
    5DOPE  C311  621   2.424   4.753   6.275 -0.3698 -0.0045  0.1035
    5DOPE  H11X  622   2.519   4.793   6.315 -1.2424  1.0164  1.2376
    5DOPE  H11Y  623   2.430   4.643   6.261  0.6266  0.3084 -2.5182
    5DOPE  C312  624   2.400   4.811   6.133  0.1928  0.3902 -0.7266
    5DOPE  H12X  625   2.493   4.795   6.075  0.1710 -0.0056 -0.6553
    5DOPE  H12Y  626   2.398   4.920   6.150  2.3607 -0.0262  3.7307
    5DOPE  C313  627   2.271   4.770   6.059  0.4248  0.4304  0.4623
    5DOPE  H13X  628   2.274   4.666   6.023  0.6959  0.4094  0.5445
    5DOPE  H13Y  629   2.187   4.792   6.128  1.1348 -0.1040  1.5275
    5DOPE  C314  630   2.237   4.854   5.936 -0.5533  0.3921 -0.3273
    5DOPE  H14X  631   2.259   4.958   5.971  0.2453 -0.1051  0.6849
    5DOPE  H14Y  632   2.132   4.844   5.903 -0.7289 -1.1238  0.6072
    5DOPE  C315  633   2.329   4.820   5.821  0.5861 -0.3523 -0.0838
    5DOPE  H15X  634   2.340   4.711   5.803 -0.8549 -0.0559 -3.4602
    5DOPE  H15Y  635   2.432   4.856   5.843  0.5477  0.4802 -1.1790
    5DOPE  C316  636   2.283   4.885   5.687  0.6968  0.1711 -0.2074
    5DOPE  H16X  637   2.231   4.977   5.723 -0.7668 -0.9562  0.7016
    5DOPE  H16Y  638   2.211   4.818   5.635  1.8218 -0.9734 -0.3178
    5DOPE  C317  639   2.402   4.929   5.607  0.0784  0.2285 -0.1385
    5DOPE  H17X  640   2.363   5.010   5.542  0.0563  1.0960  0.9281
    5DOPE  H17Y  641   2.482   4.979   5.666  2.8808  0.8054 -4.0068
    5DOPE  C318  642   2.477   4.812   5.541  0.1640  0.1422  0.9264
    5DOPE  H18X  643   2.576   4.844   5.502  0.2260 -0.4353  0.5921
    5DOPE  H18Y  644   2.486   4.724   5.607  0.7467 -0.0167  0.6387
    5DOPE  H18Z  645   2.410   4.776   5.459  0.0849 -2.5417  2.0728
    6DOPE     N  646   2.441   4.676   7.052  0.6869  0.0695 -1.1540
    6DOPE   HN1  647   2.526   4.621   7.075  0.5026  0.5436  0.7717
    6DOPE   HN2  648   2.461   4.761   7.108 -0.5274  1.0036 -2.0848
    6DOPE   HN3  649   2.358   4.618   7.075  0.0598  1.9496  1.8329
    6DOPE   C12  650   2.421   4.705   6.908 -0.2414 -0.1371  0.5581
    6DOPE  H12A  651   2.389   4.617   6.848  1.4557  0.5407 -1.4957
    6DOPE  H12B  652   2.520   4.732   6.866 -0.5601 -0.3738 -0.3801
    6DOPE   C11  653   2.313   4.815   6.888 -0.1252 -0.1184  0.2334
    6DOPE  H11A  654   2.307   4.827   6.778  5.7385 -2.7395 -0.7743
    6DOPE  H11B  655   2.335   4.913   6.935 -1.0450  0.8234 -1.2164
    6DOPE     P  656   2.066   4.853   6.908 -0.1127 -0.1634  0.1775
    6DOPE   O13  657   2.107   4.985   6.953 -0.2669 -0.1175  0.1843
    6DOPE   O14  658   1.941   4.794   6.970 -0.3334  0.1584  0.3865
    6DOPE   O11  659   2.057   4.860   6.751 -0.3929  0.4244  0.3600
    6DOPE   O12  660   2.184   4.756   6.925  0.2246  0.1971  0.9817
    6DOPE    C1  661   1.949   4.943   6.702 -0.4550  0.5607 -0.3143
    6DOPE    HA  662   1.954   5.044   6.748 -0.7773 -0.2205  1.5167
    6DOPE    HB  663   1.845   4.914   6.729 -0.6390  1.7229  0.2868
    6DOPE    C2  664   1.960   4.982   6.549  0.1484  0.4831  0.4612
    6DOPE    HS  665   1.868   5.041   6.532  0.4204  1.3149  1.7155
    6DOPE   O21  666   1.972   4.865   6.463 -0.2628  0.4117  0.1022
    6DOPE   C21  667   1.861   4.802   6.444 -0.2758  0.4395  0.5466
    6DOPE   O22  668   1.751   4.836   6.485 -0.4396 -0.0070  0.0908
    6DOPE   C22  669   1.892   4.683   6.352  0.4547  0.7192 -0.0027
    6DOPE   H2R  670   1.968   4.621   6.404  0.1263  0.3399  0.0322
    6DOPE   H2S  671   1.943   4.714   6.258  1.1561  2.2840  0.8553
    6DOPE    C3  672   2.084   5.075   6.526 -0.1966 -0.1117 -0.4936
    6DOPE    HX  673   2.173   5.010   6.544 -1.1419 -1.2742  0.1221
    6DOPE    HY  674   2.095   5.138   6.617  0.5308 -1.4177  0.3523
    6DOPE   O31  675   2.084   5.157   6.407  0.0951 -0.1679  0.1345
    6DOPE   C31  676   1.998   5.256   6.415  0.3373  0.2081 -0.1426
    6DOPE   O32  677   1.923   5.280   6.509  0.5092  0.3343 -0.0920
    6DOPE   C32  678   2.014   5.345   6.297  0.2217 -0.2904  0.2355
    6DOPE   H2X  679   2.030   5.448   6.334  1.6890 -1.4022  3.0176
    6DOPE   H2Y  680   2.099   5.310   6.234 -0.1620 -0.9775  0.0850
    6DOPE   C23  681   1.765   4.598   6.331 -0.1009 -0.3149  0.2225
    6DOPE   H3R  682   1.708   4.577   6.424 -5.3512 -1.9362 -2.9061
    6DOPE   H3S  683   1.786   4.506   6.273 -1.5951 -1.3344  1.2434
    6DOPE   C24  684   1.655   4.669   6.240 -0.5425  0.4870  0.2929
    6DOPE   H4R  685   1.578   4.716   6.304 -0.8539  0.2492  0.0924
    6DOPE   H4S  686   1.595   4.586   6.198 -0.7081  0.1799  1.1237
    6DOPE   C25  687   1.711   4.765   6.133  0.3765  0.1578  0.1091
    6DOPE   H5R  688   1.778   4.842   6.176  1.5320 -1.2246  0.8439
    6DOPE   H5S  689   1.623   4.818   6.090  1.4164  1.2950 -0.7044
    6DOPE   C26  690   1.777   4.701   6.009 -0.0219 -1.1417 -0.8178
    6DOPE   H6R  691   1.697   4.632   5.973  0.3987 -1.0222 -1.9955
    6DOPE   H6S  692   1.857   4.634   6.046  1.5339  0.1078 -1.8306
    6DOPE   C27  693   1.832   4.809   5.908  0.7359  0.2851  0.5479
    6DOPE   H7R  694   1.895   4.883   5.961 -0.2274 -0.8119  3.4520
    6DOPE   H7S  695   1.743   4.868   5.876  1.4483  1.1138  0.0344
    6DOPE   C28  696   1.901   4.745   5.785 -1.1141  0.5044 -0.7049
    6DOPE   H8R  697   1.822   4.670   5.761 -2.7827  2.0280 -0.2336
    6DOPE   H8S  698   1.994   4.687   5.799  0.5714  2.7285 -2.0197
    6DOPE   C29  699   1.912   4.839   5.669 -0.3517  0.1414 -0.0790
    6DOPE   H9R  700   2.013   4.874   5.641 -0.1683 -0.2943  0.0339
    6DOPE  C210  701   1.812   4.872   5.589 -0.2550 -0.4632 -0.6986
    6DOPE  H10R  702   1.823   4.933   5.498  1.0145 -0.4046 -0.5300
    6DOPE  C211  703   1.668   4.816   5.603 -0.4431 -0.9280  0.4598
    6DOPE  H11R  704   1.638   4.768   5.699 -2.2157 -1.5247 -0.3397
    6DOPE  H11S  705   1.647   4.733   5.533 -0.2907  0.3683 -1.1733
    6DOPE  C212  706   1.570   4.935   5.571  0.3646  0.0834 -0.2072
    6DOPE  H12R  707   1.576   5.015   5.647  0.8437 -0.3547  0.2213
    6DOPE  H12S  708   1.467   4.903   5.597 -0.7414  3.0779 -0.4993
    6DOPE  C213  709   1.583   4.997   5.435 -0.2679  0.2101 -0.7027
    6DOPE  H13R  710   1.582   4.922   5.353 -1.0445 -0.3832 -0.1655
    6DOPE  H13S  711   1.674   5.060   5.430  0.5720 -0.9927 -0.8821
    6DOPE  C214  712   1.463   5.078   5.414  0.3473 -0.3620 -0.1496
    6DOPE  H14R  713   1.457   5.154   5.494 -0.5803  0.6089 -1.1157
    6DOPE  H14S  714   1.370   5.018   5.418  0.1909 -0.1495 -0.6036
    6DOPE  C215  715   1.452   5.142   5.277 -1.0354 -0.3295 -0.2309
    6DOPE  H15R  716   1.361   5.207   5.283 -0.1343  0.8961  0.6704
    6DOPE  H15S  717   1.426   5.078   5.190 -0.0903 -0.7963 -0.1721
    6DOPE  C216  718   1.583   5.236   5.246  0.1108  0.1122 -0.1009
    6DOPE  H16R  719   1.659   5.160   5.218 -0.5784 -1.2634  1.5942
    6DOPE  H16S  720   1.607   5.286   5.342 -2.5156 -1.2365  1.3699
    6DOPE  C217  721   1.559   5.333   5.131 -0.5790  0.1988 -0.0909
    6DOPE  H17R  722   1.481   5.405   5.165 -1.0579  0.3912 -1.5126
    6DOPE  H17S  723   1.522   5.291   5.035  0.1101 -0.6074 -0.0068
    6DOPE  C218  724   1.676   5.421   5.110  0.1807 -0.0179  0.0600
    6DOPE  H18R  725   1.720   5.465   5.202  0.0811 -1.0938  0.6375
    6DOPE  H18S  726   1.655   5.495   5.030 -0.8264 -1.8070 -1.4090
    6DOPE  H18T  727   1.742   5.349   5.056 -0.2691 -0.2572 -0.1731
    6DOPE   C33  728   1.889   5.351   6.212 -0.1393  0.4332 -0.6526
    6DOPE   H3X  729   1.894   5.446   6.156 -1.1070  0.3871 -0.8372
    6DOPE   H3Y  730   1.797   5.350   6.276  1.2231  0.8446  1.4137
    6DOPE   C34  731   1.879   5.235   6.113  0.5356  0.6198  0.0689
    6DOPE   H4X  732   1.872   5.147   6.180  0.1895  1.5027  1.2309
    6DOPE   H4Y  733   1.785   5.237   6.053  0.9296 -0.0377 -0.5993
    6DOPE   C35  734   1.979   5.211   6.007  0.1299 -0.8579  0.0995
    6DOPE   H5X  735   1.960   5.122   5.945 -0.7922  0.7922 -2.1092
    6DOPE   H5Y  736   2.078   5.188   6.053  0.0406  0.7444  1.1971
    6DOPE   C36  737   2.009   5.334   5.913  0.2795 -0.1428 -0.5180
    6DOPE   H6X  738   2.037   5.420   5.977 -2.5380 -0.4157  1.2521
    6DOPE   H6Y  739   1.911   5.353   5.864  0.4328  0.5012 -0.5786
    6DOPE   C37  740   2.110   5.290   5.806 -0.0472  0.3793  0.4818
    6DOPE   H7X  741   2.202   5.251   5.854  0.0258 -0.2318 -0.1408
    6DOPE   H7Y  742   2.057   5.215   5.743  0.0263  1.7979 -1.3753
    6DOPE   C38  743   2.129   5.406   5.710 -0.0346 -0.2111  0.0850
    6DOPE   H8X  744   2.132   5.497   5.774 -0.9298  0.2854 -0.5631
    6DOPE   H8Y  745   2.033   5.416   5.655  0.7609 -2.6377 -1.9224
    6DOPE   C39  746   2.263   5.406   5.629 -0.4426 -0.3503 -0.0528
    6DOPE   H9X  747   2.253   5.385   5.521  0.4038  0.5941 -0.3417
    6DOPE  C310  748   2.388   5.413   5.679 -0.4896  0.5491  0.1857
    6DOPE  H10X  749   2.465   5.409   5.601 -2.6160  0.1869 -2.0177
    6DOPE  C311  750   2.426   5.424   5.822  0.9133 -0.0629 -0.3839
    6DOPE  H11X  751   2.465   5.522   5.858  0.7616 -0.0725 -0.1892
    6DOPE  H11Y  752   2.343   5.396   5.890  0.9449  0.3737 -0.1602
    6DOPE  C312  753   2.552   5.340   5.855  1.2982  0.4005 -0.0409
    6DOPE  H12X  754   2.561   5.342   5.966  1.0710 -0.0582 -0.0129
    6DOPE  H12Y  755   2.636   5.376   5.792  1.1710  2.0445  0.6836
    6DOPE  C313  756   2.526   5.190   5.825  0.0133 -0.2071  0.1943
    6DOPE  H13X  757   2.441   5.161   5.891 -1.9308  2.3526 -1.0155
    6DOPE  H13Y  758   2.492   5.170   5.722 -0.3192 -0.0432  0.2721
    6DOPE  C314  759   2.640   5.094   5.856  0.4089 -0.0648  0.3977
    6DOPE  H14X  760   2.726   5.154   5.818 -0.7297  1.5728  0.2632
    6DOPE  H14Y  761   2.644   4.997   5.803 -0.6227  0.8021 -1.3707
    6DOPE  C315  762   2.659   5.071   6.008 -0.3592 -0.1587 -0.6842
    6DOPE  H15X  763   2.561   5.044   6.054 -0.4413  1.9083  0.4750
    6DOPE  H15Y  764   2.683   5.167   6.058  0.4743 -1.6243  1.9181
    6DOPE  C316  765   2.750   4.952   6.036 -0.9371  0.3011  0.2557
    6DOPE  H16X  766   2.845   4.982   5.986 -2.2741  1.9159 -1.4807
    6DOPE  H16Y  767   2.717   4.853   5.997 -1.3590 -0.2190  1.8763
    6DOPE  C317  768   2.792   4.937   6.181 -0.1362 -0.2155  0.4459
    6DOPE  H17X  769   2.817   5.037   6.224 -0.5824 -0.1721  0.6086
    6DOPE  H17Y  770   2.712   4.894   6.245 -0.9152  2.2214  1.2317
    6DOPE  C318  771   2.911   4.841   6.216  0.2164 -0.5015 -0.2269
    6DOPE  H18X  772   2.884   4.735   6.239  2.5105 -0.7778  1.6154
    6DOPE  H18Y  773   2.993   4.843   6.142  1.4769 -1.5334  1.0750
    6DOPE  H18Z  774   2.955   4.880   6.310 -0.0012  1.3190 -0.8367
    7DOPE     N  775   5.383   4.712   7.062  0.7410  0.2276  0.8102
    7DOPE   HN1  776   5.392   4.611   7.085  0.2657 -0.4509 -1.6832
    7DOPE   HN2  777   5.480   4.745   7.042 -0.4582  2.5265 -1.9467
    7DOPE   HN3  778   5.338   4.767   7.138  1.6451  2.3958 -0.1302
    7DOPE   C12  779   5.301   4.718   6.937  0.0480  0.7419  0.5404
    7DOPE  H12A  780   5.199   4.685   6.967  0.7923 -1.9527  0.4217
    7DOPE  H12B  781   5.336   4.641   6.865 -1.0267 -0.5297  1.3219
    7DOPE   C11  782   5.291   4.862   6.878 -0.2973 -0.5554 -0.7162
    7DOPE  H11A  783   5.228   4.860   6.786 -2.8908  1.8973  0.8285
    7DOPE  H11B  784   5.395   4.898   6.859 -1.2603  2.2975 -1.1383
    7DOPE     P  785   5.237   5.104   6.940  0.1489  0.2264  0.2313
    7DOPE   O13  786   5.369   5.154   6.994 -0.2351 -0.1140  0.0718
    7DOPE   O14  787   5.116   5.162   7.004  0.1436  0.0191 -0.3549
    7DOPE   O11  788   5.236   5.120   6.786 -0.3062  0.0576  0.1018
    7DOPE   O12  789   5.225   4.951   6.970  0.5829  0.6669 -0.6199
    7DOPE    C1  790   5.153   5.213   6.717  0.5733  0.5096 -0.3882
    7DOPE    HA  791   5.208   5.250   6.628  1.9315  2.3221  1.1314
    7DOPE    HB  792   5.130   5.299   6.784 -0.7567  0.4272 -0.7139
    7DOPE    C2  793   5.020   5.146   6.680 -0.6807 -0.6635 -0.1742
    7DOPE    HS  794   5.000   5.090   6.774  2.2386  0.8087  1.4806
    7DOPE   O21  795   5.044   5.061   6.566 -0.2759  0.3069 -0.0803
    7DOPE   C21  796   4.971   4.952   6.565 -0.2015 -1.0381 -0.4995
    7DOPE   O22  797   4.893   4.917   6.653  0.0984  0.2280  0.0069
    7DOPE   C22  798   4.987   4.891   6.433  0.1153  0.1568 -0.0362
    7DOPE   H2R  799   5.069   4.816   6.430 -0.7503 -0.9687  2.1819
    7DOPE   H2S  800   5.012   4.969   6.358  1.7643 -0.0283  0.2749
    7DOPE    C3  801   4.906   5.241   6.651  0.8153 -0.4511  0.2450
    7DOPE    HX  802   4.881   5.283   6.751  2.4364 -0.7385  0.8040
    7DOPE    HY  803   4.815   5.190   6.614  1.2480 -0.5905 -0.6319
    7DOPE   O31  804   4.948   5.346   6.564  0.0961 -0.4008  0.0618
    7DOPE   C31  805   4.922   5.336   6.437 -0.4931  0.5794 -0.5049
    7DOPE   O32  806   4.874   5.242   6.378  0.4341 -0.3982  0.4257
    7DOPE   C32  807   4.962   5.463   6.361 -0.1083  0.5554 -0.3401
    7DOPE   H2X  808   4.951   5.548   6.432  2.8063 -0.1440  1.1470
    7DOPE   H2Y  809   5.073   5.463   6.350 -0.2234  1.7918 -1.6501
    7DOPE   C23  810   4.858   4.819   6.392  0.0916  0.8203  0.0745
    7DOPE   H3R  811   4.772   4.889   6.381 -0.8115  0.3778  3.2858
    7DOPE   H3S  812   4.821   4.745   6.466  1.0554  1.6984  1.4764
    7DOPE   C24  813   4.870   4.747   6.259  0.1282 -0.2318  0.5034
    7DOPE   H4R  814   4.786   4.674   6.254  0.5976 -0.7531  0.0896
    7DOPE   H4S  815   4.964   4.688   6.269  0.8318  0.9711  1.2151
    7DOPE   C25  816   4.868   4.831   6.129  0.4834 -0.7487 -0.4810
    7DOPE   H5R  817   4.950   4.905   6.117 -0.1974  0.3477  1.2964
    7DOPE   H5S  818   4.773   4.885   6.146  1.2326  0.5221 -0.2186
    7DOPE   C26  819   4.844   4.747   6.006 -0.1758  0.1225 -0.1422
    7DOPE   H6R  820   4.756   4.681   6.021 -1.9287  2.6493  1.2974
    7DOPE   H6S  821   4.936   4.689   5.981 -0.9372 -0.1132 -2.6458
    7DOPE   C27  822   4.818   4.831   5.879  0.3808 -0.1465 -0.3470
    7DOPE   H7R  823   4.818   4.757   5.796  0.1410 -1.1766  0.5382
    7DOPE   H7S  824   4.898   4.905   5.859 -0.1785  0.4530 -0.3933
    7DOPE   C28  825   4.686   4.913   5.878  0.0456 -0.2241  0.0887
    7DOPE   H8R  826   4.607   4.837   5.900  0.8655 -0.6054  1.9202
    7DOPE   H8S  827   4.671   4.959   5.778  0.5403 -1.6327 -0.6505
    7DOPE   C29  828   4.668   5.034   5.969  0.1271  0.2732 -0.3655
    7DOPE   H9R  829   4.625   4.999   6.064  1.8546 -3.8019 -0.8474
    7DOPE  C210  830   4.678   5.166   5.938  0.4270  0.2134  0.5178
    7DOPE  H10R  831   4.675   5.231   6.027 -2.3683  1.4444 -0.3595
    7DOPE  C211  832   4.717   5.234   5.806 -0.1702 -0.3610  0.0645
    7DOPE  H11R  833   4.729   5.158   5.725 -1.0108 -0.3356 -0.0914
    7DOPE  H11S  834   4.806   5.300   5.814 -1.7040  1.6959  1.0634
    7DOPE  C212  835   4.602   5.320   5.756 -0.1174  0.4354  0.0606
    7DOPE  H12R  836   4.584   5.398   5.833  0.5727 -0.3996  1.0943
    7DOPE  H12S  837   4.508   5.262   5.754  0.1451  0.0092 -1.7216
    7DOPE  C213  838   4.622   5.375   5.612  0.1769  0.3722  0.4292
    7DOPE  H13R  839   4.728   5.405   5.599  0.1421 -0.0863 -1.1218
    7DOPE  H13S  840   4.551   5.461   5.606  1.4024  1.3821 -0.1438
    7DOPE  C214  841   4.590   5.267   5.503  0.0946 -0.0960  0.2300
    7DOPE  H14R  842   4.482   5.252   5.487  0.5435 -2.2013 -1.1781
    7DOPE  H14S  843   4.636   5.171   5.534  0.9878  0.1529 -0.2671
    7DOPE  C215  844   4.652   5.320   5.375  0.2905  1.1081  0.2532
    7DOPE  H15R  845   4.761   5.339   5.384  0.8555 -0.2932 -2.5802
    7DOPE  H15S  846   4.607   5.418   5.346 -1.4997  0.8815  2.0328
    7DOPE  C216  847   4.634   5.220   5.262 -0.5901  0.1698 -0.5502
    7DOPE  H16R  848   4.530   5.192   5.232  0.7671 -3.5053 -2.5355
    7DOPE  H16S  849   4.687   5.129   5.296  0.1332  0.4551 -0.8968
    7DOPE  C217  850   4.710   5.243   5.132  0.0925  0.1731  0.1923
    7DOPE  H17R  851   4.805   5.297   5.147  2.7465 -3.6283 -1.3456
    7DOPE  H17S  852   4.644   5.301   5.065 -0.1398 -1.7379 -1.3067
    7DOPE  C218  853   4.746   5.114   5.059 -0.4945  0.3180 -0.2320
    7DOPE  H18R  854   4.804   5.047   5.125  1.1635  2.3113  0.4631
    7DOPE  H18S  855   4.821   5.146   4.983 -0.6353 -2.0558 -1.4634
    7DOPE  H18T  856   4.660   5.060   5.013  0.9222 -1.6252 -0.7219
    7DOPE   C33  857   4.901   5.474   6.222  0.4588  0.7122 -0.1441
    7DOPE   H3X  858   4.793   5.493   6.241 -0.5201 -2.4041 -1.9908
    7DOPE   H3Y  859   4.919   5.387   6.156 -0.7933  0.3541 -0.0396
    7DOPE   C34  860   4.971   5.592   6.152 -0.2764 -0.1373  0.0535
    7DOPE   H4X  861   4.961   5.681   6.217  0.6365 -1.1102  1.5786
    7DOPE   H4Y  862   5.077   5.561   6.147  0.4055  1.8935  1.1954
    7DOPE   C35  863   4.919   5.616   6.014  0.0541  0.2507  0.4003
    7DOPE   H5X  864   4.809   5.626   6.017  0.0108  1.1729 -2.0159
    7DOPE   H5Y  865   4.934   5.525   5.951  0.8070  0.6200  0.0383
    7DOPE   C36  866   4.982   5.737   5.946 -0.2374  0.5207 -0.3841
    7DOPE   H6X  867   4.986   5.834   6.001  1.6393  1.0737 -1.4091
    7DOPE   H6Y  868   4.912   5.748   5.861  0.2823 -1.0781 -1.0585
    7DOPE   C37  869   5.122   5.695   5.890 -0.5190  0.0842  0.1062
    7DOPE   H7X  870   5.199   5.677   5.968  1.1666  1.7780 -1.1059
    7DOPE   H7Y  871   5.114   5.595   5.843  1.2583  0.6923 -1.6063
    7DOPE   C38  872   5.189   5.783   5.782  0.5072 -0.1258  0.4222
    7DOPE   H8X  873   5.294   5.749   5.767 -0.2106 -2.3478  0.0912
    7DOPE   H8Y  874   5.188   5.887   5.819 -1.1957 -0.0945  0.3653
    7DOPE   C39  875   5.112   5.780   5.655 -0.3444  0.8542 -0.2028
    7DOPE   H9X  876   5.006   5.801   5.675 -0.5742  1.2205 -1.7178
    7DOPE  C310  877   5.164   5.751   5.531  0.0499  0.4970 -0.0730
    7DOPE  H10X  878   5.094   5.760   5.447  0.2397 -0.2892 -0.3291
    7DOPE  C311  879   5.304   5.707   5.494  0.4872 -0.9764 -0.1633
    7DOPE  H11X  880   5.345   5.658   5.585  0.4559  1.0843  1.0170
    7DOPE  H11Y  881   5.298   5.622   5.422  1.9209 -3.3099  2.2587
    7DOPE  C312  882   5.408   5.806   5.441  0.4016  0.3131 -0.2880
    7DOPE  H12X  883   5.377   5.883   5.368  0.5655  2.0065  1.3381
    7DOPE  H12Y  884   5.490   5.745   5.398  0.5306 -0.9410  1.6048
    7DOPE  C313  885   5.463   5.900   5.554  0.2289  0.2986  0.0047
    7DOPE  H13X  886   5.384   5.977   5.560  0.4112  0.5371 -0.6479
    7DOPE  H13Y  887   5.473   5.841   5.648  2.1505 -0.5304 -0.6758
    7DOPE  C314  888   5.595   5.962   5.517 -0.4097 -0.4987 -0.2185
    7DOPE  H14X  889   5.629   6.029   5.600  0.3166  1.8266 -2.2596
    7DOPE  H14Y  890   5.577   6.031   5.432  1.1525 -0.0201 -0.2065
    7DOPE  C315  891   5.703   5.866   5.480  0.3089 -0.2815  0.1545
    7DOPE  H15X  892   5.801   5.912   5.454  1.0626 -1.9179  0.0367
    7DOPE  H15Y  893   5.675   5.806   5.391  0.4028 -1.8722  1.1707
    7DOPE  C316  894   5.725   5.758   5.590 -0.5201  0.5348  0.8138
    7DOPE  H16X  895   5.631   5.699   5.600  0.5055 -0.8118  3.7875
    7DOPE  H16Y  896   5.730   5.801   5.692  0.9260  2.9532 -0.1997
    7DOPE  C317  897   5.855   5.681   5.567  0.9343  0.3864  0.0787
    7DOPE  H17X  898   5.932   5.759   5.548 -1.6620  2.8412 -1.2370
    7DOPE  H17Y  899   5.877   5.630   5.663 -1.1811 -0.5489  0.1271
    7DOPE  C318  900   5.858   5.571   5.456 -0.6001 -0.3655 -0.2400
    7DOPE  H18X  901   5.882   5.613   5.356 -2.1143 -0.1253 -0.5275
    7DOPE  H18Y  902   5.946   5.508   5.481 -0.5131 -1.2153 -2.4610
    7DOPE  H18Z  903   5.760   5.520   5.461 -0.5476 -0.5236 -0.8348
    8DOPE     N  904   5.511   6.045   6.936  0.0584  0.2405  0.1066
    8DOPE   HN1  905   5.491   5.971   7.006  0.7374  0.4146  0.4982
    8DOPE   HN2  906   5.613   6.067   6.941  0.0741  0.1475  0.2113
    8DOPE   HN3  907   5.471   6.132   6.977 -0.1250  0.1732  0.0735
    8DOPE   C12  908   5.457   5.997   6.808  0.4103 -0.2576  0.9108
    8DOPE  H12A  909   5.450   6.079   6.734 -0.6891 -0.6041  0.6175
    8DOPE  H12B  910   5.348   5.981   6.822  0.3567 -1.8909 -0.9084
    8DOPE   C11  911   5.521   5.869   6.765 -0.1110  0.5436 -0.6953
    8DOPE  H11A  912   5.627   5.889   6.740  0.2123  0.4431  0.5114
    8DOPE  H11B  913   5.474   5.818   6.678 -1.2202  0.1116  0.1333
    8DOPE     P  914   5.404   5.678   6.904  0.3003  0.3995 -0.7216
    8DOPE   O13  915   5.274   5.754   6.918 -0.2307  0.3394  0.1707
    8DOPE   O14  916   5.439   5.583   7.015  0.3879 -1.0264 -0.7391
    8DOPE   O11  917   5.402   5.608   6.766 -0.1528  0.1945 -0.0078
    8DOPE   O12  918   5.525   5.779   6.881 -0.5053 -0.0944  0.0314
    8DOPE    C1  919   5.412   5.466   6.749  0.7477 -0.1176  0.2471
    8DOPE    HA  920   5.374   5.451   6.645  1.5661  2.3481 -0.4779
    8DOPE    HB  921   5.356   5.403   6.821  0.3786 -0.2156 -0.1205
    8DOPE    C2  922   5.552   5.407   6.750 -0.4691 -0.5668 -0.1123
    8DOPE    HS  923   5.587   5.412   6.856  1.3439 -1.6592 -0.6090
    8DOPE   O21  924   5.629   5.486   6.664 -0.0900 -0.7154  0.0248
    8DOPE   C21  925   5.761   5.492   6.681  0.5117  0.5557 -0.3278
    8DOPE   O22  926   5.818   5.468   6.787 -0.4116 -0.5916  0.1127
    8DOPE   C22  927   5.823   5.546   6.553 -0.3106 -0.2273  0.6375
    8DOPE   H2R  928   5.930   5.567   6.578  0.1806  1.9225 -2.6676
    8DOPE   H2S  929   5.772   5.642   6.531  0.0183 -0.4224 -1.1452
    8DOPE    C3  930   5.563   5.256   6.701  0.8256  0.2839  0.6031
    8DOPE    HX  931   5.502   5.238   6.610  3.4721  0.2302 -1.2643
    8DOPE    HY  932   5.515   5.212   6.791 -2.5867 -0.7718 -1.5423
    8DOPE   O31  933   5.698   5.212   6.696  0.6229  0.0771  0.4872
    8DOPE   C31  934   5.742   5.098   6.730  0.0263  0.1554  0.3649
    8DOPE   O32  935   5.684   5.012   6.795  0.0142  0.0680  0.3091
    8DOPE   C32  936   5.898   5.089   6.693  0.5770 -0.0959 -0.7570
    8DOPE   H2X  937   5.921   5.173   6.624 -1.6008 -0.6548 -2.2639
    8DOPE   H2Y  938   5.970   5.110   6.776  0.2350  0.8956 -0.6989
    8DOPE   C23  939   5.796   5.456   6.432  0.0859  0.9552  0.3714
    8DOPE   H3R  940   5.689   5.428   6.426  0.4884 -0.6005  0.0977
    8DOPE   H3S  941   5.857   5.364   6.421  0.2366  1.1084 -0.0989
    8DOPE   C24  942   5.820   5.529   6.306  0.1223  0.0988 -0.1740
    8DOPE   H4R  943   5.901   5.605   6.310  0.6031 -0.3741 -0.8525
    8DOPE   H4S  944   5.721   5.581   6.299  0.7856  2.4269  3.9872
    8DOPE   C25  945   5.852   5.432   6.193  0.1762 -0.1216  0.3618
    8DOPE   H5R  946   5.823   5.473   6.094  1.0553  0.6368  0.3942
    8DOPE   H5S  947   5.783   5.347   6.206 -1.5878  1.3939  1.3782
    8DOPE   C26  948   6.002   5.408   6.188  0.2672  0.7209  0.4967
    8DOPE   H6R  949   6.030   5.352   6.280  0.0891 -0.9310 -0.4152
    8DOPE   H6S  950   6.064   5.501   6.196  1.6666 -0.2433  1.3962
    8DOPE   C27  951   6.041   5.324   6.063 -0.4797  0.3213 -0.3709
    8DOPE   H7R  952   6.012   5.384   5.974  0.6031 -0.1951 -1.0798
    8DOPE   H7S  953   5.982   5.230   6.073 -1.6185  1.2551  3.1164
    8DOPE   C28  954   6.189   5.293   6.056 -0.2065  0.2823  0.1072
    8DOPE   H8R  955   6.225   5.223   6.134  0.1532  0.1460 -0.1776
    8DOPE   H8S  956   6.248   5.387   6.061  0.1893  0.0186  0.4422
    8DOPE   C29  957   6.203   5.221   5.922 -1.2080 -0.1842  0.0086
    8DOPE   H9R  958   6.123   5.150   5.898 -2.3017 -0.0980  2.9751
    8DOPE  C210  959   6.308   5.233   5.841  0.4743  0.2520 -0.5442
    8DOPE  H10R  960   6.284   5.179   5.748 -1.0218  0.1733 -0.1440
    8DOPE  C211  961   6.433   5.318   5.852  0.2000  0.3231  0.5047
    8DOPE  H11R  962   6.423   5.403   5.922  0.2331  1.9532 -1.3953
    8DOPE  H11S  963   6.460   5.362   5.754 -1.2711 -1.3355 -0.7218
    8DOPE  C212  964   6.548   5.239   5.904  0.3242  0.0509  0.6073
    8DOPE  H12R  965   6.564   5.152   5.837 -0.0874  1.3979 -1.3347
    8DOPE  H12S  966   6.513   5.196   6.001  1.4710 -0.2492  0.9087
    8DOPE  C213  967   6.677   5.322   5.909 -0.4894  0.2875 -0.3346
    8DOPE  H13R  968   6.688   5.390   5.996  0.3214 -0.5892  0.2747
    8DOPE  H13S  969   6.694   5.387   5.821  1.6421  0.2684  0.0265
    8DOPE  C214  970   6.799   5.232   5.925  0.5899  0.1103  1.1095
    8DOPE  H14R  971   6.798   5.186   5.824 -2.4810  0.7455  0.7516
    8DOPE  H14S  972   6.790   5.151   6.000  1.1682 -1.2470 -0.2336
    8DOPE  C215  973   6.925   5.315   5.966 -0.5344  0.5286  0.4259
    8DOPE  H15R  974   6.895   5.342   6.069 -1.1480  1.2579  0.0625
    8DOPE  H15S  975   6.949   5.401   5.900  0.2639  0.3373  0.4494
    8DOPE  C216  976   7.047   5.221   5.957 -0.6052 -0.2732  0.2688
    8DOPE  H16R  977   7.058   5.195   5.849  1.0616 -1.4907  0.6967
    8DOPE  H16S  978   7.034   5.128   6.016 -1.0060 -0.4208 -0.0462
    8DOPE  C217  979   7.170   5.305   5.998 -0.3223  0.1295  0.0692
    8DOPE  H17R  980   7.154   5.359   6.094  2.2038 -0.7975  1.0936
    8DOPE  H17S  981   7.189   5.386   5.924  0.9001  1.8344  2.1275
    8DOPE  C218  982   7.300   5.227   6.011  0.5555 -0.6986  0.0423
    8DOPE  H18R  983   7.390   5.290   6.027 -0.7706  2.0491 -2.3266
    8DOPE  H18S  984   7.316   5.179   5.912 -0.2031 -0.2872 -0.2948
    8DOPE  H18T  985   7.304   5.150   6.090  1.4792  1.1649  1.9187
    8DOPE   C33  986   5.937   4.960   6.625 -0.1007  1.0958  0.4354
    8DOPE   H3X  987   5.919   4.879   6.699  2.2170 -0.6204 -0.7703
    8DOPE   H3Y  988   6.045   4.964   6.599  0.5027 -2.6153  1.6825
    8DOPE   C34  989   5.852   4.924   6.502  0.6314 -0.2528  0.4636
    8DOPE   H4X  990   5.863   4.818   6.470 -0.0499 -0.4012  0.7049
    8DOPE   H4Y  991   5.743   4.918   6.523  0.4888 -1.4252 -0.5004
    8DOPE   C35  992   5.888   5.006   6.382  0.1486 -0.0116 -0.5414
    8DOPE   H5X  993   5.978   4.964   6.332  1.4977  2.7438 -0.6336
    8DOPE   H5Y  994   5.925   5.104   6.421 -2.4494  0.5975  0.6379
    8DOPE   C36  995   5.780   5.038   6.281  0.0969  0.1925 -0.0731
    8DOPE   H6X  996   5.733   4.949   6.234 -0.9659  0.2716  0.8043
    8DOPE   H6Y  997   5.821   5.100   6.199  0.8560  0.6133  0.6064
    8DOPE   C37  998   5.666   5.112   6.352 -0.0107 -0.0034 -0.0295
    8DOPE   H7X  999   5.604   5.042   6.412 -1.2889 -0.2766 -1.5831
    8DOPE   H7Y 1000   5.703   5.191   6.420  0.1461  0.0230 -0.1449
    8DOPE   C38 1001   5.571   5.176   6.250  0.2544  0.2507 -0.0362
    8DOPE   H8X 1002   5.510   5.093   6.208  0.3100  0.2175 -0.0513
    8DOPE   H8Y 1003   5.630   5.225   6.170  0.7968  1.0224  0.8229
    8DOPE   C39 1004   5.471   5.278   6.306 -0.9129  0.4272 -0.5384
    8DOPE   H9X 1005   5.513   5.368   6.353 -0.6265 -0.0551  0.1482
    8DOPE  C310 1006   5.336   5.263   6.301  0.7370  0.1365 -0.4050
    8DOPE  H10X 1007   5.267   5.347   6.319 -0.2385 -0.6898 -0.2162
    8DOPE  C311 1008   5.258   5.147   6.239 -0.1139  0.1976  0.2339
    8DOPE  H11X 1009   5.321   5.059   6.216  1.1202  0.8340  1.0248
    8DOPE  H11Y 1010   5.182   5.110   6.311  1.9755 -2.7591  1.1102
    8DOPE  C312 1011   5.166   5.184   6.120  0.6195  0.3319  0.1122
    8DOPE  H12X 1012   5.115   5.279   6.149  0.1795  0.7402 -1.8040
    8DOPE  H12Y 1013   5.090   5.104   6.113  0.6325  0.4114 -1.2616
    8DOPE  C313 1014   5.231   5.193   5.978 -0.0055  0.0395 -0.1235
    8DOPE  H13X 1015   5.305   5.275   5.970  3.2466 -2.4897  1.3874
    8DOPE  H13Y 1016   5.295   5.104   5.960 -0.3384  0.1725 -2.2250
    8DOPE  C314 1017   5.133   5.203   5.860 -0.0104  0.3628 -0.3804
    8DOPE  H14X 1018   5.085   5.303   5.853 -1.1018 -0.2719 -3.8212
    8DOPE  H14Y 1019   5.064   5.119   5.882  2.2032 -1.2083  0.9817
    8DOPE  C315 1020   5.201   5.170   5.723  0.1615 -0.2587  0.3459
    8DOPE  H15X 1021   5.287   5.100   5.731  0.5994  0.2538  0.2022
    8DOPE  H15Y 1022   5.242   5.271   5.701 -0.0427 -0.0679  0.8349
    8DOPE  C316 1023   5.087   5.137   5.625  0.2575 -0.4336  0.1032
    8DOPE  H16X 1024   5.033   5.230   5.597 -0.1286 -0.8596 -0.6101
    8DOPE  H16Y 1025   5.031   5.056   5.677  0.5400 -0.8596 -0.2536
    8DOPE  C317 1026   5.140   5.086   5.494 -0.6614  0.0557  0.0500
    8DOPE  H17X 1027   5.195   5.170   5.447 -0.0462 -0.6294 -0.4727
    8DOPE  H17Y 1028   5.207   4.998   5.491 -1.7673 -0.8136  0.4118
    8DOPE  C318 1029   5.021   5.038   5.404 -0.8233 -0.2997  0.1798
    8DOPE  H18X 1030   5.047   5.009   5.301  0.3646  0.8519  0.1273
    8DOPE  H18Y 1031   4.950   5.122   5.388 -1.2753 -0.5066  0.9870
    8DOPE  H18Z 1032   4.973   4.950   5.452 -0.8337 -0.3914  0.0022
    9DOPE     N 1033   1.676   4.767   6.901 -0.3038 -0.2529 -0.3315
    9DOPE   HN1 1034   1.707   4.731   6.809 -1.7559  0.4210 -1.1192
    9DOPE   HN2 1035   1.753   4.823   6.943 -2.1400  1.1401  1.3736
    9DOPE   HN3 1036   1.676   4.672   6.944 -0.6000  0.7407  2.0367
    9DOPE   C12 1037   1.553   4.844   6.905 -0.2505  0.2192 -0.3257
    9DOPE  H12A 1038   1.532   4.852   7.014  1.4644 -0.9277  0.1209
    9DOPE  H12B 1039   1.466   4.788   6.864  0.5746 -0.6530 -0.9091
    9DOPE   C11 1040   1.575   4.985   6.856 -0.5799 -0.1697 -0.0331
    9DOPE  H11A 1041   1.478   5.033   6.885 -0.5906 -1.0969  1.5613
    9DOPE  H11B 1042   1.578   4.991   6.745 -0.8345 -2.4140 -0.1950
    9DOPE     P 1043   1.683   5.137   7.047 -0.1917 -0.0118  0.6097
    9DOPE   O13 1044   1.670   5.282   7.013  0.3730 -0.3057 -0.4101
    9DOPE   O14 1045   1.798   5.102   7.134 -0.5496  0.2447  0.6204
    9DOPE   O11 1046   1.563   5.082   7.131  0.1614 -0.2286  0.7748
    9DOPE   O12 1047   1.688   5.047   6.918 -0.2658 -1.1259 -0.2700
    9DOPE    C1 1048   1.433   5.143   7.145  0.1418  0.2291 -0.3634
    9DOPE    HA 1049   1.401   5.198   7.054 -0.1657 -0.3382 -0.6020
    9DOPE    HB 1050   1.435   5.215   7.229  3.0131  0.2400 -0.3216
    9DOPE    C2 1051   1.311   5.047   7.172 -0.1020 -0.1681 -0.3634
    9DOPE    HS 1052   1.328   5.007   7.274  0.6920  0.2073 -0.3426
    9DOPE   O21 1053   1.307   4.935   7.079  0.6925 -0.3056 -1.0462
    9DOPE   C21 1054   1.238   4.825   7.127 -0.4532  0.5416  0.5217
    9DOPE   O22 1055   1.181   4.824   7.236  0.2906 -0.1958 -0.2407
    9DOPE   C22 1056   1.242   4.720   7.018 -0.1006  0.3899 -0.2544
    9DOPE   H2R 1057   1.324   4.645   7.029  0.0584  0.0690 -2.9438
    9DOPE   H2S 1058   1.263   4.769   6.920 -0.3944  0.3715 -0.3267
    9DOPE    C3 1059   1.183   5.133   7.170 -0.0562 -0.2813  0.3879
    9DOPE    HX 1060   1.179   5.211   7.249 -1.7431  2.2802 -2.0378
    9DOPE    HY 1061   1.090   5.077   7.194 -0.9091  0.4033 -1.1987
    9DOPE   O31 1062   1.173   5.202   7.044 -0.0204 -0.0017  0.3435
    9DOPE   C31 1063   1.087   5.159   6.957  0.4783  0.1378  1.0527
    9DOPE   O32 1064   0.995   5.086   6.977  0.1870  0.1823  0.4120
    9DOPE   C32 1065   1.126   5.217   6.815  0.5032  0.4706  0.5082
    9DOPE   H2X 1066   1.109   5.326   6.820  1.1127  0.5438  1.2886
    9DOPE   H2Y 1067   1.234   5.194   6.801  0.2946 -0.1169 -0.2105
    9DOPE   C23 1068   1.110   4.646   6.994 -0.2411 -1.4117 -0.8616
    9DOPE   H3R 1069   1.049   4.639   7.087 -1.0440 -2.1352 -1.4243
    9DOPE   H3S 1070   1.139   4.540   6.978  1.1563 -1.2939  0.5981
    9DOPE   C24 1071   1.015   4.697   6.888 -0.0732  0.1551  0.3007
    9DOPE   H4R 1072   0.996   4.805   6.899 -0.4396  0.1408 -0.1743
    9DOPE   H4S 1073   0.919   4.642   6.893  0.4320 -0.8411 -0.5339
    9DOPE   C25 1074   1.068   4.672   6.747 -0.0826  0.4125  0.7324
    9DOPE   H5R 1075   1.177   4.656   6.734 -0.7816 -4.1415 -1.4813
    9DOPE   H5S 1076   1.044   4.762   6.687 -0.4960  0.2892  0.7103
    9DOPE   C26 1077   0.995   4.556   6.681 -0.2115 -0.1986 -0.2687
    9DOPE   H6R 1078   0.999   4.561   6.570 -1.8359  1.3240 -0.3025
    9DOPE   H6S 1079   0.885   4.559   6.695 -0.2820  0.8356 -0.9248
    9DOPE   C27 1080   1.048   4.415   6.724  0.2207  0.4752 -0.3351
    9DOPE   H7R 1081   1.029   4.388   6.831  1.8155 -0.7233 -0.3108
    9DOPE   H7S 1082   1.159   4.415   6.723  0.2371 -0.7297 -0.4893
    9DOPE   C28 1083   1.017   4.296   6.633 -0.5421  0.4751  0.7844
    9DOPE   H8R 1084   1.083   4.207   6.645 -2.1619 -1.0533 -0.9505
    9DOPE   H8S 1085   1.033   4.340   6.532 -0.8001  0.9699  0.9552
    9DOPE   C29 1086   0.877   4.243   6.640  0.1173  0.3221 -0.2396
    9DOPE   H9R 1087   0.828   4.211   6.732 -0.9888 -0.5656 -1.1157
    9DOPE  C210 1088   0.796   4.228   6.535  0.3944 -0.2987  0.1128
    9DOPE  H10R 1089   0.693   4.192   6.550 -0.2317  1.6889  1.0485
    9DOPE  C211 1090   0.826   4.265   6.391 -0.4100 -0.0691  1.0364
    9DOPE  H11R 1091   0.864   4.369   6.383 -1.5285  0.2374 -0.7101
    9DOPE  H11S 1092   0.729   4.267   6.338 -0.6327  0.0467  1.4433
    9DOPE  C212 1093   0.910   4.154   6.323  0.0500  0.2511  0.8744
    9DOPE  H12R 1094   0.876   4.054   6.358 -0.9691 -0.2787 -1.4636
    9DOPE  H12S 1095   1.018   4.156   6.349  0.1576 -2.9483  1.1070
    9DOPE  C213 1096   0.892   4.171   6.171  0.8538 -0.6544 -0.3822
    9DOPE  H13R 1097   0.925   4.266   6.124 -1.0144  1.1367  1.7066
    9DOPE  H13S 1098   0.784   4.163   6.147  0.8809 -0.0554 -0.7361
    9DOPE  C214 1099   0.966   4.070   6.089  0.4759  0.5796  0.5194
    9DOPE  H14R 1100   0.941   4.094   5.984  0.9909  0.2216  0.3153
    9DOPE  H14S 1101   0.921   3.969   6.101 -0.7927  1.1445  0.7897
    9DOPE  C215 1102   1.113   4.058   6.109 -0.1608  0.3076  0.5195
    9DOPE  H15R 1103   1.145   3.981   6.182  1.7889  0.3708 -0.2045
    9DOPE  H15S 1104   1.148   4.163   6.122 -0.3545  0.9449 -2.9236
    9DOPE  C216 1105   1.180   4.015   5.977  0.6831  0.6688 -0.3192
    9DOPE  H16R 1106   1.291   4.004   5.981  0.7732  1.3400 -0.8485
    9DOPE  H16S 1107   1.159   4.091   5.899 -2.4771 -1.1711 -1.4237
    9DOPE  C217 1108   1.141   3.876   5.924 -0.0873  0.3311 -0.2520
    9DOPE  H17R 1109   1.208   3.854   5.838 -0.7831  0.7445 -0.9208
    9DOPE  H17S 1110   1.036   3.868   5.889 -0.3803 -2.3776  1.0527
    9DOPE  C218 1111   1.166   3.754   6.018 -0.3830 -0.2231  0.2796
    9DOPE  H18R 1112   1.106   3.665   5.986  1.9540 -1.2514 -1.5417
    9DOPE  H18S 1113   1.141   3.777   6.123  1.1589  1.8821  0.2396
    9DOPE  H18T 1114   1.275   3.734   6.024 -0.2408  0.7690  1.1193
    9DOPE   C33 1115   1.038   5.172   6.695 -0.3904  0.1761  0.1147
    9DOPE   H3X 1116   1.009   5.265   6.641 -1.6251 -0.6272 -0.6692
    9DOPE   H3Y 1117   0.940   5.132   6.729  0.6578 -2.4756  0.2466
    9DOPE   C34 1118   1.104   5.062   6.616 -0.8782  0.0482  0.1788
    9DOPE   H4X 1119   1.209   5.087   6.589 -0.6901 -0.7025  0.1970
    9DOPE   H4Y 1120   1.132   4.973   6.676 -0.1112  2.0117  2.9661
    9DOPE   C35 1121   1.015   5.006   6.501 -0.1053  0.5384 -0.1616
    9DOPE   H5X 1122   0.991   5.099   6.445 -0.0118  0.2542 -0.6721
    9DOPE   H5Y 1123   0.919   4.978   6.550 -0.6449  1.2139 -0.8042
    9DOPE   C36 1124   1.076   4.890   6.414 -0.6760 -0.2226 -0.1342
    9DOPE   H6X 1125   1.155   4.829   6.462 -0.2678 -0.3957 -1.0067
    9DOPE   H6Y 1126   1.122   4.957   6.339 -1.1017  1.9005  1.3926
    9DOPE   C37 1127   0.966   4.805   6.348 -0.0989 -0.2109  0.6861
    9DOPE   H7X 1128   0.906   4.759   6.430 -1.5963 -0.1460 -0.3266
    9DOPE   H7Y 1129   0.904   4.871   6.285  0.1216  0.1511  0.8452
    9DOPE   C38 1130   1.032   4.696   6.259  0.2856 -0.3893 -0.3928
    9DOPE   H8X 1131   1.093   4.625   6.320 -0.0312  0.9003  1.5242
    9DOPE   H8Y 1132   1.105   4.756   6.201  0.5114 -0.0560  0.2207
    9DOPE   C39 1133   0.945   4.614   6.177 -0.3719 -0.2216 -0.3549
    9DOPE   H9X 1134   0.845   4.589   6.217  0.3676 -2.0324  0.4428
    9DOPE  C310 1135   0.968   4.563   6.055 -0.1278  0.7068  0.5185
    9DOPE  H10X 1136   0.893   4.511   5.993  0.3011 -0.1128  0.6740
    9DOPE  C311 1137   1.094   4.578   5.976  0.4608 -0.1789 -0.0916
    9DOPE  H11X 1138   1.077   4.651   5.895 -1.5448 -2.4281 -1.8449
    9DOPE  H11Y 1139   1.175   4.612   6.044  0.2136 -0.9027  0.5906
    9DOPE  C312 1140   1.118   4.449   5.896  0.2184  0.6232  0.0917
    9DOPE  H12X 1141   1.026   4.413   5.845 -0.2446  1.4656  0.3221
    9DOPE  H12Y 1142   1.141   4.360   5.959 -2.7269 -0.1166  0.2745
    9DOPE  C313 1143   1.226   4.473   5.790 -0.6370 -0.2173 -0.2811
    9DOPE  H13X 1144   1.208   4.567   5.735 -0.4904 -0.5946 -0.9896
    9DOPE  H13Y 1145   1.323   4.471   5.845  0.3649  3.2642 -1.6735
    9DOPE  C314 1146   1.251   4.375   5.674 -0.2357 -0.3181 -0.3125
    9DOPE  H14X 1147   1.158   4.358   5.615  1.0679 -1.7620 -2.1028
    9DOPE  H14Y 1148   1.286   4.283   5.726 -0.4983  1.0934  2.5558
    9DOPE  C315 1149   1.371   4.426   5.593  0.1413  0.0799 -0.7073
    9DOPE  H15X 1150   1.448   4.461   5.666 -0.5351 -0.7146  0.4158
    9DOPE  H15Y 1151   1.337   4.518   5.541 -1.3159  0.6697  1.1727
    9DOPE  C316 1152   1.404   4.326   5.489  0.0858  0.1327  0.2678
    9DOPE  H16X 1153   1.311   4.287   5.443 -0.3700  1.9823 -0.4790
    9DOPE  H16Y 1154   1.445   4.239   5.544  1.8198 -1.4236 -3.1284
    9DOPE  C317 1155   1.516   4.374   5.399 -0.1717  0.0515  0.3944
    9DOPE  H17X 1156   1.493   4.466   5.341  0.8710  1.3937  2.0226
    9DOPE  H17Y 1157   1.609   4.394   5.457  0.1156 -0.5057  0.1333
    9DOPE  C318 1158   1.560   4.264   5.297 -0.8961 -0.0261 -0.2934
    9DOPE  H18X 1159   1.482   4.225   5.227 -0.7972 -0.5530 -0.1186
    9DOPE  H18Y 1160   1.656   4.287   5.246 -0.6097 -1.2003 -0.3084
    9DOPE  H18Z 1161   1.595   4.172   5.348  0.5770  1.2353  1.0647
   10DOPE     N 1162   2.480   6.101   7.264  0.0464  0.1060  0.0863
   10DOPE   HN1 1163   2.401   6.063   7.207 -0.4550  1.9610 -0.5208
   10DOPE   HN2 1164   2.449   6.173   7.332  0.9173  0.5509  0.0314
   10DOPE   HN3 1165   2.550   6.146   7.201  1.4340 -0.9470  0.8310
   10DOPE   C12 1166   2.563   5.994   7.333 -0.7606 -0.9080 -0.2016
   10DOPE  H12A 1167   2.507   5.950   7.418 -0.5656 -1.4472 -0.3522
   10DOPE  H12B 1168   2.653   6.041   7.379 -1.1361 -1.2293  0.8979
   10DOPE   C11 1169   2.610   5.899   7.228  0.1369 -0.5493  0.5542
   10DOPE  H11A 1170   2.519   5.846   7.190 -0.6225  2.4776 -2.3332
   10DOPE  H11B 1171   2.675   5.832   7.288 -1.2189  0.2638  3.0570
   10DOPE     P 1172   2.801   5.899   7.041  0.2343  0.0182  0.1521
   10DOPE   O13 1173   2.898   5.874   7.146 -0.3026  0.5693 -0.1924
   10DOPE   O14 1174   2.839   5.975   6.923  0.2211 -0.0212  0.0888
   10DOPE   O11 1175   2.749   5.764   6.994  0.4255  0.5326  0.3777
   10DOPE   O12 1176   2.678   5.967   7.119 -0.2539 -0.2568  0.1315
   10DOPE    C1 1177   2.644   5.748   6.899 -0.5804 -0.5389  0.2818
   10DOPE    HA 1178   2.644   5.834   6.828 -1.5375  1.1470  2.2040
   10DOPE    HB 1179   2.545   5.752   6.950 -0.8927 -0.1047 -0.3490
   10DOPE    C2 1180   2.656   5.616   6.822 -0.4302 -0.2261 -0.2359
   10DOPE    HS 1181   2.655   5.536   6.899  1.9579 -1.0111 -0.9407
   10DOPE   O21 1182   2.779   5.626   6.751  0.3154  0.4114 -0.8312
   10DOPE   C21 1183   2.835   5.523   6.697 -0.7291  0.2381  0.3243
   10DOPE   O22 1184   2.800   5.405   6.721  0.4850 -0.2503 -0.0093
   10DOPE   C22 1185   2.951   5.557   6.602 -0.4977  0.2186  0.0809
   10DOPE   H2R 1186   3.041   5.526   6.660 -0.1289 -1.4867 -1.3422
   10DOPE   H2S 1187   2.937   5.663   6.573  1.9527  0.3728 -0.7660
   10DOPE    C3 1188   2.532   5.589   6.739 -0.2114 -0.4153 -0.2056
   10DOPE    HX 1189   2.448   5.616   6.807 -0.3939  1.1628 -1.0003
   10DOPE    HY 1190   2.522   5.481   6.717  0.5698 -0.3334 -0.9920
   10DOPE   O31 1191   2.535   5.666   6.617  0.0358  0.3852 -0.2199
   10DOPE   C31 1192   2.424   5.688   6.548 -0.4444 -0.4375  0.1932
   10DOPE   O32 1193   2.315   5.645   6.579  0.0086 -0.2244  0.1504
   10DOPE   C32 1194   2.469   5.767   6.422  0.2349  0.7528  0.4552
   10DOPE   H2X 1195   2.502   5.867   6.456  2.0883  1.4087 -2.8026
   10DOPE   H2Y 1196   2.548   5.711   6.368 -1.4622  0.7113 -2.1765
   10DOPE   C23 1197   2.934   5.464   6.484  0.5187 -0.0324 -0.1502
   10DOPE   H3R 1198   2.923   5.364   6.531  1.8411  1.1358  2.9438
   10DOPE   H3S 1199   3.023   5.470   6.419  1.5004  0.6379  1.1970
   10DOPE   C24 1200   2.816   5.502   6.397 -0.0813 -0.4384 -0.0854
   10DOPE   H4R 1201   2.811   5.612   6.383  0.5417 -0.6593 -2.5110
   10DOPE   H4S 1202   2.717   5.479   6.441 -0.7358  2.3407  0.0830
   10DOPE   C25 1203   2.832   5.448   6.250 -0.1974  0.3809 -0.3718
   10DOPE   H5R 1204   2.729   5.441   6.207 -0.0620 -1.1367 -0.5123
   10DOPE   H5S 1205   2.865   5.343   6.261 -0.0413  0.4679  0.0026
   10DOPE   C26 1206   2.917   5.524   6.146  0.4740  0.1827 -0.0376
   10DOPE   H6R 1207   3.025   5.520   6.171  0.2497 -2.7989  0.7709
   10DOPE   H6S 1208   2.878   5.628   6.149 -1.2368 -0.3168 -2.5238
   10DOPE   C27 1209   2.883   5.460   6.005 -0.1745  0.2469 -0.7635
   10DOPE   H7R 1210   2.772   5.451   5.997 -0.1280 -0.2319 -0.9196
   10DOPE   H7S 1211   2.918   5.354   6.001  3.1213  1.1521  0.8643
   10DOPE   C28 1212   2.934   5.529   5.876  0.2098 -0.7711  0.1274
   10DOPE   H8R 1213   3.044   5.514   5.867  0.2095 -1.8308  1.4357
   10DOPE   H8S 1214   2.900   5.633   5.896  0.2212 -0.5507 -0.9707
   10DOPE   C29 1215   2.867   5.507   5.743 -0.4184  0.7361  0.3471
   10DOPE   H9R 1216   2.778   5.570   5.728 -0.9398 -0.1002 -0.1983
   10DOPE  C210 1217   2.885   5.407   5.662 -0.2609  0.3977  0.4960
   10DOPE  H10R 1218   2.837   5.395   5.564 -0.0137 -3.0107  0.6770
   10DOPE  C211 1219   2.980   5.290   5.682 -0.1185  0.1481 -0.4644
   10DOPE  H11R 1220   2.910   5.204   5.676 -1.5522  1.2304  0.1749
   10DOPE  H11S 1221   3.031   5.288   5.780  1.7273 -0.1705 -1.3889
   10DOPE  C212 1222   3.095   5.281   5.577  0.5612 -0.1253  0.3508
   10DOPE  H12R 1223   3.161   5.370   5.582 -1.3886  1.6141 -2.2625
   10DOPE  H12S 1224   3.035   5.284   5.484 -1.4446  0.4143  1.6014
   10DOPE  C213 1225   3.180   5.156   5.598  1.1806  0.2813  0.1508
   10DOPE  H13R 1226   3.125   5.060   5.582 -1.8958  2.1240 -1.1571
   10DOPE  H13S 1227   3.203   5.159   5.706  0.3210 -0.7526  0.3824
   10DOPE  C214 1228   3.303   5.147   5.503  0.3192  0.3782  0.3008
   10DOPE  H14R 1229   3.350   5.053   5.538 -0.7271  0.2807  1.5010
   10DOPE  H14S 1230   3.371   5.232   5.528 -0.1295  0.5992  0.8026
   10DOPE  C215 1231   3.261   5.122   5.361  0.3839  0.2268  0.6267
   10DOPE  H15R 1232   3.197   5.197   5.309  0.9898 -0.0486 -0.5705
   10DOPE  H15S 1233   3.206   5.026   5.352  0.8723  0.1020 -2.2489
   10DOPE  C216 1234   3.392   5.112   5.267  0.2348  0.3206 -0.2754
   10DOPE  H16R 1235   3.464   5.053   5.328 -0.9459 -0.2287  0.6367
   10DOPE  H16S 1236   3.442   5.211   5.264 -0.6774  0.9133  2.0260
   10DOPE  C217 1237   3.361   5.037   5.136  0.7430 -0.1583  0.2721
   10DOPE  H17R 1238   3.285   5.093   5.077  2.3974  2.0835  0.1305
   10DOPE  H17S 1239   3.318   4.939   5.167  3.2127 -0.7745  2.0962
   10DOPE  C218 1240   3.478   5.016   5.044 -0.4099  0.6874  0.1831
   10DOPE  H18R 1241   3.461   4.955   4.952 -1.0162  0.3026  0.5439
   10DOPE  H18S 1242   3.554   4.960   5.101  1.0483 -0.4942 -2.7284
   10DOPE  H18T 1243   3.507   5.113   4.998  0.0893 -0.2857 -1.6773
   10DOPE   C33 1244   2.353   5.780   6.330  0.8802  0.3969  0.3914
   10DOPE   H3X 1245   2.267   5.830   6.378 -2.0446 -1.7473 -2.1987
   10DOPE   H3Y 1246   2.312   5.683   6.294 -3.2178  2.4524 -1.0420
   10DOPE   C34 1247   2.374   5.863   6.203  0.1665  0.6699  0.2662
   10DOPE   H4X 1248   2.280   5.895   6.153  0.4630  1.4597  0.1828
   10DOPE   H4Y 1249   2.420   5.960   6.234  1.9348  0.5697 -1.7653
   10DOPE   C35 1250   2.459   5.810   6.081  0.4294 -0.3812 -0.2066
   10DOPE   H5X 1251   2.446   5.700   6.067 -2.2379 -0.1164 -0.3087
   10DOPE   H5Y 1252   2.568   5.817   6.101  0.4177 -0.0357 -0.2603
   10DOPE   C36 1253   2.432   5.878   5.949  0.3842  0.1321  1.0034
   10DOPE   H6X 1254   2.454   5.983   5.977 -2.3485  0.5460  1.8069
   10DOPE   H6Y 1255   2.327   5.871   5.915 -0.0078  0.8994  2.0225
   10DOPE   C37 1256   2.532   5.834   5.840  0.3457  0.0968 -0.1576
   10DOPE   H7X 1257   2.633   5.846   5.885 -0.4762 -0.6356  2.0032
   10DOPE   H7Y 1258   2.528   5.725   5.822  0.8245 -0.3664  2.2120
   10DOPE   C38 1259   2.502   5.904   5.712  0.5801  0.6868  0.4373
   10DOPE   H8X 1260   2.478   6.008   5.741  0.8267  0.4646  1.4642
   10DOPE   H8Y 1261   2.404   5.869   5.673  0.1363  2.0993  0.2250
   10DOPE   C39 1262   2.616   5.887   5.616  0.5396 -0.5750  0.4902
   10DOPE   H9X 1263   2.715   5.898   5.665 -0.0864  0.7870  1.5225
   10DOPE  C310 1264   2.609   5.860   5.485 -0.9358  0.2970  0.0019
   10DOPE  H10X 1265   2.705   5.841   5.435 -1.6077 -2.1136 -0.4866
   10DOPE  C311 1266   2.484   5.834   5.406  0.2818  0.4365 -0.4666
   10DOPE  H11X 1267   2.464   5.724   5.403 -0.4133  0.5590 -0.4370
   10DOPE  H11Y 1268   2.391   5.870   5.455  0.1435 -0.8125  0.2412
   10DOPE  C312 1269   2.489   5.868   5.257  0.5551 -0.3164  0.1493
   10DOPE  H12X 1270   2.503   5.977   5.240 -0.1403 -0.3564 -0.7257
   10DOPE  H12Y 1271   2.392   5.842   5.210 -0.0623 -1.4018  1.9278
   10DOPE  C313 1272   2.606   5.797   5.178 -0.9780  0.3760  0.0556
   10DOPE  H13X 1273   2.698   5.801   5.240 -0.0459 -3.0067 -0.9230
   10DOPE  H13Y 1274   2.597   5.687   5.187  0.3369  0.3724  1.8770
   10DOPE  C314 1275   2.629   5.855   5.042 -0.3382  0.5038  0.7497
   10DOPE  H14X 1276   2.666   5.959   5.048  0.0964  0.2985  2.1080
   10DOPE  H14Y 1277   2.541   5.839   4.976 -0.2274 -0.9858  0.9224
   10DOPE  C315 1278   2.747   5.782   4.977 -0.5694 -0.1964 -0.4263
   10DOPE  H15X 1279   2.725   5.673   4.974  0.1576 -0.3324 -2.0098
   10DOPE  H15Y 1280   2.837   5.806   5.037 -1.6623  0.5901  0.9508
   10DOPE  C316 1281   2.777   5.826   4.831  0.0017  0.3627  0.6299
   10DOPE  H16X 1282   2.803   5.934   4.819 -3.7715  1.2394 -1.2099
   10DOPE  H16Y 1283   2.692   5.803   4.764  1.3623 -2.3526 -0.3015
   10DOPE  C317 1284   2.887   5.728   4.782 -0.6021 -0.3908  0.6326
   10DOPE  H17X 1285   2.969   5.731   4.857  0.2367  0.6690 -0.2874
   10DOPE  H17Y 1286   2.841   5.627   4.783 -0.8120 -0.3223 -0.3971
   10DOPE  C318 1287   2.949   5.750   4.640 -0.2118 -0.4789  0.0378
   10DOPE  H18X 1288   2.868   5.790   4.576  1.3087  2.6732 -0.0788
   10DOPE  H18Y 1289   3.017   5.837   4.639  0.2919 -0.8569 -1.4697
   10DOPE  H18Z 1290   3.002   5.660   4.602 -0.0456  0.0740 -1.0655
   11DOPE     N 1291   0.682   3.565   6.875  0.4332 -0.2169 -0.3468
   11DOPE   HN1 1292   0.712   3.467   6.860 -1.0665 -1.0095  1.3941
   11DOPE   HN2 1293   0.680   3.625   6.790 -1.6832  0.0487 -0.1519
   11DOPE   HN3 1294   0.743   3.603   6.951  1.4650  0.0654 -1.2921
   11DOPE   C12 1295   0.537   3.556   6.909 -0.3297  0.6196 -0.2416
   11DOPE  H12A 1296   0.477   3.544   6.817  0.1684  0.9388 -0.6188
   11DOPE  H12B 1297   0.517   3.647   6.970  1.2272  1.1351 -0.4500
   11DOPE   C11 1298   0.525   3.431   6.999  0.5669 -0.1788 -0.1400
   11DOPE  H11A 1299   0.424   3.428   7.046  0.5952 -0.8306 -0.1115
   11DOPE  H11B 1300   0.596   3.442   7.084  1.0253  0.2714 -0.5743
   11DOPE     P 1301   0.420   3.225   6.883  0.1367 -0.0996 -0.2613
   11DOPE   O13 1302   0.319   3.316   6.826  0.0134 -0.2043 -0.1683
   11DOPE   O14 1303   0.383   3.141   6.994  0.1327 -0.0329  0.2845
   11DOPE   O11 1304   0.476   3.130   6.766 -0.3552 -0.0030  0.0922
   11DOPE   O12 1305   0.549   3.308   6.926 -0.0208  0.3884 -0.1123
   11DOPE    C1 1306   0.547   3.197   6.664 -0.3405  0.0044  0.0531
   11DOPE    HA 1307   0.654   3.171   6.676 -0.9002 -2.9373 -0.6801
   11DOPE    HB 1308   0.552   3.308   6.666  1.1780 -0.0623  1.8138
   11DOPE    C2 1309   0.513   3.147   6.521 -0.3358  0.5595 -0.0472
   11DOPE    HS 1310   0.479   3.042   6.537  1.1597  0.1835  0.8605
   11DOPE   O21 1311   0.630   3.166   6.439 -0.1938 -0.0943  0.3645
   11DOPE   C21 1312   0.670   3.061   6.382  0.0024  0.2190 -0.3435
   11DOPE   O22 1313   0.613   2.955   6.375  0.4030  0.1807 -0.5098
   11DOPE   C22 1314   0.807   3.100   6.309  0.6801 -0.4844 -0.5997
   11DOPE   H2R 1315   0.872   3.012   6.322  0.0576 -0.8151  0.3975
   11DOPE   H2S 1316   0.860   3.190   6.348 -1.3589  0.3237  0.4683
   11DOPE    C3 1317   0.391   3.232   6.462 -0.2231 -0.1545  0.5956
   11DOPE    HX 1318   0.409   3.337   6.494 -2.0630  0.6894 -0.8821
   11DOPE    HY 1319   0.297   3.206   6.516 -0.7718  2.4056  0.9943
   11DOPE   O31 1320   0.386   3.233   6.313  0.1299 -0.0356 -0.3035
   11DOPE   C31 1321   0.297   3.140   6.273  0.4845 -0.2008 -0.5500
   11DOPE   O32 1322   0.223   3.073   6.338  0.1875 -0.5454  0.3300
   11DOPE   C32 1323   0.301   3.142   6.124  0.1403 -0.0607 -0.0788
   11DOPE   H2X 1324   0.197   3.117   6.093 -0.0722 -0.4559  0.9238
   11DOPE   H2Y 1325   0.314   3.250   6.098  0.5944 -0.5635 -2.1277
   11DOPE   C23 1326   0.780   3.116   6.166  0.1477  0.5734  0.0190
   11DOPE   H3R 1327   0.721   3.208   6.146 -0.0171  0.7367  1.1871
   11DOPE   H3S 1328   0.713   3.037   6.125  1.4670  0.9211 -3.0744
   11DOPE   C24 1329   0.916   3.120   6.091  0.1026 -0.6780 -0.8803
   11DOPE   H4R 1330   0.974   3.025   6.103  2.4425  0.4962 -2.1985
   11DOPE   H4S 1331   0.947   3.219   6.130 -0.7571 -1.0931  0.9786
   11DOPE   C25 1332   0.909   3.127   5.933  0.4754  0.4088 -0.4651
   11DOPE   H5R 1333   0.845   3.041   5.902  0.2438  0.6326 -0.6114
   11DOPE   H5S 1334   1.010   3.094   5.898  1.2829  2.1646  0.0895
   11DOPE   C26 1335   0.885   3.263   5.867  0.3241  1.3982  0.5063
   11DOPE   H6R 1336   0.965   3.332   5.899  2.3252 -1.1650  1.3607
   11DOPE   H6S 1337   0.790   3.305   5.906  0.1967 -1.5574  3.9467
   11DOPE   C27 1338   0.883   3.258   5.714  0.2922 -0.0286 -0.4986
   11DOPE   H7R 1339   0.800   3.194   5.677 -1.7255  1.4637  1.2166
   11DOPE   H7S 1340   0.980   3.213   5.683  0.4032 -0.5579  0.5955
   11DOPE   C28 1341   0.869   3.392   5.646 -1.0045 -0.1624  0.2065
   11DOPE   H8R 1342   0.787   3.442   5.701  0.4955  0.1846  2.2213
   11DOPE   H8S 1343   0.830   3.372   5.544 -0.1686  0.1389 -0.1762
   11DOPE   C29 1344   1.000   3.463   5.631 -0.8337 -0.0629 -0.2833
   11DOPE   H9R 1345   1.073   3.411   5.693 -0.2026  1.4729  0.3244
   11DOPE  C210 1346   1.025   3.587   5.578  0.4205  0.1377  0.3698
   11DOPE  H10R 1347   1.129   3.622   5.570  0.6698 -0.6289  0.1477
   11DOPE  C211 1348   0.916   3.678   5.516  0.1162  0.5602  0.1442
   11DOPE  H11R 1349   0.877   3.757   5.584 -0.7477  0.0221  0.2880
   11DOPE  H11S 1350   0.827   3.618   5.487  0.7660 -0.5177  0.3576
   11DOPE  C212 1351   0.964   3.732   5.377 -0.5378  0.2525  0.6489
   11DOPE  H12R 1352   1.066   3.773   5.391 -0.2047 -0.5513  0.6216
   11DOPE  H12S 1353   0.895   3.810   5.337 -0.5817 -0.2683 -0.3126
   11DOPE  C213 1354   0.948   3.628   5.267 -0.0082  0.4885  0.5084
   11DOPE  H13R 1355   0.840   3.610   5.248  0.0403 -0.5632  1.1114
   11DOPE  H13S 1356   0.996   3.528   5.282 -0.7709  0.1063  0.4778
   11DOPE  C214 1357   1.016   3.651   5.129 -0.1729  0.6848 -0.6808
   11DOPE  H14R 1358   1.124   3.632   5.147 -0.0834 -0.5421 -2.2688
   11DOPE  H14S 1359   0.999   3.756   5.098  0.9942  1.1029  0.0509
   11DOPE  C215 1360   0.965   3.553   5.020 -0.4598 -0.8282  0.5479
   11DOPE  H15R 1361   0.858   3.571   4.997 -0.4130 -1.0628  0.1253
   11DOPE  H15S 1362   0.976   3.447   5.052 -1.8008 -0.7098  1.4434
   11DOPE  C216 1363   1.039   3.581   4.885 -0.4036 -0.0851 -0.5158
   11DOPE  H16R 1364   1.150   3.576   4.898 -0.3923  1.3319  0.1730
   11DOPE  H16S 1365   1.027   3.687   4.851  0.1476  0.8379  1.9686
   11DOPE  C217 1366   0.995   3.481   4.770 -0.5747  0.2186  0.3573
   11DOPE  H17R 1367   0.885   3.484   4.783 -0.6714 -0.3531 -0.2456
   11DOPE  H17S 1368   1.041   3.381   4.790  0.8685  0.7035 -0.3613
   11DOPE  C218 1369   1.024   3.523   4.631  0.2479 -0.3810  0.2746
   11DOPE  H18R 1370   0.995   3.628   4.611  0.9832 -0.1109  0.6055
   11DOPE  H18S 1371   0.989   3.453   4.551 -1.5358  1.2627 -0.4523
   11DOPE  H18T 1372   1.133   3.529   4.611 -0.1349 -0.4444 -2.1170
   11DOPE   C33 1373   0.412   3.052   6.077 -0.1416  0.4672  0.0861
   11DOPE   H3X 1374   0.395   2.948   6.111 -0.2774 -0.1374 -1.7298
   11DOPE   H3Y 1375   0.507   3.094   6.117  0.5699 -0.2718 -0.7873
   11DOPE   C34 1376   0.429   3.026   5.924 -0.2877 -0.0414  0.1994
   11DOPE   H4X 1377   0.500   2.942   5.911 -0.3686 -0.1003  0.1302
   11DOPE   H4Y 1378   0.328   3.009   5.879  0.2460 -0.7138 -0.7833
   11DOPE   C35 1379   0.488   3.152   5.858  0.4873 -0.7122  0.4533
   11DOPE   H5X 1380   0.599   3.155   5.868  0.6594 -0.0768 -1.2284
   11DOPE   H5Y 1381   0.447   3.238   5.915 -2.4370 -2.5288  1.3135
   11DOPE   C36 1382   0.448   3.172   5.709 -0.0101 -0.4254 -0.1509
   11DOPE   H6X 1383   0.338   3.158   5.709 -0.1690  0.7195  0.7733
   11DOPE   H6Y 1384   0.497   3.087   5.656 -1.6102 -0.9440 -0.8513
   11DOPE   C37 1385   0.501   3.303   5.646 -0.1584  0.2323  0.1070
   11DOPE   H7X 1386   0.502   3.379   5.727 -0.0762  0.9192 -0.5264
   11DOPE   H7Y 1387   0.598   3.276   5.599 -0.6643 -2.0297  0.2667
   11DOPE   C38 1388   0.414   3.365   5.534 -0.8342  0.2187 -0.0702
   11DOPE   H8X 1389   0.476   3.443   5.485  1.1789 -2.4138 -1.9988
   11DOPE   H8Y 1390   0.320   3.408   5.577 -1.6162  0.9431 -2.3723
   11DOPE   C39 1391   0.364   3.266   5.440  0.2030  0.1069  0.4395
   11DOPE   H9X 1392   0.315   3.180   5.489 -0.9631 -0.0015 -0.8558
   11DOPE  C310 1393   0.368   3.258   5.305 -0.1811 -0.5545 -0.0111
   11DOPE  H10X 1394   0.303   3.177   5.270 -0.4494  0.5190 -2.1907
   11DOPE  C311 1395   0.425   3.357   5.209 -0.3513  0.3787  0.5619
   11DOPE  H11X 1396   0.385   3.346   5.106  1.6415  1.9989 -0.4758
   11DOPE  H11Y 1397   0.408   3.466   5.227  0.6724  0.6498 -0.0137
   11DOPE  C312 1398   0.578   3.332   5.201  0.2602  0.5195  0.0438
   11DOPE  H12X 1399   0.630   3.334   5.299  0.3622  0.3615 -0.0062
   11DOPE  H12Y 1400   0.613   3.417   5.139 -0.6194  2.3137  1.8815
   11DOPE  C313 1401   0.619   3.204   5.127  0.1428 -0.3311  0.7326
   11DOPE  H13X 1402   0.583   3.119   5.188  0.1915 -0.8829  0.0119
   11DOPE  H13Y 1403   0.554   3.205   5.037  1.4388 -1.2428 -0.2629
   11DOPE  C314 1404   0.773   3.189   5.106  0.1472  0.5420 -0.0308
   11DOPE  H14X 1405   0.830   3.195   5.201  0.0750  0.3726  0.0228
   11DOPE  H14Y 1406   0.788   3.268   5.029 -2.2759 -0.1690 -1.3204
   11DOPE  C315 1407   0.814   3.056   5.040  0.1038  0.3210  0.8390
   11DOPE  H15X 1408   0.775   3.055   4.936 -0.5287  0.7099  1.0677
   11DOPE  H15Y 1409   0.759   2.974   5.091  0.0222  0.8566  1.6255
   11DOPE  C316 1410   0.959   3.024   5.055 -0.2027  0.2814 -0.0876
   11DOPE  H16X 1411   0.974   2.987   5.158 -0.0974 -0.4848 -0.3711
   11DOPE  H16Y 1412   1.019   3.116   5.039 -0.9476  1.2431  2.2003
   11DOPE  C317 1413   1.018   2.920   4.962 -0.0445  0.6214  0.3964
   11DOPE  H17X 1414   1.073   2.978   4.884 -1.6448  0.4041 -0.9384
   11DOPE  H17Y 1415   1.093   2.862   5.020 -1.2102 -1.3956 -0.0347
   11DOPE  C318 1416   0.936   2.817   4.892  0.5203  0.0682 -0.4821
   11DOPE  H18X 1417   0.912   2.731   4.959 -0.7910 -0.2828 -1.3761
   11DOPE  H18Y 1418   0.842   2.858   4.849 -0.4978  0.3979  1.8641
   11DOPE  H18Z 1419   0.991   2.766   4.811  0.5455  1.7523 -1.5656
   12DOPE     N 1420   3.125   6.344   7.058 -0.6569  0.2946 -0.0970
   12DOPE   HN1 1421   3.209   6.301   7.014 -0.1017  0.2515  0.9667
   12DOPE   HN2 1422   3.095   6.276   7.130  0.9445 -2.4594 -1.8132
   12DOPE   HN3 1423   3.047   6.352   6.990 -0.6603 -4.6181 -1.0448
   12DOPE   C12 1424   3.144   6.485   7.116  0.3302  0.4665  0.6008
   12DOPE  H12A 1425   3.204   6.481   7.210 -1.1782  0.8079  1.6088
   12DOPE  H12B 1426   3.043   6.523   7.141 -0.0302  0.8991 -1.3700
   12DOPE   C11 1427   3.217   6.567   7.008  0.4162 -0.4908 -0.5244
   12DOPE  H11A 1428   3.221   6.671   7.046 -0.7788 -0.0678 -1.5025
   12DOPE  H11B 1429   3.156   6.586   6.917 -0.2069  1.2076  0.2135
   12DOPE     P 1430   3.478   6.577   7.003 -0.2872  0.0428 -0.2259
   12DOPE   O13 1431   3.580   6.500   6.932 -0.2354  0.2985  0.0231
   12DOPE   O14 1432   3.488   6.592   7.150 -0.0478  0.3101 -0.4431
   12DOPE   O11 1433   3.461   6.721   6.939 -0.3281 -0.2303 -0.5280
   12DOPE   O12 1434   3.340   6.511   6.971 -0.1926 -0.1769  0.1295
   12DOPE    C1 1435   3.425   6.725   6.804  0.5068 -0.3950  0.9465
   12DOPE    HA 1436   3.362   6.641   6.768 -1.1124  0.9710  0.4738
   12DOPE    HB 1437   3.514   6.735   6.739 -0.4422  2.1976 -0.0486
   12DOPE    C2 1438   3.335   6.846   6.773  0.6839  0.0833 -0.1140
   12DOPE    HS 1439   3.255   6.847   6.850  1.7089  0.6941  0.9815
   12DOPE   O21 1440   3.276   6.807   6.649 -0.4460 -0.4466  0.0017
   12DOPE   C21 1441   3.184   6.878   6.597 -0.0444 -0.3706 -0.1791
   12DOPE   O22 1442   3.133   6.977   6.646  0.4040 -0.1531  0.5274
   12DOPE   C22 1443   3.148   6.805   6.470  0.2233  0.1252  0.1748
   12DOPE   H2R 1444   3.119   6.704   6.507 -0.2716  0.4314  0.6412
   12DOPE   H2S 1445   3.226   6.791   6.392 -2.1278 -3.9158 -1.7483
   12DOPE    C3 1446   3.395   6.990   6.770  0.3947 -0.6170  0.1466
   12DOPE    HX 1447   3.431   7.014   6.872  2.8340 -1.6763 -0.3906
   12DOPE    HY 1448   3.317   7.067   6.755  1.6724  0.8935  1.0053
   12DOPE   O31 1449   3.503   6.988   6.677  0.0815  0.4177 -0.1102
   12DOPE   C31 1450   3.482   7.039   6.557 -1.1337 -0.0837 -0.5481
   12DOPE   O32 1451   3.380   7.093   6.518 -0.3247  0.5484  0.0252
   12DOPE   C32 1452   3.614   7.041   6.481  0.3782  0.6083 -0.2746
   12DOPE   H2X 1453   3.625   7.146   6.448 -2.3515  0.4538 -1.9915
   12DOPE   H2Y 1454   3.700   7.011   6.544  0.5106 -0.7127 -1.0450
   12DOPE   C23 1455   3.030   6.875   6.406  0.4901  0.5537  0.6586
   12DOPE   H3R 1456   3.051   6.980   6.378 -0.1278  0.3684 -0.5307
   12DOPE   H3S 1457   2.949   6.864   6.482  0.4299 -1.1516  0.3885
   12DOPE   C24 1458   2.986   6.786   6.283  0.0479  0.6571  0.3217
   12DOPE   H4R 1459   2.976   6.678   6.309 -0.4968  0.7657  0.5936
   12DOPE   H4S 1460   3.060   6.804   6.203 -1.4265  0.1137 -1.2187
   12DOPE   C25 1461   2.847   6.828   6.237 -0.1667 -0.2024 -0.2763
   12DOPE   H5R 1462   2.846   6.939   6.234  2.0091 -0.1000  0.9264
   12DOPE   H5S 1463   2.772   6.804   6.317  1.1128 -2.6653  0.2983
   12DOPE   C26 1464   2.796   6.752   6.124 -0.1359 -0.0788  0.4809
   12DOPE   H6R 1465   2.812   6.644   6.145 -2.1448 -0.8772 -1.5976
   12DOPE   H6S 1466   2.859   6.776   6.036 -2.0730  1.5612 -0.5605
   12DOPE   C27 1467   2.652   6.773   6.084  0.4231 -0.1162  0.3599
   12DOPE   H7R 1468   2.622   6.878   6.103  0.6722  0.2407 -1.0937
   12DOPE   H7S 1469   2.602   6.705   6.156  0.5331  0.1764  0.7137
   12DOPE   C28 1470   2.610   6.721   5.940 -0.4831 -0.0935  0.0208
   12DOPE   H8R 1471   2.501   6.729   5.921 -0.2168  2.5811 -0.7515
   12DOPE   H8S 1472   2.609   6.610   5.942  0.9532 -0.1126  0.6406
   12DOPE   C29 1473   2.692   6.787   5.838  0.3472 -0.6162 -0.0052
   12DOPE   H9R 1474   2.800   6.784   5.858  0.2674 -0.0704  0.5262
   12DOPE  C210 1475   2.643   6.865   5.735  0.5300 -0.1372 -0.3310
   12DOPE  H10R 1476   2.711   6.919   5.669 -1.5732  1.7262 -1.1026
   12DOPE  C211 1477   2.498   6.898   5.702 -0.3289  0.3535  0.0803
   12DOPE  H11R 1478   2.460   6.986   5.757 -0.0975  0.0227  0.7866
   12DOPE  H11S 1479   2.430   6.821   5.744  0.0162 -0.4098 -0.7220
   12DOPE  C212 1480   2.474   6.908   5.548  0.6607 -0.1529 -0.0559
   12DOPE  H12R 1481   2.367   6.883   5.532  0.1138 -0.2151  3.0163
   12DOPE  H12S 1482   2.533   6.833   5.492 -1.0032  0.4767 -2.8600
   12DOPE  C213 1483   2.507   7.049   5.489 -0.3578  0.0950 -0.2521
   12DOPE  H13R 1484   2.604   7.091   5.522 -0.9311  1.2865 -0.0443
   12DOPE  H13S 1485   2.434   7.122   5.527 -2.2530 -2.7403  2.0116
   12DOPE  C214 1486   2.501   7.057   5.335 -0.5729  0.3575 -1.0215
   12DOPE  H14R 1487   2.402   7.025   5.294 -0.9040 -1.7806  1.2242
   12DOPE  H14S 1488   2.569   6.977   5.300 -0.7550  0.5081 -1.7436
   12DOPE  C215 1489   2.562   7.186   5.288 -0.0298 -0.4548 -0.3067
   12DOPE  H15R 1490   2.669   7.160   5.270 -0.1695 -0.8083 -0.6293
   12DOPE  H15S 1491   2.563   7.268   5.363 -0.6844 -1.4957  0.9037
   12DOPE  C216 1492   2.498   7.248   5.160  0.6759  0.0675 -0.1068
   12DOPE  H16R 1493   2.390   7.271   5.169  0.3238 -0.6814 -1.8798
   12DOPE  H16S 1494   2.488   7.175   5.076  1.7351  0.8060 -0.8997
   12DOPE  C217 1495   2.571   7.382   5.116  0.0781 -0.0356 -0.4024
   12DOPE  H17R 1496   2.596   7.433   5.211  1.4634 -3.2890  1.1319
   12DOPE  H17S 1497   2.515   7.430   5.033 -2.1049 -1.7561 -0.0310
   12DOPE  C218 1498   2.710   7.347   5.061  0.1771  0.1920 -0.3563
   12DOPE  H18R 1499   2.702   7.304   4.959  0.5239  1.8476 -1.1134
   12DOPE  H18S 1500   2.773   7.293   5.135  1.4833 -1.2968 -2.4191
   12DOPE  H18T 1501   2.762   7.444   5.051 -0.0997  0.5308  1.2181
   12DOPE   C33 1502   3.633   6.960   6.345  0.1904 -0.0262  0.0022
   12DOPE   H3X 1503   3.557   6.986   6.268 -2.0461  0.6401  2.2669
   12DOPE   H3Y 1504   3.647   6.854   6.373 -1.3170 -0.1235  0.4633
   12DOPE   C34 1505   3.772   6.987   6.283  0.3479  0.0178  0.4880
   12DOPE   H4X 1506   3.774   7.087   6.233  0.8469 -0.1232  0.2267
   12DOPE   H4Y 1507   3.851   6.992   6.360 -0.5799 -0.1055  1.4669
   12DOPE   C35 1508   3.809   6.882   6.178 -0.1974  0.0660 -0.0852
   12DOPE   H5X 1509   3.808   6.779   6.219 -0.4370 -0.4345 -1.2921
   12DOPE   H5Y 1510   3.913   6.888   6.141  0.3249 -1.8618  0.9688
   12DOPE   C36 1511   3.722   6.883   6.047 -0.0336 -0.1959 -0.0498
   12DOPE   H6X 1512   3.613   6.878   6.067 -0.0096  0.8658  0.3926
   12DOPE   H6Y 1513   3.747   6.784   6.002  2.8893  0.9637 -1.1890
   12DOPE   C37 1514   3.759   6.991   5.944  0.1762 -1.0505  0.1704
   12DOPE   H7X 1515   3.751   7.093   5.989  1.0702  0.4794 -2.8031
   12DOPE   H7Y 1516   3.868   6.982   5.923  0.1207 -0.5164 -0.4082
   12DOPE   C38 1517   3.672   6.997   5.822 -0.0311  0.1421 -0.2366
   12DOPE   H8X 1518   3.581   7.055   5.848  0.8150  1.4521 -0.1266
   12DOPE   H8Y 1519   3.642   6.893   5.796  0.8679  0.1747 -1.4610
   12DOPE   C39 1520   3.738   7.057   5.703  0.3036 -1.0502 -0.0897
   12DOPE   H9X 1521   3.809   6.993   5.648 -1.2556 -1.9908 -1.0675
   12DOPE  C310 1522   3.723   7.186   5.665 -0.1368 -0.3237 -0.1706
   12DOPE  H10X 1523   3.790   7.236   5.593  1.2131 -0.9968  0.5623
   12DOPE  C311 1524   3.637   7.279   5.741  0.3739  0.4859  0.1488
   12DOPE  H11X 1525   3.634   7.254   5.849 -1.5264  0.7687  0.1959
   12DOPE  H11Y 1526   3.676   7.383   5.737  0.3300  0.5861  1.7115
   12DOPE  C312 1527   3.489   7.281   5.687  0.0276 -0.0291 -0.6374
   12DOPE  H12X 1528   3.441   7.367   5.738 -0.8566 -1.1793  0.5414
   12DOPE  H12Y 1529   3.445   7.183   5.713  2.1740 -0.8254  0.2121
   12DOPE  C313 1530   3.481   7.307   5.531 -0.1495  0.0476  0.4962
   12DOPE  H13X 1531   3.517   7.406   5.493  0.1257 -0.3950 -0.4276
   12DOPE  H13Y 1532   3.541   7.234   5.473  1.3180  0.3547  1.5945
   12DOPE  C314 1533   3.335   7.279   5.481  0.1632  0.3746  0.1661
   12DOPE  H14X 1534   3.271   7.363   5.517 -1.0157 -1.4040  2.5027
   12DOPE  H14Y 1535   3.308   7.190   5.543  1.8396  0.4325  1.0243
   12DOPE  C315 1536   3.323   7.277   5.326  0.0834 -0.5343 -0.3169
   12DOPE  H15X 1537   3.393   7.353   5.286 -0.4147 -0.9222 -2.0352
   12DOPE  H15Y 1538   3.215   7.283   5.302  0.1278  0.6260 -0.2492
   12DOPE  C316 1539   3.369   7.152   5.256 -0.1211 -0.1331  0.8202
   12DOPE  H16X 1540   3.285   7.082   5.238  1.1189 -1.1750 -1.2920
   12DOPE  H16Y 1541   3.439   7.094   5.319 -0.0855 -0.2271  0.6941
   12DOPE  C317 1542   3.438   7.167   5.117 -0.7514  0.2170 -0.1911
   12DOPE  H17X 1543   3.519   7.242   5.125 -0.1060 -0.5402  0.4945
   12DOPE  H17Y 1544   3.498   7.074   5.115 -1.9443 -0.7708  2.7544
   12DOPE  C318 1545   3.353   7.186   4.988 -0.5615 -0.2042 -0.0510
   12DOPE  H18X 1546   3.281   7.271   4.992 -0.5336 -0.1681 -0.2711
   12DOPE  H18Y 1547   3.417   7.189   4.897 -1.5046  1.6239 -0.6972
   12DOPE  H18Z 1548   3.296   7.092   4.970  1.6954 -1.5548 -0.6058
   13DOPE     N 1549   1.975   1.005   7.246 -0.3455 -0.5131  0.0406
   13DOPE   HN1 1550   2.056   0.989   7.183  0.4060 -1.3599  1.1855
   13DOPE   HN2 1551   1.962   1.109   7.248  0.7293 -0.3751  0.1747
   13DOPE   HN3 1552   1.993   0.980   7.346  0.7474  3.0262  0.8714
   13DOPE   C12 1553   1.859   0.937   7.182  0.0852 -0.2327 -0.6740
   13DOPE  H12A 1554   1.775   0.939   7.254 -0.3891  2.3444 -1.2119
   13DOPE  H12B 1555   1.879   0.831   7.156 -2.7088 -0.8804 -0.4777
   13DOPE   C11 1556   1.799   1.014   7.066 -0.1542 -0.4297 -0.1200
   13DOPE  H11A 1557   1.710   0.958   7.032 -1.6654  1.5125  0.4581
   13DOPE  H11B 1558   1.879   1.011   6.989  0.5128 -0.8417  0.5753
   13DOPE     P 1559   1.695   1.230   6.981 -0.1395 -0.5071 -0.0723
   13DOPE   O13 1560   1.687   1.364   7.038 -0.3635 -0.5533  0.1723
   13DOPE   O14 1561   1.567   1.177   6.925 -0.1997 -0.1664 -0.4581
   13DOPE   O11 1562   1.809   1.230   6.872  0.3289 -0.2250  0.2272
   13DOPE   O12 1563   1.754   1.143   7.095 -0.7743 -0.1708 -1.1464
   13DOPE    C1 1564   1.923   1.315   6.882 -0.0832 -0.2244 -0.0808
   13DOPE    HA 1565   1.926   1.390   6.963 -1.0227  2.3234 -2.2567
   13DOPE    HB 1566   1.941   1.380   6.794 -0.7818  1.2743  0.8396
   13DOPE    C2 1567   2.053   1.229   6.885 -0.7529 -0.0051  0.0304
   13DOPE    HS 1568   2.064   1.174   6.981 -1.8173 -1.8409 -0.8533
   13DOPE   O21 1569   2.162   1.321   6.861 -0.1778  0.0935  0.2562
   13DOPE   C21 1570   2.292   1.276   6.894  0.1530  0.5124  0.3761
   13DOPE   O22 1571   2.316   1.180   6.961  0.4331 -0.0231 -0.1378
   13DOPE   C22 1572   2.407   1.355   6.823  1.0186  0.0241 -0.5564
   13DOPE   H2R 1573   2.475   1.396   6.901  0.0437  0.7504 -0.0659
   13DOPE   H2S 1574   2.363   1.436   6.761 -1.8979 -2.2875 -1.7574
   13DOPE    C3 1575   2.058   1.110   6.777 -0.2508 -0.5662 -0.2028
   13DOPE    HX 1576   1.955   1.068   6.782 -0.0125 -1.1734 -0.3851
   13DOPE    HY 1577   2.139   1.042   6.808  0.9492 -0.4815 -2.8277
   13DOPE   O31 1578   2.086   1.158   6.640  0.2079 -0.1776  0.9549
   13DOPE   C31 1579   2.072   1.052   6.562 -0.3323  0.9087  0.1757
   13DOPE   O32 1580   2.045   0.939   6.606  0.0572 -0.2842 -0.1121
   13DOPE   C32 1581   2.091   1.083   6.411 -0.9122 -0.2979 -0.2713
   13DOPE   H2X 1582   2.076   1.192   6.396  2.5847  0.6701  2.0918
   13DOPE   H2Y 1583   2.197   1.062   6.383 -1.4705 -0.0342 -2.8051
   13DOPE   C23 1584   2.493   1.277   6.719 -0.6647 -0.6868  1.2703
   13DOPE   H3R 1585   2.525   1.181   6.763  0.6712 -0.7692  0.2009
   13DOPE   H3S 1586   2.579   1.345   6.701 -0.5377 -0.5854  2.2096
   13DOPE   C24 1587   2.414   1.244   6.589 -0.2254  0.1963 -0.1762
   13DOPE   H4R 1588   2.305   1.268   6.598 -0.5022 -1.4220  1.2314
   13DOPE   H4S 1589   2.440   1.137   6.582  0.1225  0.0864  2.0492
   13DOPE   C25 1590   2.472   1.320   6.466  0.0965  0.1727 -0.1115
   13DOPE   H5R 1591   2.580   1.297   6.472 -0.3523 -1.7238  1.9215
   13DOPE   H5S 1592   2.442   1.426   6.477 -0.7732 -0.1351  0.6240
   13DOPE   C26 1593   2.411   1.245   6.346  0.0727 -0.0124  0.5972
   13DOPE   H6R 1594   2.301   1.260   6.338  0.0138 -1.4213 -2.2258
   13DOPE   H6S 1595   2.430   1.136   6.342  0.2910 -0.0077  1.2985
   13DOPE   C27 1596   2.475   1.288   6.213  0.2677 -0.1334 -0.1964
   13DOPE   H7R 1597   2.584   1.266   6.210  0.3353  0.0950  0.3999
   13DOPE   H7S 1598   2.465   1.399   6.219 -1.5766 -0.3127  0.7796
   13DOPE   C28 1599   2.388   1.238   6.098  0.2490 -0.5641 -0.4376
   13DOPE   H8R 1600   2.284   1.265   6.125  1.0833  1.2342  1.1876
   13DOPE   H8S 1601   2.388   1.127   6.094  0.6976 -0.5495 -0.9717
   13DOPE   C29 1602   2.429   1.285   5.965 -0.1321 -0.8754  0.8924
   13DOPE   H9R 1603   2.516   1.238   5.918 -0.5834 -1.8094  0.9817
   13DOPE  C210 1604   2.368   1.382   5.894  0.1262  0.3075 -0.1391
   13DOPE  H10R 1605   2.403   1.392   5.790 -1.5801 -1.7279 -0.9799
   13DOPE  C211 1606   2.241   1.464   5.933 -0.2842  0.0171  0.3529
   13DOPE  H11R 1607   2.232   1.539   5.852 -2.0228  1.8818  2.1662
   13DOPE  H11S 1608   2.254   1.523   6.027 -1.4982 -0.6005  0.9285
   13DOPE  C212 1609   2.105   1.387   5.948  0.6745 -0.3072  0.2056
   13DOPE  H12R 1610   2.105   1.327   6.042 -1.3305  2.2915  1.9994
   13DOPE  H12S 1611   2.088   1.323   5.859  2.3576  0.4663 -0.7052
   13DOPE  C213 1612   1.985   1.475   5.977  0.1506  0.3802  0.4571
   13DOPE  H13R 1613   1.962   1.524   5.880 -0.2118 -1.0806 -0.2127
   13DOPE  H13S 1614   2.001   1.558   6.049  0.8989 -0.0561  0.8036
   13DOPE  C214 1615   1.866   1.391   6.028  0.3562 -0.7169 -0.0224
   13DOPE  H14R 1616   1.904   1.357   6.127  0.3438 -0.0011  0.2316
   13DOPE  H14S 1617   1.857   1.297   5.968  2.5317 -0.6716 -0.4950
   13DOPE  C215 1618   1.732   1.461   6.033 -0.0730  0.2555  0.1742
   13DOPE  H15R 1619   1.747   1.540   6.109 -0.6650  0.9898 -0.4599
   13DOPE  H15S 1620   1.653   1.387   6.058  0.9069 -1.0565 -0.5000
   13DOPE  C216 1621   1.684   1.541   5.913 -0.4051  0.2628  0.0597
   13DOPE  H16R 1622   1.766   1.616   5.903  2.2118 -2.3284  0.7669
   13DOPE  H16S 1623   1.594   1.596   5.949 -1.1013 -1.8781  1.7927
   13DOPE  C217 1624   1.675   1.474   5.778  0.3427  0.0133  0.3398
   13DOPE  H17R 1625   1.587   1.406   5.788  0.7554 -0.7497 -0.9667
   13DOPE  H17S 1626   1.761   1.410   5.751 -1.0757 -2.6454  1.6544
   13DOPE  C218 1627   1.647   1.569   5.664 -0.2953  0.5500  0.4544
   13DOPE  H18R 1628   1.737   1.627   5.633 -0.2485  0.8566  1.1492
   13DOPE  H18S 1629   1.564   1.639   5.688  0.0337  1.3336 -0.6152
   13DOPE  H18T 1630   1.606   1.506   5.582  0.0399 -2.5298  2.4882
   13DOPE   C33 1631   2.005   1.006   6.316 -0.1974  0.4632  0.7974
   13DOPE   H3X 1632   1.900   1.040   6.328  0.1427  1.8035  0.1345
   13DOPE   H3Y 1633   2.008   0.898   6.341  0.5667  0.3402  0.2000
   13DOPE   C34 1634   2.059   1.025   6.176  0.2521 -0.2657 -0.4475
   13DOPE   H4X 1635   2.079   1.133   6.157  1.1391 -0.5118 -0.9724
   13DOPE   H4Y 1636   2.146   0.958   6.160 -0.3969 -0.6227 -2.8452
   13DOPE   C35 1637   1.969   0.978   6.060  0.1411  0.6372 -0.0281
   13DOPE   H5X 1638   1.867   1.017   6.080 -0.4640 -1.5501  1.6097
   13DOPE   H5Y 1639   1.961   0.867   6.053  0.0166  0.3613  2.9431
   13DOPE   C36 1640   2.021   1.025   5.922  0.1364 -0.1318  0.1633
   13DOPE   H6X 1641   2.039   1.135   5.925 -1.0970  0.0637  0.8637
   13DOPE   H6Y 1642   1.939   1.013   5.849 -1.6693 -1.0103  2.2278
   13DOPE   C37 1643   2.141   0.943   5.876 -0.5122 -0.7382 -0.4109
   13DOPE   H7X 1644   2.203   0.961   5.967  0.2698  0.6350 -1.1840
   13DOPE   H7Y 1645   2.118   0.836   5.860 -0.2456 -0.5901 -1.9039
   13DOPE   C38 1646   2.225   0.992   5.747 -0.2722 -0.0487 -0.4592
   13DOPE   H8X 1647   2.320   0.933   5.745  0.3511  0.9418 -1.6994
   13DOPE   H8Y 1648   2.240   1.100   5.770 -1.0352  0.2642 -1.3986
   13DOPE   C39 1649   2.148   0.978   5.622  0.1481  0.1680  0.4265
   13DOPE   H9X 1650   2.113   0.876   5.598  0.4534  0.2575 -0.4599
   13DOPE  C310 1651   2.110   1.074   5.533  0.7115  0.0501  0.2627
   13DOPE  H10X 1652   2.047   1.048   5.446 -0.9950 -1.9024  1.9619
   13DOPE  C311 1653   2.140   1.218   5.538 -0.0726 -0.0391 -0.2933
   13DOPE  H11X 1654   2.195   1.243   5.631 -1.3195 -0.5283  0.6099
   13DOPE  H11Y 1655   2.192   1.244   5.443  0.3655 -0.7701 -0.2568
   13DOPE  C312 1656   2.011   1.309   5.553 -0.5164  0.1871 -0.6652
   13DOPE  H12X 1657   1.949   1.289   5.643  1.6851  5.2044  2.3918
   13DOPE  H12Y 1658   1.953   1.299   5.459  0.5798  2.2856 -1.6293
   13DOPE  C313 1659   2.040   1.460   5.562 -0.3697  0.6809  0.1152
   13DOPE  H13X 1660   1.944   1.508   5.589 -0.7201  1.1988 -1.9032
   13DOPE  H13Y 1661   2.118   1.483   5.638  1.2744 -1.6787 -0.7308
   13DOPE  C314 1662   2.098   1.525   5.438  0.3340 -0.2990 -0.0361
   13DOPE  H14X 1663   2.193   1.470   5.422 -0.8096 -2.7696  1.1748
   13DOPE  H14Y 1664   2.127   1.624   5.480  0.8153 -1.2205  1.9510
   13DOPE  C315 1665   2.002   1.528   5.316 -0.0619 -0.0819 -0.0114
   13DOPE  H15X 1666   1.911   1.584   5.348 -1.2963 -0.9935 -1.7977
   13DOPE  H15Y 1667   1.970   1.423   5.301  0.4141 -0.0611 -1.2409
   13DOPE  C316 1668   2.066   1.582   5.183  0.9508 -0.1710 -0.0776
   13DOPE  H16X 1669   2.135   1.504   5.144  0.2068 -1.0759  0.3516
   13DOPE  H16Y 1670   2.114   1.681   5.199  0.7825  0.4027 -2.7682
   13DOPE  C317 1671   1.957   1.621   5.082 -0.4759  0.6233 -0.2565
   13DOPE  H17X 1672   1.886   1.535   5.078  0.4027 -0.1479  0.1457
   13DOPE  H17Y 1673   1.904   1.705   5.132 -0.5630 -0.2379  1.1720
   13DOPE  C318 1674   2.007   1.662   4.949  0.3342 -0.3479  0.5049
   13DOPE  H18X 1675   2.079   1.746   4.958 -0.7608  0.6318  0.3330
   13DOPE  H18Y 1676   2.056   1.581   4.891 -0.2882  0.6764 -1.5485
   13DOPE  H18Z 1677   1.927   1.701   4.882 -0.0658 -2.3327 -0.2386
   14DOPE     N 1678   6.739   4.040   7.048  0.6395  0.0746  0.0862
   14DOPE   HN1 1679   6.769   3.975   7.124  0.4500  0.3407  0.3896
   14DOPE   HN2 1680   6.791   4.130   7.055 -0.3391  0.9057 -2.2972
   14DOPE   HN3 1681   6.636   4.055   7.044  0.4907 -1.1258 -2.1613
   14DOPE   C12 1682   6.779   3.991   6.918 -0.3345  0.5088  0.5787
   14DOPE  H12A 1683   6.742   4.064   6.842  1.3678  1.8583  0.9652
   14DOPE  H12B 1684   6.733   3.892   6.902  1.2478 -0.4231  1.5240
   14DOPE   C11 1685   6.935   3.991   6.899 -0.1659  0.1091 -0.3598
   14DOPE  H11A 1686   6.951   3.947   6.798  1.6408  1.1228 -0.5586
   14DOPE  H11B 1687   6.976   3.936   6.986 -0.7115  0.5085  0.1588
   14DOPE     P 1688   7.130   4.144   6.817  0.0058  0.1937  0.0654
   14DOPE   O13 1689   7.234   4.058   6.876 -0.4930  0.2105  1.0038
   14DOPE   O14 1690   7.168   4.278   6.803 -0.7524 -1.1365 -0.5542
   14DOPE   O11 1691   7.100   4.086   6.669  0.5475  0.3416 -0.5602
   14DOPE   O12 1692   6.993   4.121   6.898 -0.4103 -0.0303 -0.2031
   14DOPE    C1 1693   6.983   4.130   6.595 -0.1074 -0.3127  0.8533
   14DOPE    HA 1694   6.914   4.186   6.661 -1.6501 -3.3931  2.0414
   14DOPE    HB 1695   6.933   4.042   6.549  0.5788 -0.4975  0.4384
   14DOPE    C2 1696   7.016   4.236   6.486 -0.4876 -0.5453 -0.3445
   14DOPE    HS 1697   7.017   4.335   6.535 -1.6517 -1.2967  1.2899
   14DOPE   O21 1698   6.913   4.218   6.382  0.6043 -0.3441  0.1016
   14DOPE   C21 1699   6.861   4.325   6.331  0.1393  0.4018  0.4803
   14DOPE   O22 1700   6.895   4.440   6.349  0.2626  0.1120 -0.5158
   14DOPE   C22 1701   6.740   4.292   6.254  0.0865  0.2446 -0.9402
   14DOPE   H2R 1702   6.672   4.266   6.338  1.4746  0.8210  0.4085
   14DOPE   H2S 1703   6.757   4.207   6.184  1.5624 -1.1458  1.0081
   14DOPE    C3 1704   7.156   4.222   6.422 -0.0632  0.0216 -0.0799
   14DOPE    HX 1705   7.168   4.121   6.375 -0.7194  0.2677 -0.8081
   14DOPE    HY 1706   7.232   4.220   6.503 -2.4989  1.2691  2.3952
   14DOPE   O31 1707   7.193   4.324   6.324  0.0461 -0.3770  0.3568
   14DOPE   C31 1708   7.236   4.440   6.376 -0.0823 -0.0149 -0.6630
   14DOPE   O32 1709   7.238   4.469   6.497 -0.1882 -0.0551  0.1865
   14DOPE   C32 1710   7.307   4.520   6.260 -0.1960  0.0755 -0.7679
   14DOPE   H2X 1711   7.375   4.591   6.313 -0.3615 -0.4296  0.1343
   14DOPE   H2Y 1712   7.365   4.446   6.202  0.0686 -1.6618  1.5589
   14DOPE   C23 1713   6.669   4.406   6.180  1.0185 -0.0109 -0.4531
   14DOPE   H3R 1714   6.713   4.448   6.087 -0.2826  0.9785 -0.6496
   14DOPE   H3S 1715   6.647   4.487   6.253  0.0361 -0.8636  0.2377
   14DOPE   C24 1716   6.521   4.380   6.143 -0.5734 -1.1642 -0.2099
   14DOPE   H4R 1717   6.489   4.482   6.113  0.8006 -0.7759 -0.4304
   14DOPE   H4S 1718   6.469   4.343   6.233  0.6664  0.4103  1.2149
   14DOPE   C25 1719   6.518   4.279   6.025  0.4998 -0.2957  0.3428
   14DOPE   H5R 1720   6.564   4.185   6.062  1.0259 -0.3601 -0.4509
   14DOPE   H5S 1721   6.578   4.319   5.940  0.7649  2.1229  1.5617
   14DOPE   C26 1722   6.373   4.234   5.974 -0.4467  0.1871 -0.2460
   14DOPE   H6R 1723   6.319   4.202   6.066  0.9076 -1.7949 -0.0746
   14DOPE   H6S 1724   6.379   4.142   5.912 -1.2013 -0.7854  1.0614
   14DOPE   C27 1725   6.306   4.352   5.905 -0.4595  0.3507  0.3247
   14DOPE   H7R 1726   6.386   4.400   5.844 -0.5287 -0.8857 -0.7758
   14DOPE   H7S 1727   6.278   4.434   5.975  0.6393  1.4869 -0.5146
   14DOPE   C28 1728   6.199   4.308   5.801  0.5081  0.9256 -0.5317
   14DOPE   H8R 1729   6.112   4.377   5.808 -0.0061  0.1482  1.5947
   14DOPE   H8S 1730   6.150   4.219   5.846 -1.4909  2.2608  0.0314
   14DOPE   C29 1731   6.248   4.301   5.654  0.1937 -0.5456 -0.5576
   14DOPE   H9R 1732   6.328   4.230   5.631  1.9447  1.7353 -1.8723
   14DOPE  C210 1733   6.206   4.378   5.552 -0.0668  0.5631 -0.0808
   14DOPE  H10R 1734   6.251   4.360   5.453  0.7146 -1.3918  0.5879
   14DOPE  C211 1735   6.102   4.485   5.556 -0.2035  0.1040  0.6576
   14DOPE  H11R 1736   6.155   4.579   5.528  1.3144 -0.2132  2.3033
   14DOPE  H11S 1737   6.051   4.509   5.652 -2.4523  2.3604 -0.9607
   14DOPE  C212 1738   5.985   4.455   5.466 -0.1408  0.1382  0.2111
   14DOPE  H12R 1739   6.011   4.446   5.358 -2.6356  0.6708 -0.4931
   14DOPE  H12S 1740   5.902   4.527   5.481 -1.0592 -1.4728  3.9593
   14DOPE  C213 1741   5.926   4.317   5.496  0.6756 -0.4577 -0.3352
   14DOPE  H13R 1742   5.880   4.316   5.597 -1.8745 -0.6354 -1.4050
   14DOPE  H13S 1743   6.002   4.237   5.497  1.4666  0.2721 -0.5177
   14DOPE  C214 1744   5.805   4.285   5.406  0.0010 -0.5737  0.0029
   14DOPE  H14R 1745   5.841   4.284   5.301  1.2572 -0.0480  0.4091
   14DOPE  H14S 1746   5.730   4.365   5.394  0.3756 -0.3115 -0.6827
   14DOPE  C215 1747   5.745   4.161   5.450  0.2235  0.2513 -0.1497
   14DOPE  H15R 1748   5.731   4.155   5.560 -1.8617 -0.1372 -0.3917
   14DOPE  H15S 1749   5.822   4.082   5.436 -0.2005 -0.3485  0.8432
   14DOPE  C216 1750   5.610   4.113   5.379 -0.2044  0.4101  0.3611
   14DOPE  H16R 1751   5.535   4.194   5.381 -2.1563 -1.3089  0.2279
   14DOPE  H16S 1752   5.573   4.027   5.440 -0.4996  0.4283  0.2084
   14DOPE  C217 1753   5.624   4.065   5.232  0.0962  0.3251 -0.2917
   14DOPE  H17R 1754   5.671   4.152   5.181 -0.1918 -0.4450 -1.9275
   14DOPE  H17S 1755   5.522   4.051   5.190 -1.2531 -0.0498  2.8578
   14DOPE  C218 1756   5.712   3.948   5.204  0.2725  0.4995 -0.4075
   14DOPE  H18R 1757   5.680   3.870   5.276  1.0933 -0.4723 -1.0703
   14DOPE  H18S 1758   5.821   3.966   5.216  0.2947  0.9081 -1.1756
   14DOPE  H18T 1759   5.704   3.912   5.099  1.3102 -1.1645  0.0353
   14DOPE   C33 1760   7.212   4.604   6.172 -0.2762 -0.1157  0.1190
   14DOPE   H3X 1761   7.189   4.699   6.225 -1.9436 -0.7849  0.6500
   14DOPE   H3Y 1762   7.123   4.540   6.151  0.3329 -0.8305 -0.3372
   14DOPE   C34 1763   7.275   4.653   6.036 -0.0624  0.6038 -0.4340
   14DOPE   H4X 1764   7.340   4.569   6.003  2.1164  1.8378  0.5578
   14DOPE   H4Y 1765   7.196   4.687   5.965 -1.4756 -2.1310 -0.3115
   14DOPE   C35 1766   7.370   4.770   6.060  0.2427 -0.6052 -0.4848
   14DOPE   H5X 1767   7.445   4.749   6.139 -0.3172  0.2893  0.3032
   14DOPE   H5Y 1768   7.298   4.846   6.097  2.6747  1.3183  0.5800
   14DOPE   C36 1769   7.452   4.810   5.935 -0.1745 -0.0185 -0.2649
   14DOPE   H6X 1770   7.506   4.719   5.903 -1.2385 -0.3691 -1.1446
   14DOPE   H6Y 1771   7.525   4.891   5.953 -1.5920  1.6698 -1.7283
   14DOPE   C37 1772   7.377   4.848   5.806  0.0583 -0.3036 -0.2938
   14DOPE   H7X 1773   7.314   4.767   5.763  0.4060 -0.8590  0.2408
   14DOPE   H7Y 1774   7.315   4.938   5.827  0.0367 -0.2677 -0.5044
   14DOPE   C38 1775   7.476   4.887   5.688 -0.2177 -0.2562 -0.4593
   14DOPE   H8X 1776   7.547   4.801   5.684  1.9809  1.4618 -0.0327
   14DOPE   H8Y 1777   7.531   4.977   5.719  0.5729  0.4279 -3.5231
   14DOPE   C39 1778   7.406   4.913   5.559  0.6303 -0.0713 -0.3556
   14DOPE   H9X 1779   7.359   5.013   5.560 -0.4624 -0.5608  0.9774
   14DOPE  C310 1780   7.414   4.846   5.444  0.0825 -0.4820 -0.5360
   14DOPE  H10X 1781   7.357   4.885   5.358 -1.7188  0.7792  1.1631
   14DOPE  C311 1782   7.493   4.731   5.410  0.2605  0.5777 -0.3149
   14DOPE  H11X 1783   7.548   4.696   5.501 -2.1533 -1.2481  0.5369
   14DOPE  H11Y 1784   7.440   4.644   5.365 -0.9954  0.9220  0.4589
   14DOPE  C312 1785   7.596   4.754   5.310 -0.1410 -0.5898  0.0106
   14DOPE  H12X 1786   7.653   4.848   5.326 -1.1565 -0.1109  0.8811
   14DOPE  H12Y 1787   7.543   4.760   5.213  0.7448 -0.0726 -0.4572
   14DOPE  C313 1788   7.705   4.647   5.302 -0.2702  0.1010 -0.2961
   14DOPE  H13X 1789   7.759   4.660   5.397 -0.5409 -2.1797  0.2354
   14DOPE  H13Y 1790   7.653   4.549   5.295 -1.3829  0.6822 -0.3814
   14DOPE  C314 1791   7.808   4.662   5.183 -0.1421  0.1515  0.4147
   14DOPE  H14X 1792   7.838   4.769   5.174 -0.9000  0.4462  1.1616
   14DOPE  H14Y 1793   7.760   4.634   5.087  0.7709 -3.0600  0.7729
   14DOPE  C315 1794   7.946   4.584   5.199  0.7228  0.3584 -0.6256
   14DOPE  H15X 1795   8.021   4.637   5.261 -1.1256  2.2558  0.1215
   14DOPE  H15Y 1796   7.987   4.570   5.097  1.2813 -1.3320 -0.1993
   14DOPE  C316 1797   7.920   4.446   5.257 -0.1271  0.1041 -0.9484
   14DOPE  H16X 1798   7.867   4.382   5.184 -3.3276  2.5066 -0.9503
   14DOPE  H16Y 1799   7.856   4.448   5.348  0.3982 -0.6341 -0.5539
   14DOPE  C317 1800   8.047   4.368   5.288 -0.1473 -0.3485 -0.0403
   14DOPE  H17X 1801   8.012   4.263   5.286 -3.9508  0.7338  1.4900
   14DOPE  H17Y 1802   8.120   4.374   5.205  0.5152  0.3878  0.5766
   14DOPE  C318 1803   8.116   4.396   5.422  0.1746 -0.1016 -0.7533
   14DOPE  H18X 1804   8.222   4.363   5.424 -0.0409 -0.8227 -0.7183
   14DOPE  H18Y 1805   8.116   4.502   5.455 -0.2281 -0.4113  0.2895
   14DOPE  H18Z 1806   8.054   4.337   5.493 -0.7196  0.1574 -1.2938
   15DOPE     N 1807   1.143   1.034   7.259  0.4799  0.1065  0.2465
   15DOPE   HN1 1808   1.182   1.096   7.333 -0.1728  0.3730  0.3769
   15DOPE   HN2 1809   1.187   0.944   7.286 -0.3887 -0.5725 -0.5492
   15DOPE   HN3 1810   1.168   1.069   7.164  0.7214  0.0583  0.2908
   15DOPE   C12 1811   0.995   1.023   7.275 -0.2444  0.2085 -0.0721
   15DOPE  H12A 1812   0.975   0.963   7.366  0.6439 -1.2251 -0.7754
   15DOPE  H12B 1813   0.950   0.961   7.194 -0.9373 -0.3197  0.7105
   15DOPE   C11 1814   0.935   1.161   7.293  0.4836  0.1650  0.2951
   15DOPE  H11A 1815   0.980   1.208   7.383  1.2990  0.1333 -0.0891
   15DOPE  H11B 1816   0.826   1.155   7.312  0.4103 -0.3477 -0.2608
   15DOPE     P 1817   0.949   1.378   7.143 -0.0104 -0.0764  0.3373
   15DOPE   O13 1818   1.087   1.420   7.101 -0.4261 -0.4275 -0.7106
   15DOPE   O14 1819   0.888   1.435   7.268 -0.0415 -0.9639  0.2948
   15DOPE   O11 1820   0.851   1.386   7.024 -0.5290 -0.3945  0.2636
   15DOPE   O12 1821   0.962   1.224   7.170  0.4469  0.0989  0.2441
   15DOPE    C1 1822   0.841   1.288   6.927 -0.6637  0.6823  0.2541
   15DOPE    HA 1823   0.778   1.204   6.966 -1.7584  1.1199 -0.5082
   15DOPE    HB 1824   0.944   1.255   6.902 -0.2429  0.6039  1.9547
   15DOPE    C2 1825   0.770   1.345   6.803  0.7483 -0.7732 -0.8009
   15DOPE    HS 1826   0.760   1.270   6.721  1.7395 -1.5932 -0.2040
   15DOPE   O21 1827   0.834   1.467   6.747  0.6060  0.0455  0.6937
   15DOPE   C21 1828   0.955   1.450   6.692 -0.1681  0.6568  0.1778
   15DOPE   O22 1829   1.005   1.337   6.679 -0.2256  0.5765  0.1784
   15DOPE   C22 1830   1.023   1.581   6.655 -0.0797  0.2943 -0.0578
   15DOPE   H2R 1831   1.024   1.643   6.747 -0.7581  2.1194 -1.2415
   15DOPE   H2S 1832   0.958   1.644   6.591 -1.6837 -0.0768  1.1422
   15DOPE    C3 1833   0.622   1.381   6.849 -0.2966 -0.2516  0.8235
   15DOPE    HX 1834   0.627   1.451   6.935  1.1717 -0.3716  0.8556
   15DOPE    HY 1835   0.575   1.285   6.878 -1.3123  0.1761  0.6619
   15DOPE   O31 1836   0.544   1.446   6.743 -1.4195 -0.4143 -0.2324
   15DOPE   C31 1837   0.550   1.573   6.721 -0.2204 -0.4304  0.1394
   15DOPE   O32 1838   0.611   1.658   6.786  0.1905  0.2399  0.3222
   15DOPE   C32 1839   0.455   1.614   6.598  0.3162 -0.3766 -0.0489
   15DOPE   H2X 1840   0.490   1.549   6.514  0.9657 -2.0304  1.4435
   15DOPE   H2Y 1841   0.351   1.594   6.629 -0.3185  2.0774 -0.4211
   15DOPE   C23 1842   1.171   1.573   6.598 -0.2773  0.0715 -0.5841
   15DOPE   H3R 1843   1.171   1.499   6.515  0.2208 -0.4456 -0.1301
   15DOPE   H3S 1844   1.240   1.539   6.679 -1.6273 -0.5877  0.3473
   15DOPE   C24 1845   1.228   1.706   6.552  0.0171 -0.4534 -0.0486
   15DOPE   H4R 1846   1.189   1.792   6.610  0.3626 -0.7721  0.6714
   15DOPE   H4S 1847   1.210   1.727   6.444  1.9513  0.6029 -0.2213
   15DOPE   C25 1848   1.384   1.716   6.566  0.0905  0.1640 -0.3081
   15DOPE   H5R 1849   1.439   1.627   6.530  0.0943 -0.3696  0.9664
   15DOPE   H5S 1850   1.420   1.735   6.669 -0.6410  1.6195 -0.2966
   15DOPE   C26 1851   1.450   1.825   6.481  0.4928  0.7292  0.6014
   15DOPE   H6R 1852   1.401   1.925   6.487  0.7295  0.7750  2.1237
   15DOPE   H6S 1853   1.428   1.793   6.377 -1.3149 -1.1192  1.4815
   15DOPE   C27 1854   1.606   1.810   6.504  0.9684 -0.4272 -0.4592
   15DOPE   H7R 1855   1.625   1.714   6.451 -0.4975 -1.1117  0.1790
   15DOPE   H7S 1856   1.635   1.805   6.611  3.1058  1.0929 -0.9038
   15DOPE   C28 1857   1.690   1.934   6.448  0.2558  0.3281 -0.5164
   15DOPE   H8R 1858   1.700   1.921   6.338  1.0589  0.9860 -0.5342
   15DOPE   H8S 1859   1.793   1.927   6.490  0.1295 -0.1550 -0.2792
   15DOPE   C29 1860   1.638   2.072   6.477  0.1127  0.3535  0.5078
   15DOPE   H9R 1861   1.624   2.101   6.582  1.3228  0.0869  0.7598
   15DOPE  C210 1862   1.590   2.160   6.385 -0.0625 -0.4324 -0.2400
   15DOPE  H10R 1863   1.562   2.261   6.418 -1.6120 -1.9850  3.8167
   15DOPE  C211 1864   1.577   2.137   6.235 -0.4203 -0.7047  0.3642
   15DOPE  H11R 1865   1.651   2.074   6.182 -0.3692  1.6049 -2.5957
   15DOPE  H11S 1866   1.589   2.232   6.179  0.7537 -0.9504  0.1813
   15DOPE  C212 1867   1.436   2.085   6.201 -0.1715 -0.2389  0.2351
   15DOPE  H12R 1868   1.362   2.166   6.219  0.0843  0.0009  0.2273
   15DOPE  H12S 1869   1.417   1.991   6.256  2.0562 -1.3160 -0.6817
   15DOPE  C213 1870   1.420   2.042   6.052 -0.0485 -0.1072 -0.3464
   15DOPE  H13R 1871   1.322   1.989   6.052 -1.8885  3.0099 -1.9795
   15DOPE  H13S 1872   1.496   1.975   6.006 -1.6128 -1.9254 -0.4285
   15DOPE  C214 1873   1.403   2.167   5.962 -0.4814  0.0039  0.6835
   15DOPE  H14R 1874   1.504   2.185   5.919 -0.2415  1.3238  1.7431
   15DOPE  H14S 1875   1.390   2.251   6.034 -0.6839  1.5600 -1.1043
   15DOPE  C215 1876   1.284   2.152   5.864  0.0360  0.1337  0.0991
   15DOPE  H15R 1877   1.243   2.250   5.832  0.4600  0.0679 -0.6690
   15DOPE  H15S 1878   1.207   2.083   5.906 -1.0219  0.8793 -0.5684
   15DOPE  C216 1879   1.318   2.083   5.726 -0.2266 -0.0758 -0.2855
   15DOPE  H16R 1880   1.380   1.992   5.741 -0.3399  0.0380  0.8998
   15DOPE  H16S 1881   1.377   2.156   5.666  1.2471 -2.7324 -2.3351
   15DOPE  C217 1882   1.195   2.043   5.639 -0.5945  0.2735 -0.1934
   15DOPE  H17R 1883   1.128   1.977   5.698 -0.1617  0.4227  0.4690
   15DOPE  H17S 1884   1.243   1.972   5.569  1.3820  0.4353  0.9337
   15DOPE  C218 1885   1.109   2.151   5.566 -0.0343  0.0776  0.0434
   15DOPE  H18R 1886   1.088   2.234   5.637  0.5327 -0.4163  0.7961
   15DOPE  H18S 1887   1.017   2.107   5.523 -0.0769  1.8068 -1.8406
   15DOPE  H18T 1888   1.164   2.190   5.477 -0.0041 -0.6555 -0.2636
   15DOPE   C33 1889   0.458   1.762   6.551 -0.7665 -0.1166  0.0297
   15DOPE   H3X 1890   0.449   1.825   6.642  0.7673 -0.5909  0.5402
   15DOPE   H3Y 1891   0.367   1.789   6.493 -1.6073 -0.5813  1.0874
   15DOPE   C34 1892   0.595   1.813   6.502 -0.1133  0.5909 -0.2911
   15DOPE   H4X 1893   0.595   1.912   6.452  0.0344  0.8019  0.1221
   15DOPE   H4Y 1894   0.657   1.828   6.593 -1.5962 -0.4691  0.9481
   15DOPE   C35 1895   0.668   1.716   6.408  0.3270  0.0447  0.4491
   15DOPE   H5X 1896   0.606   1.684   6.322 -0.2827  0.9923  0.5192
   15DOPE   H5Y 1897   0.680   1.621   6.464  0.8686 -0.9554 -1.3125
   15DOPE   C36 1898   0.797   1.773   6.351 -0.2641  0.1805 -0.2865
   15DOPE   H6X 1899   0.861   1.790   6.440  1.0331  3.0940 -1.6370
   15DOPE   H6Y 1900   0.784   1.875   6.308 -1.0682  0.8219  1.3742
   15DOPE   C37 1901   0.872   1.679   6.255  0.6249  0.1028 -0.2166
   15DOPE   H7X 1902   0.896   1.593   6.322 -1.9961  0.8685  1.8740
   15DOPE   H7Y 1903   0.816   1.642   6.167  0.4297  0.9463 -0.4507
   15DOPE   C38 1904   1.014   1.731   6.209  0.1460 -0.4630 -0.2242
   15DOPE   H8X 1905   1.068   1.646   6.162  0.7750 -0.8477  1.1559
   15DOPE   H8Y 1906   1.075   1.745   6.301  0.0394 -0.8342 -0.0971
   15DOPE   C39 1907   1.013   1.848   6.115 -0.1788 -0.3951 -0.0971
   15DOPE   H9X 1908   1.008   1.950   6.155 -0.4706 -0.2875 -0.4002
   15DOPE  C310 1909   1.019   1.832   5.979  0.5642  0.2405  0.1306
   15DOPE  H10X 1910   1.007   1.921   5.917  0.6525  0.6567  0.7003
   15DOPE  C311 1911   1.026   1.703   5.902  0.2265  0.4673 -0.6943
   15DOPE  H11X 1912   0.991   1.611   5.954 -1.2122  0.4639 -1.6097
   15DOPE  H11Y 1913   0.954   1.709   5.817 -0.2900  2.8039 -0.1645
   15DOPE  C312 1914   1.161   1.671   5.850 -0.2288 -0.2401 -0.0678
   15DOPE  H12X 1915   1.225   1.645   5.937 -0.9325 -2.2525 -0.0947
   15DOPE  H12Y 1916   1.195   1.758   5.790  0.6631  0.1321  0.9433
   15DOPE  C313 1917   1.164   1.546   5.755  0.0378  0.3009 -0.3877
   15DOPE  H13X 1918   1.269   1.511   5.761 -0.4485 -1.6602 -2.1397
   15DOPE  H13Y 1919   1.115   1.458   5.802 -1.3860  1.7860  1.0905
   15DOPE  C314 1920   1.121   1.562   5.610 -0.7443  0.4827  0.3791
   15DOPE  H14X 1921   1.164   1.656   5.572  2.0997 -1.2787 -1.1478
   15DOPE  H14Y 1922   1.010   1.570   5.602 -0.7887 -0.5144 -0.1639
   15DOPE  C315 1923   1.157   1.431   5.533  0.5591  0.5405 -0.2276
   15DOPE  H15X 1924   1.083   1.417   5.450 -0.4630  0.0077  0.7490
   15DOPE  H15Y 1925   1.134   1.343   5.597  2.4384 -0.2515 -0.5837
   15DOPE  C316 1926   1.302   1.422   5.484  0.7262 -0.3405  0.3323
   15DOPE  H16X 1927   1.314   1.335   5.415  0.6167  0.2984 -0.5176
   15DOPE  H16Y 1928   1.363   1.397   5.573 -2.6178 -0.6588  2.7352
   15DOPE  C317 1929   1.360   1.542   5.399 -0.5494 -0.2682  0.1903
   15DOPE  H17X 1930   1.272   1.592   5.354  0.4012  0.4998 -0.8945
   15DOPE  H17Y 1931   1.413   1.617   5.462  1.8582 -0.6670 -1.2245
   15DOPE  C318 1932   1.435   1.494   5.272  0.1716 -0.2119 -0.4296
   15DOPE  H18X 1933   1.364   1.453   5.196 -1.2567  2.8485 -0.8930
   15DOPE  H18Y 1934   1.507   1.567   5.229  1.5474 -2.5645 -2.4486
   15DOPE  H18Z 1935   1.507   1.414   5.301 -1.2006 -1.6397 -0.7981
   16DOPE     N 1936   7.290   3.486   6.688 -0.4067  0.0655 -0.1233
   16DOPE   HN1 1937   7.272   3.546   6.771 -2.0082 -2.8502  1.8148
   16DOPE   HN2 1938   7.199   3.471   6.641 -0.8523 -0.6976  0.9529
   16DOPE   HN3 1939   7.315   3.392   6.723 -0.3997  0.1928  0.2198
   16DOPE   C12 1940   7.405   3.539   6.597  0.4741  0.4080  0.3983
   16DOPE  H12A 1941   7.366   3.638   6.568 -1.7585  0.0942  2.0797
   16DOPE  H12B 1942   7.417   3.467   6.513 -0.5074  0.0943  0.5124
   16DOPE   C11 1943   7.534   3.551   6.685 -0.7266 -0.3503  0.6694
   16DOPE  H11A 1944   7.611   3.583   6.611 -1.0141 -0.5959  0.2580
   16DOPE  H11B 1945   7.568   3.451   6.719  0.3292 -0.1091  0.3435
   16DOPE     P 1946   7.627   3.727   6.835  0.0367 -0.2785 -0.4310
   16DOPE   O13 1947   7.751   3.646   6.815  0.0674 -0.0355  0.1370
   16DOPE   O14 1948   7.605   3.783   6.972 -0.2423 -0.3636 -0.6279
   16DOPE   O11 1949   7.625   3.842   6.735  0.4544 -0.0342 -0.4554
   16DOPE   O12 1950   7.510   3.637   6.793  0.0755 -0.0388 -0.4732
   16DOPE    C1 1951   7.519   3.882   6.652 -0.6628  0.2157 -0.4727
   16DOPE    HA 1952   7.505   3.992   6.664 -4.2457  0.0109 -1.4614
   16DOPE    HB 1953   7.417   3.851   6.686  0.1464  0.5482  2.5134
   16DOPE    C2 1954   7.552   3.873   6.502 -1.4046 -0.0615  0.0357
   16DOPE    HS 1955   7.575   3.766   6.481  0.0090 -0.0039  1.1406
   16DOPE   O21 1956   7.675   3.954   6.478  0.7295 -0.4594 -0.3334
   16DOPE   C21 1957   7.778   3.884   6.449 -0.3615 -0.2497  0.0927
   16DOPE   O22 1958   7.793   3.763   6.460 -0.8454  0.0092  0.1794
   16DOPE   C22 1959   7.878   3.980   6.381  0.2633  0.0363 -0.3135
   16DOPE   H2R 1960   7.909   4.045   6.466 -1.2034 -0.9315  1.0424
   16DOPE   H2S 1961   7.825   4.044   6.307  2.3607  0.2058 -1.7558
   16DOPE    C3 1962   7.439   3.906   6.411  0.5447  0.5841 -0.3007
   16DOPE    HX 1963   7.409   4.011   6.429  0.3222  0.4234  0.3203
   16DOPE    HY 1964   7.352   3.841   6.434  0.4836 -0.5878 -3.3785
   16DOPE   O31 1965   7.478   3.894   6.273  0.0985 -0.2333  0.2523
   16DOPE   C31 1966   7.483   3.769   6.233 -0.1794  0.4682  0.5017
   16DOPE   O32 1967   7.457   3.671   6.308  0.0577  0.1130  0.1470
   16DOPE   C32 1968   7.529   3.768   6.087 -1.0689  0.2746  0.7556
   16DOPE   H2X 1969   7.598   3.853   6.068  0.7309 -0.7364  2.3802
   16DOPE   H2Y 1970   7.576   3.668   6.088 -0.3220  0.6239  1.5396
   16DOPE   C23 1971   8.005   3.915   6.320  0.1155  0.1327 -0.7327
   16DOPE   H3R 1972   7.967   3.861   6.230  1.8572 -0.5344 -1.1137
   16DOPE   H3S 1973   8.052   3.840   6.386 -1.7360  0.6323  1.2688
   16DOPE   C24 1974   8.109   4.027   6.298  0.0901  0.2197  0.3772
   16DOPE   H4R 1975   8.151   4.060   6.395 -0.7085 -0.9245  1.1342
   16DOPE   H4S 1976   8.052   4.111   6.252 -2.3928  0.8113  4.1384
   16DOPE   C25 1977   8.224   3.978   6.204  0.3862 -0.7740  0.4907
   16DOPE   H5R 1978   8.251   3.873   6.227 -0.3191 -0.5674  2.4708
   16DOPE   H5S 1979   8.314   4.038   6.229 -0.4737  1.1499 -0.7934
   16DOPE   C26 1980   8.203   3.989   6.058 -0.6823 -0.1418 -0.1039
   16DOPE   H6R 1981   8.159   4.084   6.021  0.3570  0.8794  1.1965
   16DOPE   H6S 1982   8.138   3.905   6.025  0.5301  0.1771 -3.7879
   16DOPE   C27 1983   8.331   3.976   5.974  0.0257 -0.0814 -0.0227
   16DOPE   H7R 1984   8.416   3.910   6.002  1.0632  1.3036  0.1592
   16DOPE   H7S 1985   8.379   4.075   5.979  1.3609 -0.7109 -0.0004
   16DOPE   C28 1986   8.306   3.947   5.822  0.0172  0.0096 -0.2681
   16DOPE   H8R 1987   8.395   3.976   5.762  0.0038  0.4883 -0.0630
   16DOPE   H8S 1988   8.227   4.022   5.799  0.6092  1.3096  1.7011
   16DOPE   C29 1989   8.280   3.802   5.786 -0.0681  0.1897  0.1329
   16DOPE   H9R 1990   8.303   3.735   5.870  2.5406  0.1382 -0.5354
   16DOPE  C210 1991   8.234   3.760   5.668  0.3835  0.0667  0.6602
   16DOPE  H10R 1992   8.229   3.651   5.653 -0.1090  0.4100 -2.0480
   16DOPE  C211 1993   8.198   3.849   5.554 -0.4344 -0.4991  0.1563
   16DOPE  H11R 1994   8.264   3.938   5.555 -1.4635  0.4195 -2.7161
   16DOPE  H11S 1995   8.093   3.885   5.559 -0.6525 -0.8751 -1.1826
   16DOPE  C212 1996   8.223   3.772   5.425  0.5373  0.2095 -0.0461
   16DOPE  H12R 1997   8.167   3.677   5.415 -0.0758  0.4604  0.8345
   16DOPE  H12S 1998   8.332   3.750   5.436  0.3688 -1.6804 -1.6043
   16DOPE  C213 1999   8.196   3.853   5.301  0.2813 -0.1451 -0.1717
   16DOPE  H13R 2000   8.275   3.932   5.296  0.9700 -0.8080  0.0445
   16DOPE  H13S 2001   8.097   3.900   5.315 -0.7442 -2.0759 -0.6079
   16DOPE  C214 2002   8.206   3.788   5.161 -0.9566 -0.3113 -0.4518
   16DOPE  H14R 2003   8.194   3.679   5.174  0.7026 -0.8088 -2.6241
   16DOPE  H14S 2004   8.304   3.806   5.112 -0.8743 -0.5426 -0.3754
   16DOPE  C215 2005   8.104   3.836   5.054 -0.2779  0.7867  0.0695
   16DOPE  H15R 2006   8.007   3.807   5.101  0.2623  1.3889  1.6272
   16DOPE  H15S 2007   8.116   3.775   4.962 -0.6116 -1.4123  1.4143
   16DOPE  C216 2008   8.109   3.989   5.034 -0.2740  0.1329 -0.1494
   16DOPE  H16R 2009   8.213   4.026   5.028 -0.3234  0.1595 -0.9897
   16DOPE  H16S 2010   8.060   4.039   5.121  2.7637  0.2355  1.6346
   16DOPE  C217 2011   8.023   4.025   4.910  0.2730 -0.4184  0.0611
   16DOPE  H17R 2012   7.921   3.983   4.907  0.8718 -1.9893  0.6944
   16DOPE  H17S 2013   8.065   3.985   4.815 -1.6723  2.0141 -1.9659
   16DOPE  C218 2014   8.025   4.179   4.899  0.3554  0.0100 -0.2632
   16DOPE  H18R 2015   7.945   4.230   4.958  2.6005  0.9409  2.1540
   16DOPE  H18S 2016   8.005   4.202   4.792  1.2696  0.4635 -0.3453
   16DOPE  H18T 2017   8.124   4.221   4.924  0.5175 -1.2582  1.4382
   16DOPE   C33 2018   7.415   3.757   5.977 -0.3641 -0.1281  0.0253
   16DOPE   H3X 2019   7.321   3.710   6.013  0.5307 -0.1859  2.4895
   16DOPE   H3Y 2020   7.452   3.688   5.898 -4.0357 -1.2464 -0.9094
   16DOPE   C34 2021   7.391   3.897   5.914 -0.4550  0.2027  0.6349
   16DOPE   H4X 2022   7.355   3.969   5.990 -2.0768  0.0162  0.0804
   16DOPE   H4Y 2023   7.481   3.945   5.871 -1.2325  0.9064 -0.2459
   16DOPE   C35 2024   7.294   3.880   5.795  0.4165 -0.0819 -0.3518
   16DOPE   H5X 2025   7.205   3.820   5.822 -1.6761  2.3768 -1.4122
   16DOPE   H5Y 2026   7.350   3.814   5.724  2.2079  0.4873  0.4617
   16DOPE   C36 2027   7.255   4.004   5.723 -0.1738 -0.7970 -0.6342
   16DOPE   H6X 2028   7.241   4.089   5.793  0.9831 -1.2757  0.2177
   16DOPE   H6Y 2029   7.171   3.996   5.651 -1.0010 -0.6737  0.2984
   16DOPE   C37 2030   7.363   4.043   5.621 -0.1706 -0.9426  1.1336
   16DOPE   H7X 2031   7.452   4.080   5.675  0.1797  1.2788 -0.8304
   16DOPE   H7Y 2032   7.386   3.947   5.570 -3.6623 -0.6746 -1.2933
   16DOPE   C38 2033   7.322   4.148   5.511 -0.0304 -0.5325  0.1340
   16DOPE   H8X 2034   7.221   4.118   5.477 -0.3470 -1.7091  1.9856
   16DOPE   H8Y 2035   7.404   4.140   5.436 -0.4841 -1.9940 -0.2378
   16DOPE   C39 2036   7.329   4.284   5.555 -0.2531 -0.5907 -0.6963
   16DOPE   H9X 2037   7.360   4.290   5.660 -2.1733 -0.4863 -0.1030
   16DOPE  C310 2038   7.270   4.397   5.509 -0.5011  0.4496  0.1155
   16DOPE  H10X 2039   7.276   4.478   5.583  1.0450 -0.7225  1.3458
   16DOPE  C311 2040   7.180   4.418   5.394 -0.4592  0.1742  0.5008
   16DOPE  H11X 2041   7.245   4.432   5.304 -0.8842  3.2736  0.5668
   16DOPE  H11Y 2042   7.120   4.325   5.385  0.9380 -0.5859 -2.6144
   16DOPE  C312 2043   7.089   4.536   5.397  0.3934 -0.0325 -0.0021
   16DOPE  H12X 2044   7.141   4.634   5.403 -1.7276  1.1613 -0.0291
   16DOPE  H12Y 2045   7.022   4.530   5.486 -1.0515 -0.0579 -1.0474
   16DOPE  C313 2046   6.983   4.555   5.289  0.3365  0.2371 -0.1036
   16DOPE  H13X 2047   6.962   4.453   5.250  1.3993  0.0974 -0.3505
   16DOPE  H13Y 2048   6.893   4.599   5.335  0.5539 -0.1488  0.7050
   16DOPE  C314 2049   7.038   4.651   5.174 -1.3061  0.3791 -0.1819
   16DOPE  H14X 2050   7.139   4.608   5.156 -1.4724 -0.6843  1.2110
   16DOPE  H14Y 2051   7.039   4.759   5.200 -2.6276 -0.5248  4.4791
   16DOPE  C315 2052   6.970   4.637   5.040 -0.2629  0.1367  0.2491
   16DOPE  H15X 2053   6.874   4.694   5.037 -0.4476 -0.1951 -0.3155
   16DOPE  H15Y 2054   6.938   4.531   5.028  1.5400 -0.4065 -0.1023
   16DOPE  C316 2055   7.065   4.668   4.921  0.2944 -0.4404 -0.0394
   16DOPE  H16X 2056   7.140   4.587   4.911 -0.4442 -0.9668 -1.6060
   16DOPE  H16Y 2057   7.118   4.765   4.934  0.9888 -0.5411 -1.8232
   16DOPE  C317 2058   6.988   4.673   4.793  0.0926 -0.5645  0.6004
   16DOPE  H17X 2059   6.957   4.567   4.781  0.9862 -0.6633 -1.2204
   16DOPE  H17Y 2060   6.888   4.720   4.806 -0.7595 -2.2460  0.3313
   16DOPE  C318 2061   7.064   4.724   4.672  0.0522 -0.3208  0.0227
   16DOPE  H18X 2062   7.091   4.831   4.687  0.2191 -0.4945  1.0646
   16DOPE  H18Y 2063   7.160   4.667   4.668  0.6300  0.2307  3.0639
   16DOPE  H18Z 2064   7.009   4.724   4.576  0.6736  1.8542 -0.3910
   17DOPE     N 2065   2.204   6.541   6.801 -0.1523 -0.3018 -0.4081
   17DOPE   HN1 2066   2.143   6.582   6.727  0.2725 -1.6090 -1.5322
   17DOPE   HN2 2067   2.212   6.610   6.878  2.1044  0.4730 -1.2321
   17DOPE   HN3 2068   2.296   6.517   6.758  0.0622  1.9202 -1.3713
   17DOPE   C12 2069   2.151   6.423   6.865 -0.3590  0.3858  0.4385
   17DOPE  H12A 2070   2.152   6.338   6.794  1.7874  0.4279  0.3578
   17DOPE  H12B 2071   2.042   6.436   6.883 -0.3547 -0.9403  1.5756
   17DOPE   C11 2072   2.225   6.399   6.993 -0.5129 -0.7781 -0.1744
   17DOPE  H11A 2073   2.179   6.307   7.036 -0.4898 -2.1843 -2.9448
   17DOPE  H11B 2074   2.213   6.477   7.071 -0.6820 -1.6832  0.7343
   17DOPE     P 2075   2.480   6.417   7.069 -0.0100  0.2407 -0.0577
   17DOPE   O13 2076   2.574   6.304   7.089 -0.6434 -0.1370 -0.0935
   17DOPE   O14 2077   2.416   6.472   7.189  0.7529 -0.0742 -0.5016
   17DOPE   O11 2078   2.555   6.535   6.991  0.4757  1.0603 -0.4488
   17DOPE   O12 2079   2.370   6.371   6.961 -0.1072 -0.4006 -0.1597
   17DOPE    C1 2080   2.517   6.670   6.988  0.3392  0.3277 -0.7346
   17DOPE    HA 2081   2.521   6.705   7.093  0.0359 -2.0145  0.1378
   17DOPE    HB 2082   2.409   6.664   6.965 -0.1808 -2.3113  1.6855
   17DOPE    C2 2083   2.581   6.762   6.882  0.7864 -0.5850 -0.2858
   17DOPE    HS 2084   2.505   6.828   6.836  2.8813  1.0204 -1.6324
   17DOPE   O21 2085   2.667   6.692   6.787  0.0846 -0.2446 -0.0046
   17DOPE   C21 2086   2.596   6.605   6.708  0.0630 -0.5126 -0.5434
   17DOPE   O22 2087   2.476   6.588   6.725  0.0525 -0.4673  0.1456
   17DOPE   C22 2088   2.691   6.535   6.619  0.7411 -0.0836 -0.1268
   17DOPE   H2R 2089   2.745   6.458   6.678  0.3713 -0.2714 -0.0298
   17DOPE   H2S 2090   2.768   6.611   6.595  1.1700  0.2663  2.1060
   17DOPE    C3 2091   2.662   6.879   6.951 -0.2270 -0.1828 -0.2297
   17DOPE    HX 2092   2.738   6.840   7.021 -1.3886 -0.7853  0.7221
   17DOPE    HY 2093   2.613   6.952   7.019  0.6975 -0.3425  0.6359
   17DOPE   O31 2094   2.741   6.943   6.850 -0.0055 -0.1957  0.1214
   17DOPE   C31 2095   2.677   7.038   6.782  0.2971 -0.3102  0.4495
   17DOPE   O32 2096   2.565   7.078   6.802  0.3756  0.5594 -0.7154
   17DOPE   C32 2097   2.762   7.091   6.676 -0.1222 -0.0934  0.2754
   17DOPE   H2X 2098   2.867   7.079   6.710 -0.7352  1.0455  2.8415
   17DOPE   H2Y 2099   2.747   7.024   6.589  4.1056 -2.1700  0.8985
   17DOPE   C23 2100   2.615   6.479   6.497 -0.7971 -0.3066  0.6835
   17DOPE   H3R 2101   2.552   6.553   6.443 -1.3419 -0.1913  1.4654
   17DOPE   H3S 2102   2.547   6.401   6.537 -0.9461  0.1171  1.2583
   17DOPE   C24 2103   2.698   6.414   6.388 -0.2829  0.3658  0.7665
   17DOPE   H4R 2104   2.775   6.342   6.424  1.0132  0.4161 -1.6433
   17DOPE   H4S 2105   2.766   6.491   6.344 -1.1098  0.6282 -0.0685
   17DOPE   C25 2106   2.611   6.350   6.288  0.3759  0.3999 -0.5433
   17DOPE   H5R 2107   2.544   6.426   6.243 -1.0321 -0.2316  0.4238
   17DOPE   H5S 2108   2.548   6.270   6.332 -2.7485  2.3957 -1.0461
   17DOPE   C26 2109   2.693   6.314   6.159  0.5403 -0.0039  0.5880
   17DOPE   H6R 2110   2.767   6.241   6.200  0.2866  0.2210  1.4616
   17DOPE   H6S 2111   2.735   6.408   6.117 -0.9257  0.2186 -0.4559
   17DOPE   C27 2112   2.598   6.251   6.056  0.1731 -0.8616 -0.5820
   17DOPE   H7R 2113   2.525   6.326   6.018 -0.4179 -1.4464 -0.6206
   17DOPE   H7S 2114   2.533   6.169   6.093  0.3455 -0.9402 -0.4534
   17DOPE   C28 2115   2.660   6.204   5.929 -0.1128 -0.6097 -0.1674
   17DOPE   H8R 2116   2.590   6.172   5.848 -0.1830  3.8642 -2.1919
   17DOPE   H8S 2117   2.719   6.113   5.950  1.6037  0.8343  1.7201
   17DOPE   C29 2118   2.756   6.303   5.868 -0.2865 -0.3054  0.1815
   17DOPE   H9R 2119   2.852   6.299   5.921 -0.2067  0.3247  0.0981
   17DOPE  C210 2120   2.742   6.367   5.751  0.2005 -0.3459 -0.1827
   17DOPE  H10R 2121   2.823   6.424   5.703 -0.6779  0.6308 -0.5391
   17DOPE  C211 2122   2.623   6.352   5.653  0.4575  0.1532 -0.0451
   17DOPE  H11R 2123   2.597   6.450   5.608 -0.3930 -0.3361 -0.6654
   17DOPE  H11S 2124   2.529   6.319   5.702  0.7299 -1.0793 -0.3074
   17DOPE  C212 2125   2.648   6.251   5.537 -0.0265 -0.5025 -0.0556
   17DOPE  H12R 2126   2.566   6.268   5.464  1.3154  0.0811 -1.4739
   17DOPE  H12S 2127   2.641   6.146   5.574  2.3739 -0.6102  0.2715
   17DOPE  C213 2128   2.781   6.256   5.459  0.0314 -0.3120  0.2427
   17DOPE  H13R 2129   2.866   6.250   5.530  1.6202  0.7199 -1.4789
   17DOPE  H13S 2130   2.796   6.357   5.416  2.4182  0.7027  3.1199
   17DOPE  C214 2131   2.789   6.166   5.339  0.7710 -0.5407  0.4003
   17DOPE  H14R 2132   2.718   6.196   5.259 -0.9099 -1.6220  1.4218
   17DOPE  H14S 2133   2.754   6.063   5.363  1.4783 -1.6523 -2.8821
   17DOPE  C215 2134   2.934   6.153   5.286 -0.2316  0.1689 -0.1530
   17DOPE  H15R 2135   3.005   6.134   5.369 -1.7349  1.2530  1.4527
   17DOPE  H15S 2136   2.966   6.251   5.246  0.6250 -0.6326 -1.5024
   17DOPE  C216 2137   2.949   6.039   5.184 -0.3517 -0.6113 -0.1947
   17DOPE  H16R 2138   2.880   6.044   5.097  0.4387 -1.0500 -0.8563
   17DOPE  H16S 2139   2.942   5.938   5.232  1.0152 -2.5128 -3.6634
   17DOPE  C217 2140   3.090   6.063   5.130 -0.3816  0.6770 -0.0897
   17DOPE  H17R 2141   3.165   6.056   5.212  1.6497  3.6453 -1.5373
   17DOPE  H17S 2142   3.108   6.163   5.086  1.9078  0.2445 -0.2659
   17DOPE  C218 2143   3.134   5.969   5.014 -0.0748  0.0812 -0.2342
   17DOPE  H18R 2144   3.242   5.965   4.987 -0.3968 -1.9281 -1.4443
   17DOPE  H18S 2145   3.094   5.997   4.914 -0.2720  2.0231  0.3543
   17DOPE  H18T 2146   3.107   5.866   5.044  0.8172 -0.1207 -0.1158
   17DOPE   C33 2147   2.722   7.238   6.634  0.3429 -0.1314  0.0095
   17DOPE   H3X 2148   2.806   7.284   6.578 -0.1984 -0.7567 -1.3794
   17DOPE   H3Y 2149   2.704   7.301   6.724 -0.3307  0.7878 -0.7450
   17DOPE   C34 2150   2.597   7.249   6.541  0.2799  0.1329 -0.4612
   17DOPE   H4X 2151   2.516   7.206   6.605  1.5278 -2.3775 -0.4400
   17DOPE   H4Y 2152   2.576   7.354   6.514  3.9409  1.0472 -0.2571
   17DOPE   C35 2153   2.608   7.179   6.406  0.3901 -0.5309 -0.8886
   17DOPE   H5X 2154   2.630   7.071   6.418 -1.4115 -0.7437  1.1186
   17DOPE   H5Y 2155   2.696   7.229   6.361 -0.0798  0.7411 -0.4450
   17DOPE   C36 2156   2.484   7.204   6.319 -0.1642 -0.2682  0.6575
   17DOPE   H6X 2157   2.470   7.314   6.315 -0.7683 -0.3334  0.7744
   17DOPE   H6Y 2158   2.389   7.170   6.367 -1.8411  2.5671 -0.3770
   17DOPE   C37 2159   2.487   7.156   6.170 -1.1612 -0.4755 -0.3713
   17DOPE   H7X 2160   2.482   7.045   6.172 -0.2611 -0.5525 -1.1888
   17DOPE   H7Y 2161   2.394   7.198   6.126 -0.8015  0.5082 -0.2191
   17DOPE   C38 2162   2.612   7.193   6.088  0.3758 -0.2810  0.4969
   17DOPE   H8X 2163   2.599   7.170   5.980 -0.0854  3.5413 -0.3786
   17DOPE   H8Y 2164   2.700   7.134   6.124  2.3630  1.7112 -0.8756
   17DOPE   C39 2165   2.650   7.341   6.071 -0.5973  0.7242 -0.4131
   17DOPE   H9X 2166   2.719   7.370   6.151  0.5830  0.0299 -1.1496
   17DOPE  C310 2167   2.602   7.426   5.979  0.7514 -0.4826  0.1096
   17DOPE  H10X 2168   2.648   7.523   5.955 -1.9065  0.7731 -0.2088
   17DOPE  C311 2169   2.503   7.396   5.877 -0.2484 -0.4867  0.4005
   17DOPE  H11X 2170   2.456   7.300   5.907  1.1339 -1.1415  0.5250
   17DOPE  H11Y 2171   2.429   7.479   5.869  2.0628  1.5979 -0.8479
   17DOPE  C312 2172   2.549   7.388   5.730  0.3931  0.1413 -0.2403
   17DOPE  H12X 2173   2.471   7.334   5.673 -0.2785 -0.5457  1.2642
   17DOPE  H12Y 2174   2.643   7.330   5.719 -0.2369 -0.7682 -0.8859
   17DOPE  C313 2175   2.579   7.529   5.669 -0.3698  0.1117 -0.9184
   17DOPE  H13X 2176   2.483   7.582   5.649  1.1670  2.9761 -1.1889
   17DOPE  H13Y 2177   2.627   7.597   5.743 -1.6096  1.1653 -1.0353
   17DOPE  C314 2178   2.656   7.515   5.538 -0.3022  0.3656  0.0002
   17DOPE  H14X 2179   2.600   7.444   5.474  1.7387  0.6826 -2.2877
   17DOPE  H14Y 2180   2.748   7.456   5.561 -1.0824 -0.0570  2.3334
   17DOPE  C315 2181   2.693   7.654   5.485  0.0456 -0.0147  0.4171
   17DOPE  H15X 2182   2.764   7.697   5.559  2.3831 -1.8561 -0.6235
   17DOPE  H15Y 2183   2.596   7.708   5.476 -0.2594 -0.6762 -0.3407
   17DOPE  C316 2184   2.766   7.650   5.351  0.2901  0.5664  0.7198
   17DOPE  H16X 2185   2.808   7.747   5.318  2.0626 -0.6138 -0.7523
   17DOPE  H16Y 2186   2.700   7.621   5.266  2.2805  1.3150 -1.1621
   17DOPE  C317 2187   2.885   7.553   5.359 -0.2123 -0.0303 -0.5872
   17DOPE  H17X 2188   2.945   7.581   5.448 -1.0003 -1.4657  0.4354
   17DOPE  H17Y 2189   2.843   7.450   5.363 -0.7964  0.2409  0.4266
   17DOPE  C318 2190   2.978   7.544   5.238  0.0584  1.0522 -0.2322
   17DOPE  H18X 2191   3.010   7.647   5.212 -1.4789  0.7116 -4.2093
   17DOPE  H18Y 2192   3.066   7.479   5.255  0.0578  1.3316  0.8726
   17DOPE  H18Z 2193   2.919   7.501   5.153  1.1652 -4.2897  1.3108
   18DOPE     N 2194   7.677   2.984   6.843 -0.1681 -0.1406 -0.1166
   18DOPE   HN1 2195   7.676   3.004   6.741 -0.1466 -1.6182 -0.4253
   18DOPE   HN2 2196   7.751   2.914   6.862 -1.6059 -1.3947  1.2073
   18DOPE   HN3 2197   7.588   2.942   6.878  0.0838 -1.2247 -0.7454
   18DOPE   C12 2198   7.702   3.113   6.911  0.1773  0.7449  1.1447
   18DOPE  H12A 2199   7.800   3.146   6.869 -0.0401 -1.3529 -1.2929
   18DOPE  H12B 2200   7.718   3.088   7.018  1.4859 -1.3915  0.5245
   18DOPE   C11 2201   7.595   3.220   6.894  0.7343 -0.6317 -0.3402
   18DOPE  H11A 2202   7.575   3.231   6.786  1.0862 -2.2452 -0.5992
   18DOPE  H11B 2203   7.626   3.318   6.936 -0.6999 -0.2026 -0.2285
   18DOPE     P 2204   7.339   3.258   6.948  0.0730 -0.1325 -0.0077
   18DOPE   O13 2205   7.367   3.404   6.967 -0.0468  0.3034 -0.2164
   18DOPE   O14 2206   7.240   3.200   7.047 -0.2447  0.6906 -0.4429
   18DOPE   O11 2207   7.311   3.231   6.796  0.3786  0.2285  0.6766
   18DOPE   O12 2208   7.471   3.170   6.955 -0.0418 -0.3405  0.6691
   18DOPE    C1 2209   7.247   3.110   6.751 -0.3198 -0.4769 -0.0365
   18DOPE    HA 2210   7.138   3.123   6.739 -0.4818 -1.9017 -0.1871
   18DOPE    HB 2211   7.266   3.028   6.823 -0.1217  0.1251  0.6190
   18DOPE    C2 2212   7.294   3.066   6.610  0.5077 -0.1698 -0.6419
   18DOPE    HS 2213   7.400   3.035   6.612  0.9112  0.6033  5.1064
   18DOPE   O21 2214   7.269   3.176   6.512  0.2173  0.0535 -0.4868
   18DOPE   C21 2215   7.366   3.197   6.426  0.0249 -0.4288  0.6353
   18DOPE   O22 2216   7.479   3.150   6.437  0.1528 -0.2439 -0.0574
   18DOPE   C22 2217   7.314   3.273   6.300 -0.0274  0.6187 -0.5320
   18DOPE   H2R 2218   7.401   3.337   6.273  1.6921 -1.8307 -1.1558
   18DOPE   H2S 2219   7.221   3.324   6.335 -1.0463 -1.2470 -0.4099
   18DOPE    C3 2220   7.217   2.931   6.576  0.2147  0.0164  0.1825
   18DOPE    HX 2221   7.114   2.952   6.538  1.6410 -0.4745 -4.5269
   18DOPE    HY 2222   7.216   2.871   6.670 -0.0208  0.8290  0.7036
   18DOPE   O31 2223   7.293   2.856   6.475 -0.1916 -0.1287  0.1088
   18DOPE   C31 2224   7.228   2.747   6.438  0.8063 -0.3549  0.1738
   18DOPE   O32 2225   7.119   2.710   6.478 -0.0121 -0.6796  0.0492
   18DOPE   C32 2226   7.307   2.677   6.326 -0.7414 -0.0613 -0.1489
   18DOPE   H2X 2227   7.404   2.650   6.373 -1.2659 -1.0181  0.4232
   18DOPE   H2Y 2228   7.255   2.587   6.287 -1.0379  0.1110 -0.1555
   18DOPE   C23 2229   7.270   3.202   6.167  0.1852  0.3067 -0.7149
   18DOPE   H3R 2230   7.309   3.098   6.166  0.0569  0.2225  0.7388
   18DOPE   H3S 2231   7.298   3.257   6.075  0.4085 -0.1302 -0.9147
   18DOPE   C24 2232   7.117   3.183   6.162 -0.5751 -0.5712  0.4391
   18DOPE   H4R 2233   7.083   3.149   6.262 -1.7224  0.0634  0.2902
   18DOPE   H4S 2234   7.090   3.112   6.081  1.9541 -1.3249  0.1820
   18DOPE   C25 2235   7.036   3.318   6.129 -0.1041 -0.3915  0.0712
   18DOPE   H5R 2236   7.072   3.369   6.037  0.1390 -0.1898  0.2786
   18DOPE   H5S 2237   7.042   3.393   6.210  0.1780 -0.9971  0.6211
   18DOPE   C26 2238   6.886   3.299   6.124 -0.2044  0.4545  0.4988
   18DOPE   H6R 2239   6.840   3.395   6.091  0.9207  0.6590 -0.5368
   18DOPE   H6S 2240   6.843   3.273   6.223 -1.4816  0.8517  0.0748
   18DOPE   C27 2241   6.844   3.192   6.024 -0.2424  0.3271  0.6234
   18DOPE   H7R 2242   6.873   3.089   6.053 -2.3497 -0.5953 -0.3434
   18DOPE   H7S 2243   6.895   3.202   5.925 -1.1589 -0.0726  0.1014
   18DOPE   C28 2244   6.691   3.185   6.006 -0.2681  0.1875 -0.5336
   18DOPE   H8R 2245   6.664   3.285   5.967 -0.5148  0.0540 -0.7098
   18DOPE   H8S 2246   6.646   3.172   6.106  2.0240 -0.5663  0.4762
   18DOPE   C29 2247   6.634   3.074   5.925 -0.5985  0.2422  0.0385
   18DOPE   H9R 2248   6.602   2.979   5.972 -0.6958 -0.4004 -1.2668
   18DOPE  C210 2249   6.619   3.082   5.792 -0.3397 -0.0475 -0.1163
   18DOPE  H10R 2250   6.561   3.002   5.742 -0.9858 -0.2637  0.9305
   18DOPE  C211 2251   6.656   3.202   5.712  0.0149  0.1114  0.3480
   18DOPE  H11R 2252   6.767   3.200   5.719  0.1126 -2.9177 -0.6679
   18DOPE  H11S 2253   6.609   3.295   5.750 -0.5988 -0.6632  1.5457
   18DOPE  C212 2254   6.618   3.179   5.558  0.0239  0.5095 -0.3606
   18DOPE  H12R 2255   6.509   3.180   5.541 -0.5222 -0.2932  2.4888
   18DOPE  H12S 2256   6.645   3.076   5.527 -0.2220  0.6151 -0.9295
   18DOPE  C213 2257   6.690   3.280   5.472  0.3213  0.0188  0.2620
   18DOPE  H13R 2258   6.800   3.274   5.488  0.2709  1.6612  1.6126
   18DOPE  H13S 2259   6.659   3.373   5.526 -0.7150 -0.8152  1.1356
   18DOPE  C214 2260   6.639   3.283   5.330 -0.4233  0.1550 -0.1574
   18DOPE  H14R 2261   6.529   3.272   5.335 -0.2975 -0.7916  0.9661
   18DOPE  H14S 2262   6.675   3.185   5.291 -3.1672 -1.3865  0.9065
   18DOPE  C215 2263   6.693   3.401   5.245  0.3311  0.5986 -0.2275
   18DOPE  H15R 2264   6.802   3.410   5.264  0.6948  1.0489 -2.2972
   18DOPE  H15S 2265   6.645   3.498   5.272  2.3655  1.4183  0.6515
   18DOPE  C216 2266   6.675   3.380   5.095 -0.0658 -0.1621 -0.8307
   18DOPE  H16R 2267   6.568   3.402   5.071 -0.4596 -0.2226  0.7409
   18DOPE  H16S 2268   6.716   3.287   5.051 -1.1595 -0.5073 -1.1616
   18DOPE  C217 2269   6.754   3.495   5.024 -0.9424  0.0334 -0.8774
   18DOPE  H17R 2270   6.865   3.486   5.023 -0.7098  2.3057  0.4276
   18DOPE  H17S 2271   6.738   3.593   5.072  0.0139 -1.0473  1.8278
   18DOPE  C218 2272   6.718   3.507   4.865 -0.0005  0.0531 -0.3873
   18DOPE  H18R 2273   6.612   3.537   4.856  0.0629  0.1203 -0.9482
   18DOPE  H18S 2274   6.742   3.410   4.818 -0.6527 -0.2300 -0.1488
   18DOPE  H18T 2275   6.779   3.590   4.822 -0.9515  0.9992  0.0308
   18DOPE   C33 2276   7.328   2.770   6.205  0.4769 -0.1880 -0.4536
   18DOPE   H3X 2277   7.393   2.716   6.133  0.9798  1.3278 -1.1632
   18DOPE   H3Y 2278   7.389   2.856   6.239  0.9433 -1.6762  2.9360
   18DOPE   C34 2279   7.210   2.814   6.122 -0.9372 -0.7960  0.2326
   18DOPE   H4X 2280   7.145   2.726   6.102 -1.4426 -0.5135  0.6253
   18DOPE   H4Y 2281   7.141   2.879   6.179 -0.7271 -0.1242 -0.2697
   18DOPE   C35 2282   7.251   2.876   5.981 -0.0663  0.2230  0.2481
   18DOPE   H5X 2283   7.323   2.814   5.923  0.4023 -0.0533  1.0995
   18DOPE   H5Y 2284   7.287   2.979   6.003  1.7501 -0.0958 -1.0296
   18DOPE   C36 2285   7.126   2.893   5.884  0.1771 -0.3184  0.3725
   18DOPE   H6X 2286   7.041   2.936   5.942  0.3769  0.4480  0.1083
   18DOPE   H6Y 2287   7.092   2.790   5.858  0.4703 -0.7371  1.5454
   18DOPE   C37 2288   7.143   2.986   5.765 -0.3134  0.2290  0.1361
   18DOPE   H7X 2289   7.158   3.088   5.805 -1.4024  0.2778  0.4586
   18DOPE   H7Y 2290   7.228   2.944   5.707 -1.1047 -2.0643  0.5165
   18DOPE   C38 2291   7.016   2.993   5.672  0.2212  0.0352 -0.7486
   18DOPE   H8X 2292   6.929   3.032   5.728 -0.2521 -0.5901 -1.0317
   18DOPE   H8Y 2293   7.015   2.884   5.648  2.4255 -0.8209  2.3600
   18DOPE   C39 2294   7.037   3.072   5.545 -0.1818  0.0999  0.5240
   18DOPE   H9X 2295   7.067   3.176   5.562  1.1884 -0.0816 -0.6011
   18DOPE  C310 2296   7.021   3.034   5.418  0.1425  0.3100 -0.1757
   18DOPE  H10X 2297   7.023   3.109   5.338 -0.7205 -1.3510 -1.8283
   18DOPE  C311 2298   6.971   2.901   5.364 -0.2505 -0.4551  0.1394
   18DOPE  H11X 2299   7.050   2.852   5.303 -0.1825 -0.3305  0.1258
   18DOPE  H11Y 2300   6.951   2.835   5.451 -0.2222 -1.0438 -0.2954
   18DOPE  C312 2301   6.848   2.903   5.277  0.8387  0.4681 -0.1883
   18DOPE  H12X 2302   6.757   2.943   5.328 -0.2218 -1.0767 -0.8010
   18DOPE  H12Y 2303   6.822   2.796   5.260 -1.6081  1.0584 -0.5243
   18DOPE  C313 2304   6.877   2.973   5.142  0.3572 -1.0071 -0.5299
   18DOPE  H13X 2305   6.893   3.081   5.162 -1.0434 -1.2580  2.4643
   18DOPE  H13Y 2306   6.976   2.933   5.109  1.4347 -1.0110  2.4094
   18DOPE  C314 2307   6.780   2.960   5.034  0.3668  0.9878 -0.4692
   18DOPE  H14X 2308   6.686   3.005   5.072 -0.4653 -1.0221 -0.0302
   18DOPE  H14Y 2309   6.749   2.854   5.027 -0.1103  0.8497  2.6625
   18DOPE  C315 2310   6.817   3.023   4.900 -0.2766 -0.5977  0.4330
   18DOPE  H15X 2311   6.911   2.989   4.853  0.5523  0.9190  0.9140
   18DOPE  H15Y 2312   6.837   3.131   4.919  2.1331 -1.0345  0.6930
   18DOPE  C316 2313   6.703   3.012   4.799 -0.2983  0.3653 -0.3020
   18DOPE  H16X 2314   6.609   3.060   4.834 -2.1298 -1.6567 -2.1791
   18DOPE  H16Y 2315   6.678   2.906   4.776 -0.1349  0.2034  0.2506
   18DOPE  C317 2316   6.714   3.085   4.662 -0.3613 -0.4467 -0.5663
   18DOPE  H17X 2317   6.775   3.177   4.670  1.6293 -1.7287 -0.2760
   18DOPE  H17Y 2318   6.773   3.020   4.594 -0.6506 -2.3518  0.9172
   18DOPE  C318 2319   6.577   3.127   4.602  0.0172 -0.0069 -0.5975
   18DOPE  H18X 2320   6.524   3.212   4.651 -0.8996  1.0540 -3.2353
   18DOPE  H18Y 2321   6.595   3.147   4.494  4.0802  2.8875  0.4177
   18DOPE  H18Z 2322   6.514   3.037   4.621  0.4024 -0.4727 -1.4814
   19DOPE     N 2323   7.381   3.610   7.131  0.5543 -0.3356 -0.4906
   19DOPE   HN1 2324   7.396   3.517   7.087 -0.1801 -0.8068  0.2267
   19DOPE   HN2 2325   7.353   3.682   7.062  1.5787  0.7142  0.1683
   19DOPE   HN3 2326   7.479   3.631   7.156  1.0818 -0.3977 -2.3410
   19DOPE   C12 2327   7.268   3.583   7.229  0.2659  0.2995 -0.3621
   19DOPE  H12A 2328   7.250   3.677   7.285 -0.1820  1.0368 -1.6900
   19DOPE  H12B 2329   7.311   3.513   7.304  0.0259  0.5307 -0.0085
   19DOPE   C11 2330   7.143   3.538   7.153 -0.2989  0.2534  0.1092
   19DOPE  H11A 2331   7.057   3.520   7.221 -1.5626 -0.5712 -1.6225
   19DOPE  H11B 2332   7.168   3.440   7.108 -0.3588  0.8813 -1.3349
   19DOPE     P 2333   7.038   3.619   6.920  0.6784  0.4821 -0.0104
   19DOPE   O13 2334   7.103   3.690   6.810 -0.3415 -0.1836 -0.0876
   19DOPE   O14 2335   6.895   3.663   6.946 -0.0414 -0.0919  0.8008
   19DOPE   O11 2336   7.053   3.461   6.883  0.1712 -0.0972  0.2849
   19DOPE   O12 2337   7.114   3.639   7.054 -0.0726  0.2326 -0.0874
   19DOPE    C1 2338   6.964   3.353   6.902  0.4757  0.3536 -0.4146
   19DOPE    HA 2339   6.881   3.379   6.971  2.0636  0.6029  1.5004
   19DOPE    HB 2340   7.016   3.271   6.956  0.3766 -0.5539 -1.6367
   19DOPE    C2 2341   6.903   3.311   6.763  0.3684  0.0448 -0.3548
   19DOPE    HS 2342   6.982   3.260   6.704 -0.5660  0.0185 -1.6330
   19DOPE   O21 2343   6.856   3.429   6.691  0.0093 -0.2662 -0.5040
   19DOPE   C21 2344   6.942   3.475   6.595 -0.2933 -0.1325 -0.0418
   19DOPE   O22 2345   7.053   3.432   6.578  0.1156 -0.6101 -0.3431
   19DOPE   C22 2346   6.887   3.598   6.530  0.0371 -0.1057  0.2695
   19DOPE   H2R 2347   6.898   3.683   6.600 -0.1223 -1.3909  1.9164
   19DOPE   H2S 2348   6.781   3.588   6.496  0.5029 -0.2328 -1.2385
   19DOPE    C3 2349   6.774   3.216   6.778  0.0782 -0.0358  0.1790
   19DOPE    HX 2350   6.689   3.261   6.833 -0.4826 -0.6601 -0.1595
   19DOPE    HY 2351   6.790   3.128   6.843 -0.8792 -1.0660 -0.9422
   19DOPE   O31 2352   6.720   3.181   6.647 -0.2121 -0.0057 -0.7195
   19DOPE   C31 2353   6.776   3.073   6.589  0.0425  0.2723  0.1044
   19DOPE   O32 2354   6.880   3.027   6.625 -0.5817  0.1321  0.0270
   19DOPE   C32 2355   6.701   3.021   6.466  0.0738 -0.4204 -0.9545
   19DOPE   H2X 2356   6.639   2.941   6.511  0.0283  0.3199  0.3280
   19DOPE   H2Y 2357   6.631   3.103   6.437 -0.3465 -0.1624  0.6901
   19DOPE   C23 2358   6.970   3.642   6.400 -0.1109  0.2249  0.0566
   19DOPE   H3R 2359   6.993   3.557   6.333  0.7342 -1.3235  2.1728
   19DOPE   H3S 2360   7.068   3.682   6.435 -0.3125  0.0920  0.8064
   19DOPE   C24 2361   6.890   3.764   6.338 -0.6492  0.1298  0.4705
   19DOPE   H4R 2362   6.901   3.847   6.412 -1.6609 -0.2868  1.0905
   19DOPE   H4S 2363   6.782   3.741   6.325 -0.8437  0.5033  1.3900
   19DOPE   C25 2364   6.956   3.807   6.204  0.5683 -0.2312  0.1672
   19DOPE   H5R 2365   7.066   3.807   6.217  0.3267 -0.5014  2.8613
   19DOPE   H5S 2366   6.925   3.912   6.185  2.6975  0.6152  1.0398
   19DOPE   C26 2367   6.910   3.725   6.083  0.2781 -0.0508 -0.3944
   19DOPE   H6R 2368   6.800   3.729   6.099  0.5145  0.8353  1.2996
   19DOPE   H6S 2369   6.934   3.617   6.092 -1.1321 -0.3407  0.1731
   19DOPE   C27 2370   6.957   3.771   5.952  0.6394 -0.0629 -0.0008
   19DOPE   H7R 2371   7.043   3.710   5.917  1.4525  1.5630 -0.9832
   19DOPE   H7S 2372   6.996   3.875   5.959 -1.1237  0.6085  0.4057
   19DOPE   C28 2373   6.853   3.747   5.831 -1.1209 -0.4136 -0.0009
   19DOPE   H8R 2374   6.890   3.804   5.743 -0.5074 -0.7519  0.0371
   19DOPE   H8S 2375   6.765   3.806   5.866  0.7174  1.4087  1.8269
   19DOPE   C29 2376   6.831   3.599   5.805  0.2436 -0.2338 -0.4998
   19DOPE   H9R 2377   6.833   3.518   5.880  0.0201 -0.8919 -1.1936
   19DOPE  C210 2378   6.839   3.552   5.678  0.1311 -0.4136 -0.7860
   19DOPE  H10R 2379   6.834   3.442   5.669  0.6550 -0.4473 -0.7084
   19DOPE  C211 2380   6.870   3.630   5.552 -0.5718 -0.3204  0.8420
   19DOPE  H11R 2381   6.908   3.566   5.469 -1.2422 -0.7853  0.8916
   19DOPE  H11S 2382   6.952   3.703   5.570  0.4559 -1.2719  0.2080
   19DOPE  C212 2383   6.745   3.703   5.506 -0.3827 -0.2499 -0.5109
   19DOPE  H12R 2384   6.705   3.757   5.594 -0.2304 -0.3283 -0.3920
   19DOPE  H12S 2385   6.675   3.628   5.464  0.8455 -1.2222 -0.8979
   19DOPE  C213 2386   6.769   3.802   5.392 -0.5862 -0.1640  0.4069
   19DOPE  H13R 2387   6.682   3.805   5.323 -0.0204  0.7349 -0.2971
   19DOPE  H13S 2388   6.860   3.774   5.334  0.0714  0.7050  0.9862
   19DOPE  C214 2389   6.807   3.944   5.446 -0.0953  0.2736  0.1419
   19DOPE  H14R 2390   6.899   3.919   5.504  0.8683 -0.2224 -1.5403
   19DOPE  H14S 2391   6.730   3.985   5.515 -1.1728  1.3127 -1.6081
   19DOPE  C215 2392   6.842   4.041   5.331 -0.5616 -0.3942  0.2805
   19DOPE  H15R 2393   6.937   4.000   5.290 -0.4636 -0.6717  0.7785
   19DOPE  H15S 2394   6.858   4.144   5.369 -2.1644  0.9852 -2.4847
   19DOPE  C216 2395   6.731   4.049   5.218 -0.6110 -1.1734 -0.3555
   19DOPE  H16R 2396   6.637   4.079   5.268 -1.4224 -0.7388 -2.0794
   19DOPE  H16S 2397   6.705   3.948   5.181  1.0478 -1.9875  0.5557
   19DOPE  C217 2398   6.768   4.149   5.106  0.3207 -0.1215 -0.7050
   19DOPE  H17R 2399   6.847   4.102   5.044 -0.9742 -1.2445 -1.5631
   19DOPE  H17S 2400   6.797   4.242   5.160 -0.3943  0.1790 -0.8213
   19DOPE  C218 2401   6.647   4.170   5.010  0.3654 -0.3182  0.3665
   19DOPE  H18R 2402   6.600   4.078   4.968  1.7677 -0.8756 -0.0395
   19DOPE  H18S 2403   6.691   4.222   4.922  2.2093  0.8374  1.9103
   19DOPE  H18T 2404   6.564   4.226   5.058 -0.1361 -0.2624 -0.5405
   19DOPE   C33 2405   6.777   2.964   6.346  0.6430 -0.3000  0.3262
   19DOPE   H3X 2406   6.885   2.947   6.366  0.6501  0.1196  0.6663
   19DOPE   H3Y 2407   6.774   3.044   6.269  0.9495 -0.2257  0.3893
   19DOPE   C34 2408   6.720   2.831   6.292  0.6306  0.1642 -0.8291
   19DOPE   H4X 2409   6.713   2.747   6.364 -0.7914  1.5873  0.7517
   19DOPE   H4Y 2410   6.616   2.848   6.256 -1.0216 -0.8114  3.0046
   19DOPE   C35 2411   6.815   2.788   6.179  1.2402  0.1504  0.0255
   19DOPE   H5X 2412   6.914   2.773   6.227  1.9937  2.0201 -0.8262
   19DOPE   H5Y 2413   6.816   2.870   6.104  0.3711  0.0576 -0.0997
   19DOPE   C36 2414   6.759   2.665   6.102  0.7729 -0.5125 -0.4016
   19DOPE   H6X 2415   6.649   2.677   6.093  0.8525  1.9373  0.9132
   19DOPE   H6Y 2416   6.790   2.582   6.169  0.1919 -1.0248 -0.7661
   19DOPE   C37 2417   6.821   2.648   5.964  0.3612 -0.0637  0.2585
   19DOPE   H7X 2418   6.930   2.666   5.963  0.2410  0.9494 -1.7197
   19DOPE   H7Y 2419   6.794   2.544   5.939 -4.3019  0.4179  2.2625
   19DOPE   C38 2420   6.765   2.753   5.862  0.4437 -0.2543  0.5135
   19DOPE   H8X 2421   6.808   2.855   5.876 -1.1734  0.2991  1.7764
   19DOPE   H8Y 2422   6.658   2.753   5.892  0.7686 -2.4892  1.9016
   19DOPE   C39 2423   6.781   2.710   5.721  0.5735  0.0052  0.3399
   19DOPE   H9X 2424   6.882   2.712   5.677 -0.1069  2.8879 -1.3424
   19DOPE  C310 2425   6.685   2.647   5.655  0.2537 -0.7191 -0.8764
   19DOPE  H10X 2426   6.701   2.612   5.552 -1.0093  0.6897 -1.5843
   19DOPE  C311 2427   6.555   2.617   5.727 -0.1700  0.3387 -0.1720
   19DOPE  H11X 2428   6.571   2.563   5.823  0.0081 -0.3685 -0.5848
   19DOPE  H11Y 2429   6.516   2.718   5.750  0.3459  0.9929 -1.9744
   19DOPE  C312 2430   6.452   2.535   5.654 -0.1695 -0.5530 -0.1266
   19DOPE  H12X 2431   6.381   2.499   5.732 -0.4309  1.1071  0.4457
   19DOPE  H12Y 2432   6.513   2.450   5.616  2.3790  1.7710 -1.5751
   19DOPE  C313 2433   6.382   2.611   5.542 -0.2525  0.6985  0.4048
   19DOPE  H13X 2434   6.301   2.558   5.488  0.3299  1.3434 -1.1797
   19DOPE  H13Y 2435   6.324   2.690   5.594 -0.9822  1.0995 -0.9578
   19DOPE  C314 2436   6.466   2.675   5.432  0.2594  0.1362 -0.6766
   19DOPE  H14X 2437   6.544   2.601   5.406  0.1496 -0.4026  0.4785
   19DOPE  H14Y 2438   6.513   2.765   5.479 -0.1448 -0.1073  0.2315
   19DOPE  C315 2439   6.379   2.706   5.311 -0.0372  0.0181  0.0912
   19DOPE  H15X 2440   6.275   2.669   5.318  0.8440 -2.5000  1.0152
   19DOPE  H15Y 2441   6.427   2.666   5.219 -2.0410 -0.5113 -0.7584
   19DOPE  C316 2442   6.372   2.864   5.277 -0.0177 -0.2272 -0.4647
   19DOPE  H16X 2443   6.326   2.872   5.176  1.3818 -0.1736 -1.1245
   19DOPE  H16Y 2444   6.480   2.889   5.263  0.0665 -1.6020 -2.6469
   19DOPE  C317 2445   6.306   2.957   5.379 -0.4376  0.0445  0.8182
   19DOPE  H17X 2446   6.207   2.917   5.409 -0.2543  0.9960  2.8685
   19DOPE  H17Y 2447   6.363   2.981   5.471  0.2686  2.2127 -0.1002
   19DOPE  C318 2448   6.296   3.098   5.316  0.0553  0.1739  0.5178
   19DOPE  H18X 2449   6.380   3.111   5.244 -1.1998  1.6497 -0.7524
   19DOPE  H18Y 2450   6.193   3.108   5.276 -0.1979  2.1019  1.5554
   19DOPE  H18Z 2451   6.307   3.183   5.387  2.6793 -0.5338  1.0818
   20DOPE     N 2452   6.227   6.682   6.944  0.3582 -0.8686  0.6705
   20DOPE   HN1 2453   6.269   6.598   6.989  2.5085 -0.0653  0.2962
   20DOPE   HN2 2454   6.311   6.728   6.904 -0.5110  1.2016  1.0919
   20DOPE   HN3 2455   6.198   6.747   7.020  0.4386  0.0909 -0.1053
   20DOPE   C12 2456   6.116   6.648   6.850 -0.3163 -0.0379  0.5636
   20DOPE  H12A 2457   6.162   6.588   6.769  0.1828  2.7047 -1.2981
   20DOPE  H12B 2458   6.060   6.737   6.814  2.5799  1.5033 -0.4432
   20DOPE   C11 2459   6.009   6.555   6.917 -0.5214 -0.2481 -0.2907
   20DOPE  H11A 2460   6.055   6.467   6.967  1.7066  1.5514  1.0236
   20DOPE  H11B 2461   5.952   6.517   6.830 -0.0425  1.7222 -1.5418
   20DOPE     P 2462   5.762   6.638   6.995  0.1395  0.1878  0.1854
   20DOPE   O13 2463   5.710   6.755   7.068  0.0008 -0.3624 -0.2545
   20DOPE   O14 2464   5.698   6.514   7.035 -0.2001  0.9729 -0.0436
   20DOPE   O11 2465   5.746   6.663   6.837  0.3976 -0.0699  0.2076
   20DOPE   O12 2466   5.924   6.630   7.008  0.2801 -0.0185 -0.2735
   20DOPE    C1 2467   5.789   6.789   6.784 -0.0672  0.2693  0.1663
   20DOPE    HA 2468   5.839   6.776   6.685  0.7850 -3.5824  0.9568
   20DOPE    HB 2469   5.871   6.834   6.845 -0.0730  1.3227 -0.5569
   20DOPE    C2 2470   5.668   6.879   6.760 -0.0393  0.1529 -0.5218
   20DOPE    HS 2471   5.604   6.877   6.850  1.9988  0.0739  0.9857
   20DOPE   O21 2472   5.605   6.818   6.643 -0.3623  0.0645 -0.0927
   20DOPE   C21 2473   5.494   6.870   6.596  0.0996 -0.1661  0.1471
   20DOPE   O22 2474   5.425   6.956   6.650  0.4415  0.4456  0.1294
   20DOPE   C22 2475   5.463   6.802   6.463  0.1013  0.2673 -1.0135
   20DOPE   H2R 2476   5.532   6.715   6.459 -0.1681 -0.2043  1.9666
   20DOPE   H2S 2477   5.472   6.878   6.384 -0.3304  0.1285 -1.1985
   20DOPE    C3 2478   5.715   7.028   6.745 -0.0197 -0.3973  0.5015
   20DOPE    HX 2479   5.771   7.046   6.840  3.4793 -1.1256 -1.2541
   20DOPE    HY 2480   5.620   7.082   6.727 -0.5064 -0.9016  1.4614
   20DOPE   O31 2481   5.796   7.052   6.628 -0.0056 -0.2744  1.2097
   20DOPE   C31 2482   5.806   7.184   6.594 -0.2073  0.1389  0.2911
   20DOPE   O32 2483   5.770   7.275   6.662 -0.4578 -0.6264  0.1615
   20DOPE   C32 2484   5.873   7.203   6.455 -0.3217 -0.5790 -0.1358
   20DOPE   H2X 2485   5.812   7.284   6.409  0.9602  0.6070  0.1733
   20DOPE   H2Y 2486   5.970   7.244   6.488  0.4479 -2.1910 -0.3048
   20DOPE   C23 2487   5.321   6.749   6.456  0.3207  0.3300 -0.2610
   20DOPE   H3R 2488   5.247   6.829   6.476 -1.4170 -1.1723 -0.3810
   20DOPE   H3S 2489   5.295   6.667   6.526 -0.5475 -0.5929 -1.6169
   20DOPE   C24 2490   5.275   6.678   6.324 -0.8349  0.1267  0.0366
   20DOPE   H4R 2491   5.340   6.588   6.323 -0.7784  0.1005  2.2741
   20DOPE   H4S 2492   5.297   6.745   6.238 -1.9895  1.3399  0.6540
   20DOPE   C25 2493   5.136   6.628   6.301 -0.8153  0.3392 -0.4654
   20DOPE   H5R 2494   5.066   6.703   6.344 -1.4729 -0.1241 -0.7084
   20DOPE   H5S 2495   5.116   6.533   6.355  2.0106  1.0295  2.0315
   20DOPE   C26 2496   5.113   6.599   6.152  0.6106  0.4779  0.2311
   20DOPE   H6R 2497   5.191   6.532   6.112  0.2482  0.3292 -0.2367
   20DOPE   H6S 2498   5.115   6.699   6.103 -1.7552  0.5134  0.0998
   20DOPE   C27 2499   4.981   6.533   6.116  0.7270  0.1496  0.3048
   20DOPE   H7R 2500   4.896   6.595   6.154  1.7041  0.7504  1.5993
   20DOPE   H7S 2501   4.977   6.442   6.179  0.6690 -0.5399 -0.6712
   20DOPE   C28 2502   4.975   6.478   5.972  0.1490 -0.0394 -0.3738
   20DOPE   H8R 2503   4.884   6.414   5.960  0.5182 -0.9171  1.1560
   20DOPE   H8S 2504   5.053   6.399   5.964 -1.1108 -1.3093 -0.5810
   20DOPE   C29 2505   4.986   6.585   5.864  0.5650 -0.0896  0.0925
   20DOPE   H9R 2506   5.069   6.656   5.865 -0.0015  0.6243 -1.2478
   20DOPE  C210 2507   4.893   6.607   5.761 -0.3068 -0.5415 -0.6416
   20DOPE  H10R 2508   4.906   6.698   5.701  0.9721 -0.6960 -0.6183
   20DOPE  C211 2509   4.765   6.533   5.729  0.3174  0.3297  0.1763
   20DOPE  H11R 2510   4.676   6.599   5.730  1.6112  2.2000 -1.1216
   20DOPE  H11S 2511   4.746   6.456   5.807  1.7936 -0.0307  0.2187
   20DOPE  C212 2512   4.781   6.454   5.600 -0.1105 -0.5721 -0.2036
   20DOPE  H12R 2513   4.695   6.385   5.586 -1.3705  0.3173  2.3725
   20DOPE  H12S 2514   4.869   6.387   5.615 -1.2682 -2.2043 -0.4861
   20DOPE  C213 2515   4.786   6.547   5.472  0.3095  0.0204 -0.1882
   20DOPE  H13R 2516   4.806   6.469   5.395  1.3411 -1.4666  1.5003
   20DOPE  H13S 2517   4.871   6.617   5.481 -1.2793  1.8853  0.9800
   20DOPE  C214 2518   4.664   6.623   5.439 -0.1574  0.1618 -0.2882
   20DOPE  H14R 2519   4.645   6.701   5.516  0.7904 -0.4787  0.6116
   20DOPE  H14S 2520   4.591   6.540   5.442  0.7087 -0.5850  1.7423
   20DOPE  C215 2521   4.665   6.682   5.298 -0.0291  0.1033  0.0465
   20DOPE  H15R 2522   4.700   6.609   5.221  1.6271  0.9586 -0.0537
   20DOPE  H15S 2523   4.745   6.759   5.297  0.1600 -0.0697 -1.7327
   20DOPE  C216 2524   4.524   6.740   5.260  0.0474 -0.4553  0.0907
   20DOPE  H16R 2525   4.507   6.820   5.335  0.7012 -0.3616  0.1411
   20DOPE  H16S 2526   4.449   6.661   5.282 -1.2497  0.8678  0.6219
   20DOPE  C217 2527   4.505   6.785   5.113  0.3358 -0.0079  0.2095
   20DOPE  H17R 2528   4.396   6.793   5.094  0.1893  2.3639  1.6238
   20DOPE  H17S 2529   4.541   6.705   5.044 -1.1112  0.6457 -1.3842
   20DOPE  C218 2530   4.586   6.915   5.085 -0.9512 -0.2342 -1.0908
   20DOPE  H18R 2531   4.687   6.912   5.132 -1.5802 -1.4568  0.2601
   20DOPE  H18S 2532   4.539   7.002   5.136  3.5829  1.3130  0.9673
   20DOPE  H18T 2533   4.596   6.935   4.976 -0.7880 -0.2520 -1.0790
   20DOPE   C33 2534   5.899   7.065   6.378 -0.2943  0.5934  0.3597
   20DOPE   H3X 2535   5.935   6.984   6.445 -0.5004  0.1002 -0.1142
   20DOPE   H3Y 2536   5.976   7.077   6.299 -0.0625 -1.1680  0.2767
   20DOPE   C34 2537   5.777   7.019   6.296 -0.4668  0.3528 -0.1637
   20DOPE   H4X 2538   5.696   7.010   6.371 -0.3144  2.2498  0.2847
   20DOPE   H4Y 2539   5.741   7.100   6.228 -1.2178  1.1286  1.1084
   20DOPE   C35 2540   5.803   6.890   6.217 -0.3291 -0.3635 -0.7040
   20DOPE   H5X 2541   5.812   6.810   6.294  3.7200 -2.7001 -3.2045
   20DOPE   H5Y 2542   5.892   6.887   6.151  0.5827  0.5440  0.4488
   20DOPE   C36 2543   5.678   6.848   6.134 -0.0912  0.2520 -0.4671
   20DOPE   H6X 2544   5.697   6.909   6.042 -0.2416  0.6784 -0.2201
   20DOPE   H6Y 2545   5.581   6.873   6.184 -1.3138 -0.0182 -2.5846
   20DOPE   C37 2546   5.671   6.706   6.093  0.4174  0.4281 -0.1562
   20DOPE   H7X 2547   5.764   6.679   6.039 -0.2219  0.3445 -1.2393
   20DOPE   H7Y 2548   5.655   6.643   6.184 -0.1206  1.1330  0.2465
   20DOPE   C38 2549   5.542   6.683   6.016 -0.0224  0.2991 -0.4771
   20DOPE   H8X 2550   5.533   6.762   5.939  3.1839  0.0553 -1.2538
   20DOPE   H8Y 2551   5.464   6.684   6.095  0.3250  4.2303  0.0118
   20DOPE   C39 2552   5.570   6.550   5.943  0.5724  0.0644 -0.6537
   20DOPE   H9X 2553   5.576   6.470   6.019 -0.4593  1.1041  0.5917
   20DOPE  C310 2554   5.590   6.523   5.813  0.9990  0.4113 -0.2736
   20DOPE  H10X 2555   5.600   6.419   5.779 -1.3453  0.1885 -0.4566
   20DOPE  C311 2556   5.591   6.614   5.695 -0.4793 -0.3110  0.5709
   20DOPE  H11X 2557   5.608   6.721   5.722  1.3828 -1.6850  5.9456
   20DOPE  H11Y 2558   5.683   6.586   5.640  0.2521  2.2660  0.3544
   20DOPE  C312 2559   5.473   6.604   5.601 -0.0838  0.4713 -0.5856
   20DOPE  H12X 2560   5.469   6.497   5.571 -1.1904  0.1451  0.6344
   20DOPE  H12Y 2561   5.503   6.654   5.507  1.4033  0.7287 -0.0119
   20DOPE  C313 2562   5.338   6.658   5.650  0.1141 -0.0491 -0.0010
   20DOPE  H13X 2563   5.324   6.595   5.740  0.7443 -0.2737 -0.0549
   20DOPE  H13Y 2564   5.358   6.764   5.680 -2.4035  0.2222  0.9388
   20DOPE  C314 2565   5.217   6.649   5.560 -0.2145 -0.0686 -0.0896
   20DOPE  H14X 2566   5.131   6.693   5.614  0.2305 -1.8396  2.2611
   20DOPE  H14Y 2567   5.181   6.550   5.526 -1.1102  0.4733 -0.7418
   20DOPE  C315 2568   5.248   6.731   5.436 -0.0937  0.1896 -0.0466
   20DOPE  H15X 2569   5.341   6.700   5.384  0.5934  0.3496  1.0382
   20DOPE  H15Y 2570   5.250   6.837   5.470 -0.0289  0.1052  0.2199
   20DOPE  C316 2571   5.138   6.727   5.325  0.0068  0.1437  0.4850
   20DOPE  H16X 2572   5.053   6.767   5.384  1.0238  2.4525  0.4645
   20DOPE  H16Y 2573   5.115   6.622   5.296 -0.6145 -0.5794  3.2818
   20DOPE  C317 2574   5.168   6.820   5.208  0.1109 -0.6623 -0.1120
   20DOPE  H17X 2575   5.166   6.923   5.250 -1.1080 -1.1827  1.1947
   20DOPE  H17Y 2576   5.274   6.801   5.178  0.3069 -0.9471  0.7209
   20DOPE  C318 2577   5.075   6.827   5.084  0.2832  0.3906  0.2434
   20DOPE  H18X 2578   4.972   6.807   5.120  0.5876 -2.1558 -0.1604
   20DOPE  H18Y 2579   5.078   6.927   5.035 -0.6261  0.7742  0.9362
   20DOPE  H18Z 2580   5.094   6.751   5.005  0.7923  1.1658 -0.3977
   21DOPE     N 2581   3.159   7.260   7.341 -0.3081  0.5878  0.0199
   21DOPE   HN1 2582   3.175   7.166   7.300  1.2919  0.8313  0.0118
   21DOPE   HN2 2583   3.224   7.262   7.422  0.0341  1.4484 -0.2598
   21DOPE   HN3 2584   3.059   7.248   7.369  0.1232 -1.4277  0.8890
   21DOPE   C12 2585   3.188   7.363   7.234 -0.5716  0.1678  0.0288
   21DOPE  H12A 2586   3.297   7.356   7.212 -0.8250  0.4457 -1.3919
   21DOPE  H12B 2587   3.171   7.462   7.280 -0.9782  0.6924 -1.2124
   21DOPE   C11 2588   3.105   7.328   7.110  0.0398 -0.2800  0.3976
   21DOPE  H11A 2589   3.157   7.249   7.053 -0.3020  0.8661 -1.6061
   21DOPE  H11B 2590   3.102   7.414   7.040  2.8882 -0.2657  0.1990
   21DOPE     P 2591   2.859   7.268   7.046 -0.2297 -0.4450 -0.3357
   21DOPE   O13 2592   2.755   7.172   7.102 -0.1158  0.1913  0.0189
   21DOPE   O14 2593   2.924   7.220   6.927  0.5884 -0.0253  0.0410
   21DOPE   O11 2594   2.810   7.421   7.022 -0.1110  0.5907 -0.6252
   21DOPE   O12 2595   2.975   7.287   7.149  0.3685 -0.0818  0.0546
   21DOPE    C1 2596   2.873   7.501   6.920 -0.0808 -0.9301 -0.5488
   21DOPE    HA 2597   2.913   7.442   6.834  1.7699  0.3509 -0.6162
   21DOPE    HB 2598   2.960   7.555   6.964 -0.5136 -0.8336  0.2083
   21DOPE    C2 2599   2.776   7.598   6.855  0.0345  0.0198 -0.1757
   21DOPE    HS 2600   2.764   7.686   6.923  0.6505 -0.4388  0.5354
   21DOPE   O21 2601   2.653   7.546   6.835 -0.6535  0.3908  0.0901
   21DOPE   C21 2602   2.559   7.632   6.807 -0.1520  0.3638 -0.5566
   21DOPE   O22 2603   2.559   7.750   6.835 -0.0037  0.0910 -0.0983
   21DOPE   C22 2604   2.441   7.554   6.745  0.3444  1.2895 -0.5772
   21DOPE   H2R 2605   2.367   7.528   6.825 -0.5192  0.2462 -1.6705
   21DOPE   H2S 2606   2.472   7.450   6.723  0.6920  1.2325  0.1723
   21DOPE    C3 2607   2.835   7.653   6.717 -0.0670 -0.3005 -0.0360
   21DOPE    HX 2608   2.914   7.723   6.754 -0.5213  0.8022 -1.0819
   21DOPE    HY 2609   2.752   7.712   6.673 -1.0245 -0.4441  1.5092
   21DOPE   O31 2610   2.887   7.543   6.632  0.4183 -0.7640 -0.7747
   21DOPE   C31 2611   2.989   7.576   6.552  0.5820 -0.2009  0.3282
   21DOPE   O32 2612   3.047   7.682   6.551  0.2963 -0.5304 -0.2218
   21DOPE   C32 2613   3.016   7.460   6.460 -0.6392 -0.5996 -0.1550
   21DOPE   H2X 2614   3.087   7.391   6.510 -2.1916 -2.2304 -0.0965
   21DOPE   H2Y 2615   2.921   7.407   6.435 -0.9839  0.7687 -1.9901
   21DOPE   C23 2616   2.365   7.619   6.632 -0.7156  0.7287  0.3869
   21DOPE   H3R 2617   2.314   7.708   6.674 -0.2588  1.3862 -0.4141
   21DOPE   H3S 2618   2.292   7.547   6.588 -0.3965  0.3690  0.4407
   21DOPE   C24 2619   2.449   7.638   6.502 -0.5577  0.2600 -1.4653
   21DOPE   H4R 2620   2.482   7.535   6.475 -1.3109 -0.8098  1.3799
   21DOPE   H4S 2621   2.537   7.691   6.543 -1.0975  0.2614 -0.2878
   21DOPE   C25 2622   2.378   7.704   6.385 -0.1435 -0.0903 -0.1884
   21DOPE   H5R 2623   2.337   7.800   6.425  0.1846  0.4240 -1.0533
   21DOPE   H5S 2624   2.292   7.645   6.348 -0.9526  0.1829  1.1617
   21DOPE   C26 2625   2.463   7.719   6.258 -0.4662  0.0505  1.0910
   21DOPE   H6R 2626   2.409   7.762   6.172  2.7049  0.5070 -0.8397
   21DOPE   H6S 2627   2.507   7.623   6.223 -2.3184  0.5703 -3.2658
   21DOPE   C27 2628   2.582   7.823   6.284  0.2714 -0.5047  0.1284
   21DOPE   H7R 2629   2.632   7.793   6.378 -0.8295 -0.8095  0.6362
   21DOPE   H7S 2630   2.534   7.923   6.291  0.9915 -0.2584  1.9746
   21DOPE   C28 2631   2.667   7.825   6.157  0.2482  0.4152 -0.6048
   21DOPE   H8R 2632   2.606   7.820   6.064 -0.8119  1.8991 -0.0335
   21DOPE   H8S 2633   2.723   7.730   6.154  1.5744  1.1954 -1.5491
   21DOPE   C29 2634   2.767   7.945   6.144  0.7201  0.1595 -0.0881
   21DOPE   H9R 2635   2.807   7.964   6.245  0.2680 -2.3606  0.6464
   21DOPE  C210 2636   2.813   8.016   6.043  0.2870 -0.0354  0.6475
   21DOPE  H10R 2637   2.884   8.097   6.066  0.9959 -0.0295 -1.3690
   21DOPE  C211 2638   2.785   7.996   5.898  0.2021 -0.3152  0.2967
   21DOPE  H11R 2639   2.726   8.085   5.866  2.3931  0.3157 -2.3773
   21DOPE  H11S 2640   2.740   7.896   5.884  0.7471 -1.1417  3.5070
   21DOPE  C212 2641   2.911   8.001   5.815  0.0395  0.0701  0.2974
   21DOPE  H12R 2642   2.973   7.914   5.846 -0.7637 -1.2500 -1.5916
   21DOPE  H12S 2643   2.962   8.096   5.841  0.0186 -0.0425  0.7598
   21DOPE  C213 2644   2.859   8.015   5.672  0.1066  0.0343 -0.6345
   21DOPE  H13R 2645   2.778   8.090   5.669 -0.2235 -0.3290 -0.9282
   21DOPE  H13S 2646   2.810   7.922   5.636 -2.7890  0.5420  1.5523
   21DOPE  C214 2647   2.967   8.061   5.569 -0.6054 -0.1608  0.0173
   21DOPE  H14R 2648   3.049   8.121   5.612  0.5705  0.6190 -3.0330
   21DOPE  H14S 2649   2.919   8.125   5.492 -0.7132  1.4271  1.3558
   21DOPE  C215 2650   3.042   7.951   5.493 -0.0393 -0.1261  1.0947
   21DOPE  H15R 2651   2.971   7.886   5.438 -1.1774  1.9498  0.0103
   21DOPE  H15S 2652   3.084   7.894   5.579  0.6327 -3.6684 -1.3537
   21DOPE  C216 2653   3.155   7.990   5.396  0.7026  0.5534  0.3400
   21DOPE  H16R 2654   3.113   8.068   5.329 -1.0531  0.0646  0.8165
   21DOPE  H16S 2655   3.204   7.908   5.341 -0.5810  0.8557 -1.3366
   21DOPE  C217 2656   3.272   8.048   5.482  0.4972 -0.0134 -0.5496
   21DOPE  H17R 2657   3.326   7.984   5.556 -0.2884  0.8178  0.7770
   21DOPE  H17S 2658   3.241   8.125   5.555  0.5356 -1.4419  1.0468
   21DOPE  C218 2659   3.368   8.109   5.389  0.6968  0.7473  0.2434
   21DOPE  H18R 2660   3.470   8.117   5.433  0.7909 -3.7311  1.2884
   21DOPE  H18S 2661   3.334   8.210   5.358 -0.4251 -0.3184 -2.2724
   21DOPE  H18T 2662   3.374   8.047   5.297  1.5453 -1.5243  1.7548
   21DOPE   C33 2663   3.084   7.503   6.330  1.1797 -0.4639  0.1868
   21DOPE   H3X 2664   3.129   7.417   6.275  1.4324 -0.7871  0.8835
   21DOPE   H3Y 2665   3.158   7.583   6.350 -0.5073  1.2214 -0.0094
   21DOPE   C34 2666   2.976   7.558   6.229  0.5027  0.2297  0.6776
   21DOPE   H4X 2667   2.898   7.484   6.198  0.9631 -0.7066  1.6776
   21DOPE   H4Y 2668   2.918   7.640   6.275 -0.4863 -0.7325  1.2042
   21DOPE   C35 2669   3.031   7.624   6.106  0.6642 -0.0179  0.4431
   21DOPE   H5X 2670   3.109   7.696   6.136 -0.7842  2.8546 -2.1301
   21DOPE   H5Y 2671   2.941   7.679   6.072 -0.1878 -0.2518  2.1989
   21DOPE   C36 2672   3.073   7.530   5.986  0.6880  0.0306 -0.5191
   21DOPE   H6X 2673   2.984   7.473   5.951  0.6612 -0.5019  0.4047
   21DOPE   H6Y 2674   3.142   7.453   6.025 -0.5014 -0.6090  0.4086
   21DOPE   C37 2675   3.145   7.629   5.889 -0.4642  0.9589 -0.0635
   21DOPE   H7X 2676   3.059   7.667   5.830 -1.8200  0.3341  1.4022
   21DOPE   H7Y 2677   3.197   7.709   5.946  0.7255 -0.2223  0.5486
   21DOPE   C38 2678   3.259   7.561   5.806 -0.1984  0.0891  0.4024
   21DOPE   H8X 2679   3.221   7.466   5.763  0.1764  1.3029 -2.9658
   21DOPE   H8Y 2680   3.349   7.547   5.870  0.3737  0.7439 -0.2344
   21DOPE   C39 2681   3.306   7.637   5.686  0.0610  0.3462 -0.0116
   21DOPE   H9X 2682   3.228   7.677   5.620 -1.1257  1.1375  1.8029
   21DOPE  C310 2683   3.430   7.677   5.658 -0.3280 -0.1603 -0.6440
   21DOPE  H10X 2684   3.449   7.734   5.566  1.4302  0.9563  0.3595
   21DOPE  C311 2685   3.550   7.651   5.747 -0.1189  0.2097 -0.6410
   21DOPE  H11X 2686   3.550   7.543   5.773  0.8855 -0.5310 -3.3229
   21DOPE  H11Y 2687   3.638   7.671   5.682  0.2758  1.1565  0.1701
   21DOPE  C312 2688   3.575   7.741   5.872 -0.4047  0.2568 -0.0100
   21DOPE  H12X 2689   3.501   7.728   5.954  1.2915  1.5384  1.8470
   21DOPE  H12Y 2690   3.569   7.846   5.835 -1.9726 -0.2364 -1.2593
   21DOPE  C313 2691   3.704   7.720   5.945 -0.3416 -0.1498 -0.0059
   21DOPE  H13X 2692   3.698   7.626   6.003  0.5624  0.1239  0.5550
   21DOPE  H13Y 2693   3.780   7.705   5.865  1.1517  2.7689  0.7051
   21DOPE  C314 2694   3.756   7.834   6.035 -0.5183 -0.7970  0.6038
   21DOPE  H14X 2695   3.743   7.920   5.967  2.7030 -0.9529 -0.3550
   21DOPE  H14Y 2696   3.864   7.834   6.061 -0.3457 -0.0970 -0.0787
   21DOPE  C315 2697   3.661   7.848   6.159 -0.9357 -0.4812 -0.4591
   21DOPE  H15X 2698   3.649   7.752   6.213 -1.6830  0.2773  0.7637
   21DOPE  H15Y 2699   3.560   7.887   6.137 -1.7256 -1.4598  1.2510
   21DOPE  C316 2700   3.712   7.943   6.272 -0.0403 -0.2857 -0.1612
   21DOPE  H16X 2701   3.709   8.051   6.244 -2.2334  0.0109  0.9869
   21DOPE  H16Y 2702   3.815   7.935   6.311 -0.7174  1.7901  2.3565
   21DOPE  C317 2703   3.619   7.938   6.391 -0.3390 -0.4750  0.3958
   21DOPE  H17X 2704   3.629   7.844   6.451 -0.7499 -1.1866 -0.6156
   21DOPE  H17Y 2705   3.654   8.015   6.463 -3.6288 -0.7594  2.5205
   21DOPE  C318 2706   3.472   7.972   6.372  0.3350 -0.7102  0.6924
   21DOPE  H18X 2707   3.416   7.894   6.316  0.4775 -1.3343  1.3949
   21DOPE  H18Y 2708   3.425   7.978   6.472  0.2011 -2.0868  0.7422
   21DOPE  H18Z 2709   3.454   8.063   6.312 -0.7980 -1.2898  0.1324
   22DOPE     N 2710   7.111   4.532   6.746 -0.0654  0.4597  0.0099
   22DOPE   HN1 2711   7.142   4.433   6.752 -1.4062  0.0138 -0.1318
   22DOPE   HN2 2712   7.024   4.533   6.803 -1.0462  0.5289 -1.4288
   22DOPE   HN3 2713   7.081   4.556   6.649 -3.1011 -0.4102  0.6366
   22DOPE   C12 2714   7.204   4.636   6.796 -0.5494 -0.3022  1.0419
   22DOPE  H12A 2715   7.162   4.737   6.774  2.8582  1.6039  2.4870
   22DOPE  H12B 2716   7.300   4.628   6.740 -1.2490  0.3000 -0.3021
   22DOPE   C11 2717   7.225   4.643   6.949  0.4512 -0.2803 -0.1864
   22DOPE  H11A 2718   7.124   4.658   6.993  0.6456  0.7486 -0.0798
   22DOPE  H11B 2719   7.285   4.731   6.979  2.0987 -1.1441 -0.8200
   22DOPE     P 2720   7.428   4.480   6.984 -0.1462 -0.3193 -0.0284
   22DOPE   O13 2721   7.444   4.339   7.025 -0.1849 -0.0324  0.3872
   22DOPE   O14 2722   7.505   4.572   7.076  0.0098 -0.4889 -0.1504
   22DOPE   O11 2723   7.480   4.502   6.841 -0.0771  0.2212 -0.1464
   22DOPE   O12 2724   7.277   4.516   7.002 -0.3142  0.0045  0.5418
   22DOPE    C1 2725   7.511   4.402   6.737 -0.1765 -0.2530  0.1195
   22DOPE    HA 2726   7.484   4.439   6.636  1.3918 -0.5292 -0.4188
   22DOPE    HB 2727   7.459   4.304   6.743 -1.8777  0.6092  0.2040
   22DOPE    C2 2728   7.664   4.379   6.732 -1.3261  0.0436 -0.0616
   22DOPE    HS 2729   7.689   4.347   6.836  0.3462  4.9685  1.3045
   22DOPE   O21 2730   7.734   4.502   6.701  0.6121  0.0559 -0.1408
   22DOPE   C21 2731   7.816   4.552   6.784 -0.1637 -0.2583 -0.4366
   22DOPE   O22 2732   7.851   4.514   6.896 -0.4092 -0.0174  0.0182
   22DOPE   C22 2733   7.876   4.679   6.716  0.0178 -0.4878  0.5883
   22DOPE   H2R 2734   7.799   4.726   6.651 -0.0056 -1.6579 -0.2720
   22DOPE   H2S 2735   7.966   4.640   6.664 -0.4187 -0.8667  0.0961
   22DOPE    C3 2736   7.697   4.266   6.631 -0.2634  0.5653  0.1786
   22DOPE    HX 2737   7.639   4.179   6.668  0.0641 -0.2589 -1.1727
   22DOPE    HY 2738   7.807   4.248   6.637 -0.5212 -1.4456 -0.4669
   22DOPE   O31 2739   7.657   4.311   6.502 -0.1610  0.3824  0.4359
   22DOPE   C31 2740   7.752   4.344   6.412 -0.9208 -0.2767 -0.1405
   22DOPE   O32 2741   7.871   4.337   6.435  0.1810  0.0753  0.8765
   22DOPE   C32 2742   7.679   4.361   6.275  0.3531  0.6186  0.5503
   22DOPE   H2X 2743   7.624   4.457   6.281  2.3073  1.8303  0.0609
   22DOPE   H2Y 2744   7.760   4.352   6.199  1.9191  0.6484  2.1382
   22DOPE   C23 2745   7.913   4.794   6.813 -0.2310 -0.0204  0.5536
   22DOPE   H3R 2746   7.982   4.872   6.773  1.1289 -0.7055  1.4776
   22DOPE   H3S 2747   7.979   4.751   6.891  0.4139  0.0762  0.0707
   22DOPE   C24 2748   7.793   4.857   6.886 -0.2236  0.4901  0.0981
   22DOPE   H4R 2749   7.850   4.923   6.955  0.2718 -1.4822  1.6715
   22DOPE   H4S 2750   7.747   4.783   6.954 -1.3829 -0.3840 -1.5689
   22DOPE   C25 2751   7.687   4.932   6.802 -0.4495 -0.0824  0.1862
   22DOPE   H5R 2752   7.624   4.992   6.872 -1.1799 -1.3327  0.6339
   22DOPE   H5S 2753   7.624   4.850   6.760  2.1527 -1.5939 -0.9812
   22DOPE   C26 2754   7.749   5.015   6.685 -0.0872 -0.7395 -0.1049
   22DOPE   H6R 2755   7.796   4.952   6.606  0.3944 -1.3177  0.6373
   22DOPE   H6S 2756   7.828   5.080   6.728 -0.9649  0.6407 -0.4911
   22DOPE   C27 2757   7.654   5.113   6.615 -0.0923 -0.0418  0.5494
   22DOPE   H7R 2758   7.618   5.196   6.679  0.0440  0.1804  0.3444
   22DOPE   H7S 2759   7.567   5.048   6.593 -1.3455  1.4174  1.0221
   22DOPE   C28 2760   7.714   5.163   6.480 -0.1814  0.1374  0.2177
   22DOPE   H8R 2761   7.646   5.237   6.432  0.9024 -0.4601 -2.4531
   22DOPE   H8S 2762   7.728   5.084   6.403 -1.3552  0.3260 -0.2143
   22DOPE   C29 2763   7.841   5.235   6.501 -0.6313  0.0224  0.2211
   22DOPE   H9R 2764   7.831   5.307   6.583 -2.5619  2.0198 -1.6389
   22DOPE  C210 2765   7.941   5.256   6.417 -0.3688 -0.2152 -0.2425
   22DOPE  H10R 2766   8.027   5.321   6.442 -0.3584  0.5127 -1.9962
   22DOPE  C211 2767   7.945   5.215   6.273 -1.0604  0.3562 -0.3230
   22DOPE  H11R 2768   7.907   5.111   6.266  0.3549 -0.2847  0.7994
   22DOPE  H11S 2769   8.049   5.217   6.232 -0.9761  2.4259 -0.1131
   22DOPE  C212 2770   7.856   5.301   6.185  0.0855  0.2951  0.2643
   22DOPE  H12R 2771   7.891   5.406   6.195 -2.0871  1.0719  0.3111
   22DOPE  H12S 2772   7.748   5.286   6.207  0.1937 -0.0834  0.5545
   22DOPE  C213 2773   7.869   5.261   6.043 -0.3556 -0.3119  0.5243
   22DOPE  H13R 2774   7.864   5.152   6.022 -1.0677 -0.0163 -0.9956
   22DOPE  H13S 2775   7.961   5.305   5.997 -0.6528  0.2471  0.4649
   22DOPE  C214 2776   7.749   5.301   5.956  0.5648  0.4399 -0.3581
   22DOPE  H14R 2777   7.723   5.405   5.986 -1.5349 -0.7092  2.1819
   22DOPE  H14S 2778   7.665   5.235   5.985 -0.7815  1.5365 -1.6078
   22DOPE  C215 2779   7.761   5.282   5.808 -0.1893  0.2009 -0.5720
   22DOPE  H15R 2780   7.751   5.177   5.771 -0.5722 -0.1176  0.4024
   22DOPE  H15S 2781   7.866   5.306   5.783  0.2087  0.4820  1.2525
   22DOPE  C216 2782   7.674   5.371   5.721 -0.2523 -0.5142  0.2481
   22DOPE  H16R 2783   7.692   5.479   5.737 -1.8238 -0.4104  1.6539
   22DOPE  H16S 2784   7.568   5.360   5.755 -0.1638  0.7282  0.9660
   22DOPE  C217 2785   7.700   5.333   5.571  0.2235 -0.7704  0.0035
   22DOPE  H17R 2786   7.807   5.347   5.547  0.6595 -2.4120  0.8562
   22DOPE  H17S 2787   7.654   5.415   5.512 -0.1090 -1.0343 -0.1134
   22DOPE  C218 2788   7.637   5.206   5.533  0.2839  0.1338  0.1704
   22DOPE  H18R 2789   7.639   5.191   5.423 -0.6387 -0.6887  0.2508
   22DOPE  H18S 2790   7.529   5.204   5.558 -0.2805  0.7994 -1.9956
   22DOPE  H18T 2791   7.690   5.121   5.581  0.0066  1.2950  2.6745
   22DOPE   C33 2792   7.580   4.244   6.237 -0.0252  0.2053  0.1796
   22DOPE   H3X 2793   7.494   4.249   6.307 -1.2736  0.0897 -1.2988
   22DOPE   H3Y 2794   7.639   4.150   6.251  1.1233  0.7356 -0.9266
   22DOPE   C34 2795   7.525   4.246   6.089  0.0514 -0.0311 -0.0454
   22DOPE   H4X 2796   7.462   4.156   6.073  1.0592 -0.5518 -1.2658
   22DOPE   H4Y 2797   7.463   4.336   6.070  1.3830  0.8544 -0.3275
   22DOPE   C35 2798   7.635   4.262   5.982  0.4414  0.5386 -0.4485
   22DOPE   H5X 2799   7.706   4.344   6.006 -1.1298  1.8678 -0.2335
   22DOPE   H5Y 2800   7.579   4.275   5.887 -1.7402 -0.3779  0.6510
   22DOPE   C36 2801   7.720   4.136   5.950  0.2749  0.1860 -0.2115
   22DOPE   H6X 2802   7.654   4.047   5.950  1.1491 -0.5537 -2.7002
   22DOPE   H6Y 2803   7.801   4.104   6.019 -1.8239 -5.3644  0.1673
   22DOPE   C37 2804   7.798   4.141   5.816 -0.1417 -0.7719 -0.1365
   22DOPE   H7X 2805   7.728   4.148   5.730  1.0903  0.5450 -1.0648
   22DOPE   H7Y 2806   7.857   4.234   5.825 -1.8504  0.3518  0.0408
   22DOPE   C38 2807   7.888   4.013   5.784  0.0339  0.4425  0.2979
   22DOPE   H8X 2808   7.957   3.987   5.867  0.6947 -1.0000 -0.6635
   22DOPE   H8Y 2809   7.966   4.048   5.714 -1.6480  0.3865 -1.6924
   22DOPE   C39 2810   7.808   3.888   5.741  0.1318  0.2466 -0.1500
   22DOPE   H9X 2811   7.787   3.811   5.817  3.5375 -0.7463 -0.0618
   22DOPE  C310 2812   7.772   3.860   5.611  0.3608 -0.2233 -0.1820
   22DOPE  H10X 2813   7.696   3.783   5.590  2.2845 -1.2416 -4.5675
   22DOPE  C311 2814   7.804   3.943   5.489  0.1631 -0.1554 -0.5909
   22DOPE  H11X 2815   7.855   4.038   5.516  1.8145 -1.1908  0.0190
   22DOPE  H11Y 2816   7.867   3.883   5.420  1.5017 -1.7186  1.8521
   22DOPE  C312 2817   7.683   3.983   5.404  0.1306 -0.9819  0.3060
   22DOPE  H12X 2818   7.719   4.041   5.316 -2.4066  0.6883  0.2794
   22DOPE  H12Y 2819   7.608   4.045   5.457 -0.3108  0.0192 -1.4081
   22DOPE  C313 2820   7.605   3.868   5.328  0.2604  0.3586 -0.0102
   22DOPE  H13X 2821   7.687   3.811   5.279  1.2003  0.3607  1.4968
   22DOPE  H13Y 2822   7.560   3.802   5.406  1.8452 -0.7318  0.0421
   22DOPE  C314 2823   7.512   3.914   5.220  0.1160 -0.2565  0.3427
   22DOPE  H14X 2824   7.568   3.980   5.151 -1.9834 -0.4021 -1.6023
   22DOPE  H14Y 2825   7.431   3.977   5.264 -0.1081  0.8225 -1.5003
   22DOPE  C315 2826   7.444   3.809   5.128  0.3933 -0.2825  0.4358
   22DOPE  H15X 2827   7.526   3.764   5.068 -0.3655 -0.3997 -0.5420
   22DOPE  H15Y 2828   7.388   3.865   5.050  1.8144 -2.2100 -2.1288
   22DOPE  C316 2829   7.363   3.704   5.196 -0.6929  0.1836  0.0318
   22DOPE  H16X 2830   7.271   3.748   5.240 -0.1119  0.0382  1.4790
   22DOPE  H16Y 2831   7.416   3.665   5.286 -2.9284  1.9024  2.2269
   22DOPE  C317 2832   7.321   3.594   5.109 -0.4785  0.3689 -0.4254
   22DOPE  H17X 2833   7.268   3.626   5.018 -0.0227  0.9195 -0.4981
   22DOPE  H17Y 2834   7.412   3.539   5.078 -2.5070 -2.4753 -1.9027
   22DOPE  C318 2835   7.230   3.484   5.175 -0.1451  0.2342 -0.5865
   22DOPE  H18X 2836   7.279   3.429   5.257  0.2044  1.7137  0.2352
   22DOPE  H18Y 2837   7.137   3.531   5.214 -0.9839 -1.9507  0.2097
   22DOPE  H18Z 2838   7.202   3.415   5.092  0.4065  1.1300 -1.5533
   23DOPE     N 2839   5.222   6.837   7.030  0.0097 -0.7399  0.4432
   23DOPE   HN1 2840   5.288   6.760   7.050  1.3729  0.1263 -0.5149
   23DOPE   HN2 2841   5.234   6.915   7.098  1.6476  0.4106 -1.0758
   23DOPE   HN3 2842   5.128   6.792   7.027  1.0326 -2.9714 -0.0313
   23DOPE   C12 2843   5.240   6.891   6.880  1.0645 -0.8337 -0.2113
   23DOPE  H12A 2844   5.235   6.797   6.821  1.6127  0.3009 -2.1422
   23DOPE  H12B 2845   5.345   6.926   6.876  1.1167 -1.1025 -1.3693
   23DOPE   C11 2846   5.136   7.000   6.846  0.1917 -0.5079  0.2407
   23DOPE  H11A 2847   5.146   7.021   6.737  1.9473 -0.0064  0.4650
   23DOPE  H11B 2848   5.169   7.080   6.916  1.7284  0.4327 -1.4663
   23DOPE     P 2849   4.894   7.093   6.908 -0.1393  0.3461 -0.1166
   23DOPE   O13 2850   4.969   7.217   6.939 -0.5418  0.0258 -0.6566
   23DOPE   O14 2851   4.780   7.048   6.985  0.3893 -0.2623 -0.0724
   23DOPE   O11 2852   4.853   7.118   6.762  0.1672  0.1045  0.7486
   23DOPE   O12 2853   4.997   6.973   6.881 -0.0542  0.1439 -0.0856
   23DOPE    C1 2854   4.882   7.230   6.676  0.2534 -0.4472 -0.6014
   23DOPE    HA 2855   4.859   7.193   6.573 -2.7932 -0.7127  0.0878
   23DOPE    HB 2856   4.983   7.273   6.690 -1.6249  3.7767  1.8113
   23DOPE    C2 2857   4.779   7.343   6.699 -0.3564 -0.6095  0.2900
   23DOPE    HS 2858   4.771   7.367   6.807 -0.2581 -2.7461  0.8190
   23DOPE   O21 2859   4.647   7.306   6.643 -0.4836  0.2033  0.1898
   23DOPE   C21 2860   4.559   7.397   6.655 -0.1775  0.1704 -0.0923
   23DOPE   O22 2861   4.566   7.497   6.727  0.1942  0.0289  0.5457
   23DOPE   C22 2862   4.428   7.357   6.575  0.0668  0.0545 -0.9619
   23DOPE   H2R 2863   4.340   7.386   6.637  0.5643  0.7244 -0.5455
   23DOPE   H2S 2864   4.428   7.248   6.558 -0.3123 -0.2256  0.6627
   23DOPE    C3 2865   4.843   7.465   6.619 -0.4806  0.1379 -0.2795
   23DOPE    HX 2866   4.926   7.502   6.682  0.4100 -2.3019  0.0744
   23DOPE    HY 2867   4.769   7.548   6.607 -1.1307 -0.3061  0.5472
   23DOPE   O31 2868   4.875   7.435   6.479  0.7750  0.2656 -0.8310
   23DOPE   C31 2869   4.941   7.536   6.422 -0.1841 -0.0841 -0.9047
   23DOPE   O32 2870   4.983   7.637   6.475 -0.5379 -0.4862  0.5445
   23DOPE   C32 2871   4.966   7.503   6.276  0.4311 -0.3547 -0.5168
   23DOPE   H2X 2872   5.054   7.436   6.269 -1.0293 -2.2301 -2.0654
   23DOPE   H2Y 2873   4.878   7.448   6.236  0.0404 -0.2108  0.1317
   23DOPE   C23 2874   4.427   7.440   6.452  0.9189 -0.1641  0.0863
   23DOPE   H3R 2875   4.422   7.547   6.483 -1.7017 -0.4194  0.7386
   23DOPE   H3S 2876   4.332   7.425   6.396 -0.2540  3.4143  0.8479
   23DOPE   C24 2877   4.544   7.411   6.355 -0.2227  0.6428  0.0641
   23DOPE   H4R 2878   4.527   7.313   6.305 -0.3682  1.7444 -2.1958
   23DOPE   H4S 2879   4.630   7.392   6.422  0.1603  1.3332 -0.2235
   23DOPE   C25 2880   4.573   7.525   6.251  0.3573  0.1779  0.3213
   23DOPE   H5R 2881   4.669   7.513   6.196 -0.2147  3.0225 -1.5586
   23DOPE   H5S 2882   4.585   7.617   6.311 -0.2919 -0.2570  1.1314
   23DOPE   C26 2883   4.467   7.547   6.141  0.0034  0.3953 -0.3294
   23DOPE   H6R 2884   4.366   7.559   6.186  0.3014  0.1422  0.4293
   23DOPE   H6S 2885   4.462   7.452   6.084  0.8102 -0.8758  1.5968
   23DOPE   C27 2886   4.498   7.663   6.045 -0.3682 -0.5271 -0.3946
   23DOPE   H7R 2887   4.535   7.750   6.102  2.2035 -2.4633  1.1187
   23DOPE   H7S 2888   4.404   7.674   5.987  0.6592 -3.9627 -3.0316
   23DOPE   C28 2889   4.613   7.650   5.945  0.5083 -0.0976 -0.3063
   23DOPE   H8R 2890   4.702   7.614   6.001  0.8583 -1.3300 -1.5731
   23DOPE   H8S 2891   4.638   7.752   5.909  0.6240  0.3555  1.0133
   23DOPE   C29 2892   4.588   7.545   5.837  0.9800 -0.7031  0.4149
   23DOPE   H9R 2893   4.580   7.441   5.871 -1.5682 -1.5546 -2.2909
   23DOPE  C210 2894   4.577   7.577   5.701 -0.4876  0.1131  0.3494
   23DOPE  H10R 2895   4.550   7.493   5.635 -0.4272  0.7455 -0.4825
   23DOPE  C211 2896   4.586   7.713   5.639 -0.2424  0.4021 -0.0613
   23DOPE  H11R 2897   4.639   7.781   5.709 -0.1597 -0.5091  0.7800
   23DOPE  H11S 2898   4.482   7.750   5.650 -0.4379 -0.4101  0.9826
   23DOPE  C212 2899   4.643   7.691   5.495  0.1680  0.3339  0.5090
   23DOPE  H12R 2900   4.670   7.793   5.460  0.2278  0.4566  0.9094
   23DOPE  H12S 2901   4.564   7.640   5.435  0.2225 -1.9026  2.1831
   23DOPE  C213 2902   4.774   7.600   5.496 -0.3961 -0.1395  0.3611
   23DOPE  H13R 2903   4.756   7.491   5.491  1.9626 -0.6330  0.9995
   23DOPE  H13S 2904   4.830   7.609   5.591 -0.4368  0.1003  0.3617
   23DOPE  C214 2905   4.863   7.633   5.376  0.2417  0.9259  0.0469
   23DOPE  H14R 2906   4.964   7.588   5.389 -0.2521  0.4550  3.2402
   23DOPE  H14S 2907   4.873   7.743   5.373  0.5928  0.9240  0.8324
   23DOPE  C215 2908   4.799   7.571   5.248  0.5221 -0.0897 -0.1818
   23DOPE  H15R 2909   4.706   7.626   5.220  0.2469  0.4640  1.6873
   23DOPE  H15S 2910   4.776   7.463   5.258  1.3915 -0.2542  0.1286
   23DOPE  C216 2911   4.899   7.567   5.134 -0.0659  0.3394 -0.3185
   23DOPE  H16R 2912   4.838   7.526   5.051 -0.0119  0.6302 -0.4995
   23DOPE  H16S 2913   4.985   7.497   5.141 -0.5883 -0.1572  1.9038
   23DOPE  C217 2914   4.938   7.708   5.085 -0.1684  0.0430  0.0756
   23DOPE  H17R 2915   4.996   7.772   5.154 -0.5637  0.7409 -0.2350
   23DOPE  H17S 2916   4.839   7.758   5.073 -0.4336 -0.1030  1.4972
   23DOPE  C218 2917   5.010   7.709   4.949  0.4800 -0.0592 -0.0357
   23DOPE  H18R 2918   5.106   7.654   4.958  1.6671  1.3139 -3.0397
   23DOPE  H18S 2919   5.037   7.814   4.923 -0.8633  0.6763  1.3176
   23DOPE  H18T 2920   4.954   7.657   4.870 -0.7446  0.4977  0.4398
   23DOPE   C33 2921   4.997   7.622   6.187 -0.2741 -0.0077 -0.3873
   23DOPE   H3X 2922   5.087   7.669   6.232 -1.2717  0.1592  1.5394
   23DOPE   H3Y 2923   4.914   7.696   6.186  0.7807  1.2734 -2.5039
   23DOPE   C34 2924   5.008   7.577   6.040 -0.2369 -0.3969 -0.7314
   23DOPE   H4X 2925   5.080   7.493   6.029  0.3036 -0.7352  3.6357
   23DOPE   H4Y 2926   4.914   7.531   6.003  0.8961 -1.8576 -1.9200
   23DOPE   C35 2927   5.049   7.695   5.951 -0.0485 -0.4133  0.2015
   23DOPE   H5X 2928   5.156   7.721   5.961 -0.0092  0.1079 -1.2699
   23DOPE   H5Y 2929   4.988   7.782   5.983  1.2393 -0.3434  2.7083
   23DOPE   C36 2930   5.013   7.666   5.803 -0.4725  0.3654 -0.5196
   23DOPE   H6X 2931   4.903   7.671   5.786 -0.3965  2.3523 -0.6172
   23DOPE   H6Y 2932   5.059   7.573   5.764  0.5978  0.5302  0.3350
   23DOPE   C37 2933   5.076   7.773   5.712  0.3908  0.5093  0.1791
   23DOPE   H7X 2934   5.181   7.789   5.744  0.2958  1.1333  0.1784
   23DOPE   H7Y 2935   5.085   7.754   5.603  1.0603  0.9252  0.1571
   23DOPE   C38 2936   5.004   7.907   5.720  0.1298 -0.3143 -0.1086
   23DOPE   H8X 2937   4.894   7.904   5.702  0.2680  0.5231 -1.2355
   23DOPE   H8Y 2938   5.023   7.963   5.626 -3.0768  2.1719  0.5584
   23DOPE   C39 2939   5.049   8.006   5.836  0.3572  0.0981  0.4607
   23DOPE   H9X 2940   5.011   7.992   5.939  2.3656 -0.3584  1.1949
   23DOPE  C310 2941   5.128   8.113   5.819 -0.6237  0.2348 -0.0724
   23DOPE  H10X 2942   5.140   8.177   5.909  1.1409 -1.3615  0.8915
   23DOPE  C311 2943   5.199   8.168   5.699  0.2332  0.3319  0.0241
   23DOPE  H11X 2944   5.202   8.098   5.614  2.0460 -1.0997  1.1825
   23DOPE  H11Y 2945   5.143   8.259   5.671 -1.0434 -0.4507 -0.0452
   23DOPE  C312 2946   5.335   8.233   5.734 -0.1150  0.3627 -0.2782
   23DOPE  H12X 2947   5.330   8.279   5.835 -0.1454 -0.7318  0.2369
   23DOPE  H12Y 2948   5.363   8.310   5.659 -0.5014  2.0545  1.2475
   23DOPE  C313 2949   5.455   8.133   5.755  0.5299  0.4174 -0.2501
   23DOPE  H13X 2950   5.432   8.079   5.849  0.3965  0.1990 -0.4094
   23DOPE  H13Y 2951   5.458   8.052   5.680  1.4392 -2.1932  2.4308
   23DOPE  C314 2952   5.593   8.188   5.784 -0.3224 -0.1686 -0.3989
   23DOPE  H14X 2953   5.640   8.219   5.688  1.9679 -0.0505  0.7154
   23DOPE  H14Y 2954   5.652   8.105   5.826 -0.7948 -0.0114  0.6203
   23DOPE  C315 2955   5.593   8.305   5.887 -0.6024 -0.0633 -0.5458
   23DOPE  H15X 2956   5.541   8.282   5.983  0.4862 -0.0684  0.0571
   23DOPE  H15Y 2957   5.554   8.399   5.843  0.4731  1.1725  1.0321
   23DOPE  C316 2958   5.738   8.338   5.920  0.2811  0.4353  0.8428
   23DOPE  H16X 2959   5.788   8.370   5.826 -0.7746  2.1299  0.8083
   23DOPE  H16Y 2960   5.782   8.243   5.957  0.8274  0.0385 -0.7316
   23DOPE  C317 2961   5.759   8.456   6.017 -0.9789 -1.1228 -0.7489
   23DOPE  H17X 2962   5.700   8.545   5.984  2.4084  2.4324  1.7790
   23DOPE  H17Y 2963   5.739   8.425   6.122  1.4526  0.2331  0.1839
   23DOPE  C318 2964   5.906   8.487   6.020 -0.4742  0.3101 -0.2458
   23DOPE  H18X 2965   5.953   8.389   6.045  1.4739  1.7126  2.1439
   23DOPE  H18Y 2966   5.940   8.526   5.922 -1.2174  1.2130 -0.1542
   23DOPE  H18Z 2967   5.929   8.555   6.105 -1.4270  0.1711  0.1383
   24DOPE     N 2968   6.963   6.074   6.979 -0.1141 -0.2889  0.0410
   24DOPE   HN1 2969   6.897   6.059   6.900  1.3122  2.1325 -1.7829
   24DOPE   HN2 2970   7.048   6.080   6.918  0.6698 -2.4434  0.8440
   24DOPE   HN3 2971   6.971   5.986   7.032 -1.0086  0.0378  0.7345
   24DOPE   C12 2972   6.924   6.194   7.065 -0.9263  0.4119  0.2308
   24DOPE  H12A 2973   7.011   6.233   7.121 -1.9144  0.2007  1.9837
   24DOPE  H12B 2974   6.853   6.158   7.142  0.5622 -0.5438  1.2102
   24DOPE   C11 2975   6.871   6.316   6.990  0.3316 -0.4055  0.1517
   24DOPE  H11A 2976   6.921   6.322   6.891  0.2692  2.9718  0.2203
   24DOPE  H11B 2977   6.894   6.410   7.045 -2.6368  0.4933  0.0566
   24DOPE     P 2978   6.649   6.220   6.884 -0.2922  0.2676 -0.0696
   24DOPE   O13 2979   6.570   6.307   6.796  0.3134 -0.1891 -0.6792
   24DOPE   O14 2980   6.571   6.128   6.962  0.0924 -0.5213 -0.9732
   24DOPE   O11 2981   6.753   6.143   6.800 -1.1109  0.3864  0.3752
   24DOPE   O12 2982   6.728   6.306   6.985  0.3706 -0.3454 -0.7424
   24DOPE    C1 2983   6.776   6.167   6.660  0.2363 -0.6055  0.4905
   24DOPE    HA 2984   6.869   6.114   6.629 -0.3295  0.6431 -4.0377
   24DOPE    HB 2985   6.807   6.271   6.639  1.0751 -1.0588 -0.6157
   24DOPE    C2 2986   6.669   6.120   6.555  0.1962  0.3753 -0.6437
   24DOPE    HS 2987   6.571   6.169   6.574  1.0875  1.4863  1.3845
   24DOPE   O21 2988   6.644   5.975   6.567  0.1456  0.7898  0.0706
   24DOPE   C21 2989   6.542   5.934   6.491  0.4049  0.5359  0.0553
   24DOPE   O22 2990   6.459   5.998   6.432  0.8583 -0.2580  0.2868
   24DOPE   C22 2991   6.541   5.780   6.495 -0.3155 -0.2955 -0.7719
   24DOPE   H2R 2992   6.474   5.753   6.579 -0.7130  0.0685 -0.9686
   24DOPE   H2S 2993   6.638   5.738   6.530  0.0894 -0.0096 -1.5205
   24DOPE    C3 2994   6.715   6.161   6.416  0.1441  0.6374 -0.7962
   24DOPE    HX 2995   6.646   6.125   6.337 -0.3426  1.9155 -0.9846
   24DOPE    HY 2996   6.802   6.093   6.401  0.8048  0.9630  1.2750
   24DOPE   O31 2997   6.758   6.302   6.405 -0.2028 -0.0615  0.0443
   24DOPE   C31 2998   6.661   6.395   6.381 -0.1400  0.0120  0.4778
   24DOPE   O32 2999   6.542   6.369   6.383  0.1478  0.5713  0.1189
   24DOPE   C32 3000   6.729   6.531   6.356  0.5181  0.0047  0.3483
   24DOPE   H2X 3001   6.642   6.600   6.367  0.6756  0.2496  0.0732
   24DOPE   H2Y 3002   6.801   6.552   6.437 -0.3017  0.4426  0.9847
   24DOPE   C23 3003   6.488   5.710   6.369  0.0561 -0.3831  0.0069
   24DOPE   H3R 3004   6.396   5.755   6.326  0.9815  1.1276 -0.4784
   24DOPE   H3S 3005   6.461   5.609   6.407  1.4299 -0.0111  2.1363
   24DOPE   C24 3006   6.602   5.687   6.269  0.0129 -0.3141  0.0676
   24DOPE   H4R 3007   6.569   5.608   6.197  0.6542 -0.4741 -0.0537
   24DOPE   H4S 3008   6.690   5.651   6.325 -0.4646 -1.1750  0.2975
   24DOPE   C25 3009   6.642   5.810   6.187 -0.4660  0.0391 -0.8276
   24DOPE   H5R 3010   6.734   5.794   6.126 -0.0012  0.9465 -0.3849
   24DOPE   H5S 3011   6.660   5.897   6.254  0.5550 -0.9051  0.1735
   24DOPE   C26 3012   6.528   5.852   6.084 -0.1440 -0.3900  0.1467
   24DOPE   H6R 3013   6.426   5.874   6.123 -0.8673 -1.1297 -1.2453
   24DOPE   H6S 3014   6.528   5.770   6.009  0.5304  0.6872 -1.0680
   24DOPE   C27 3015   6.575   5.985   6.012 -0.0736 -0.1781  1.2159
   24DOPE   H7R 3016   6.674   5.980   5.962 -0.5217  0.4654  0.2284
   24DOPE   H7S 3017   6.575   6.066   6.087  3.5932  0.5341  0.6076
   24DOPE   C28 3018   6.468   6.035   5.904 -0.0595  0.0091 -0.6751
   24DOPE   H8R 3019   6.477   6.141   5.871  1.9545 -0.6909 -2.6792
   24DOPE   H8S 3020   6.370   6.024   5.955  0.4652  1.5940  0.7614
   24DOPE   C29 3021   6.484   5.954   5.779  1.0279 -0.4148  0.0024
   24DOPE   H9R 3022   6.583   5.961   5.731  2.1029 -1.4548  1.9644
   24DOPE  C210 3023   6.400   5.865   5.723 -0.1945  0.0330  0.4480
   24DOPE  H10R 3024   6.416   5.837   5.617  0.1934  1.9289 -0.0463
   24DOPE  C211 3025   6.265   5.819   5.770  0.1628 -0.1740  0.0741
   24DOPE  H11R 3026   6.191   5.883   5.718  0.5744  0.5865  0.4161
   24DOPE  H11S 3027   6.247   5.846   5.876  1.6155 -2.5263  1.0184
   24DOPE  C212 3028   6.243   5.664   5.755  0.1354 -0.7238 -0.3394
   24DOPE  H12R 3029   6.144   5.643   5.800  0.6198  1.2402  1.8814
   24DOPE  H12S 3030   6.326   5.612   5.807 -0.5385 -0.4442  1.0552
   24DOPE  C213 3031   6.250   5.623   5.601  0.4758  0.7199 -0.3141
   24DOPE  H13R 3032   6.351   5.645   5.560  0.5591 -1.1960 -1.2363
   24DOPE  H13S 3033   6.174   5.688   5.553 -1.2073  0.7738  2.1875
   24DOPE  C214 3034   6.228   5.472   5.577  0.4113  0.0646  0.0477
   24DOPE  H14R 3035   6.133   5.452   5.630  0.5714  1.1471  0.7612
   24DOPE  H14S 3036   6.296   5.397   5.623 -1.9237 -2.9015 -0.9843
   24DOPE  C215 3037   6.213   5.436   5.427  0.0575 -0.3684  0.0267
   24DOPE  H15R 3038   6.312   5.451   5.378 -0.1068  2.0647  0.3135
   24DOPE  H15S 3039   6.153   5.510   5.370  0.0190  0.0706  0.6258
   24DOPE  C216 3040   6.142   5.301   5.406 -0.0766 -0.3137  0.2819
   24DOPE  H16R 3041   6.063   5.315   5.329  1.5390  0.4083 -1.2895
   24DOPE  H16S 3042   6.080   5.279   5.496 -0.0010  1.5161  0.8092
   24DOPE  C217 3043   6.236   5.186   5.383  1.0655  0.8295 -0.5500
   24DOPE  H17R 3044   6.310   5.193   5.466  1.7867 -1.3912 -0.9461
   24DOPE  H17S 3045   6.294   5.201   5.289  0.5813  0.6617 -0.8771
   24DOPE  C218 3046   6.171   5.048   5.387 -0.1143  0.3863  1.0555
   24DOPE  H18R 3047   6.243   4.963   5.394  1.2729  1.2198 -1.7174
   24DOPE  H18S 3048   6.112   5.036   5.294 -1.6384  1.0400  1.9061
   24DOPE  H18T 3049   6.093   5.042   5.466 -1.8101  1.3423 -0.4922
   24DOPE   C33 3050   6.789   6.543   6.219  0.3084 -0.3423 -0.0788
   24DOPE   H3X 3051   6.859   6.457   6.214 -0.3316 -1.0865  2.3174
   24DOPE   H3Y 3052   6.842   6.641   6.221 -2.1463  1.0547  1.5830
   24DOPE   C34 3053   6.697   6.534   6.102  0.0490 -0.1090  0.2094
   24DOPE   H4X 3054   6.621   6.457   6.128 -0.1422  0.2424  0.7373
   24DOPE   H4Y 3055   6.642   6.631   6.099  0.9217  0.5033  2.1656
   24DOPE   C35 3056   6.765   6.508   5.966  0.0288  0.3864 -0.0017
   24DOPE   H5X 3057   6.819   6.410   5.967 -1.2599 -0.3494  0.8584
   24DOPE   H5Y 3058   6.841   6.588   5.961  2.8770 -2.0417  1.0103
   24DOPE   C36 3059   6.667   6.514   5.846  0.6678  1.0179 -0.1798
   24DOPE   H6X 3060   6.601   6.603   5.840 -0.8706  0.0117  0.9005
   24DOPE   H6Y 3061   6.591   6.435   5.863  1.2342  0.3869 -0.5308
   24DOPE   C37 3062   6.728   6.486   5.705 -0.7069 -0.2265 -0.1833
   24DOPE   H7X 3063   6.775   6.579   5.665 -0.4463 -0.6874 -0.9731
   24DOPE   H7Y 3064   6.804   6.405   5.714  0.3371  0.7374 -0.1107
   24DOPE   C38 3065   6.622   6.432   5.606  0.0827 -0.0184 -0.1576
   24DOPE   H8X 3066   6.549   6.517   5.607  2.6999  2.4552  2.8551
   24DOPE   H8Y 3067   6.573   6.350   5.663 -2.7229  2.6884  1.6535
   24DOPE   C39 3068   6.669   6.408   5.468 -0.2303  0.1959  0.4507
   24DOPE   H9X 3069   6.686   6.500   5.409 -1.4121 -0.3451 -0.7821
   24DOPE  C310 3070   6.705   6.295   5.405 -0.0084 -0.6558  0.1888
   24DOPE  H10X 3071   6.746   6.297   5.303 -1.0257 -0.7378 -0.2369
   24DOPE  C311 3072   6.703   6.166   5.473 -0.1660 -0.9940 -0.4410
   24DOPE  H11X 3073   6.809   6.134   5.480  0.9438  2.4064 -0.1858
   24DOPE  H11Y 3074   6.675   6.183   5.579 -0.9499 -0.1541 -0.7641
   24DOPE  C312 3075   6.604   6.071   5.409 -0.4692 -0.3039 -0.0956
   24DOPE  H12X 3076   6.503   6.118   5.400  0.8712  2.5612 -1.5227
   24DOPE  H12Y 3077   6.587   5.987   5.479  0.3704 -0.4817 -0.0954
   24DOPE  C313 3078   6.654   6.019   5.272  0.4445 -0.0033 -0.0189
   24DOPE  H13X 3079   6.644   6.099   5.195 -0.7541  0.4121  0.5426
   24DOPE  H13Y 3080   6.761   5.990   5.280  0.3396 -0.6062 -0.7002
   24DOPE  C314 3081   6.568   5.908   5.218 -0.6004 -0.1096  0.5224
   24DOPE  H14X 3082   6.478   5.946   5.166 -1.9549 -5.0746 -1.3825
   24DOPE  H14Y 3083   6.531   5.837   5.294 -0.4590  0.9858  1.6461
   24DOPE  C315 3084   6.641   5.815   5.116  0.5742  0.1812  0.6020
   24DOPE  H15X 3085   6.738   5.786   5.163  0.8490  2.1563  1.3748
   24DOPE  H15Y 3086   6.660   5.878   5.025 -0.1025 -0.3109  0.1166
   24DOPE  C316 3087   6.562   5.695   5.066  0.6896 -0.0343 -0.6237
   24DOPE  H16X 3088   6.467   5.725   5.015 -0.6725 -0.6462  1.4484
   24DOPE  H16Y 3089   6.533   5.628   5.149  4.3715 -1.1662 -0.0858
   24DOPE  C317 3090   6.644   5.608   4.970 -0.6780  0.4892 -0.8473
   24DOPE  H17X 3091   6.581   5.533   4.917 -0.0092 -0.4558 -0.3413
   24DOPE  H17Y 3092   6.670   5.670   4.882 -2.9642  0.1657 -1.8046
   24DOPE  C318 3093   6.767   5.538   5.027  0.5803  0.1976 -0.6154
   24DOPE  H18X 3094   6.847   5.608   5.061  1.3321 -1.0912  0.3555
   24DOPE  H18Y 3095   6.728   5.477   5.112 -2.0056  0.3256 -1.6249
   24DOPE  H18Z 3096   6.814   5.469   4.954  3.6027  0.3116  1.0719
   25DOPE     N 3097   7.554   5.971   6.930 -0.0674  0.0616 -0.9064
   25DOPE   HN1 3098   7.656   5.976   6.948  0.1223  2.1909 -2.3087
   25DOPE   HN2 3099   7.529   5.929   6.839 -3.2294 -1.5286  0.5288
   25DOPE   HN3 3100   7.514   6.066   6.939 -1.2744 -0.5707  1.5349
   25DOPE   C12 3101   7.487   5.892   7.045 -0.7529 -0.1386 -0.0314
   25DOPE  H12A 3102   7.516   5.934   7.144  0.2163  0.6637 -0.6289
   25DOPE  H12B 3103   7.535   5.792   7.044  1.7912  0.9922 -2.3555
   25DOPE   C11 3104   7.337   5.890   7.023 -0.2809 -0.6692  0.4785
   25DOPE  H11A 3105   7.324   5.870   6.914 -1.3042  1.1054  0.2420
   25DOPE  H11B 3106   7.296   5.992   7.038 -1.3706 -0.2956 -3.7322
   25DOPE     P 3107   7.130   5.742   7.076 -0.3006 -0.5254  0.2898
   25DOPE   O13 3108   7.034   5.855   7.083  0.2648  0.3328 -0.4392
   25DOPE   O14 3109   7.103   5.625   7.155  0.3533  0.4086  0.6653
   25DOPE   O11 3110   7.144   5.707   6.925  0.8951 -0.0507 -0.0494
   25DOPE   O12 3111   7.269   5.797   7.109  0.0212  0.4596 -0.3814
   25DOPE    C1 3112   7.192   5.581   6.881 -0.2462 -1.1340  0.7250
   25DOPE    HA 3113   7.106   5.510   6.878 -1.5850  0.3863  1.7704
   25DOPE    HB 3114   7.268   5.536   6.947  1.2784 -0.9215 -0.8221
   25DOPE    C2 3115   7.249   5.586   6.732  0.0601  0.2526 -0.1257
   25DOPE    HS 3116   7.334   5.656   6.736 -0.8324  1.5043 -1.8810
   25DOPE   O21 3117   7.147   5.631   6.640 -0.2156 -0.8512  0.0288
   25DOPE   C21 3118   7.195   5.713   6.543  0.4682  0.3128  0.0894
   25DOPE   O22 3119   7.309   5.755   6.531  0.5216 -0.3274 -0.2698
   25DOPE   C22 3120   7.085   5.748   6.436  0.5624 -0.3384  0.1142
   25DOPE   H2R 3121   7.033   5.838   6.476 -1.3229 -1.8762  1.2655
   25DOPE   H2S 3122   7.014   5.664   6.448  0.3495 -0.2860 -0.6810
   25DOPE    C3 3123   7.291   5.448   6.677 -0.3410  0.8332 -0.0871
   25DOPE    HX 3124   7.214   5.372   6.703  0.9776 -0.1515  1.1606
   25DOPE    HY 3125   7.375   5.420   6.744 -0.1488  1.1879 -0.1803
   25DOPE   O31 3126   7.325   5.439   6.537 -0.7235 -0.1672  0.0205
   25DOPE   C31 3127   7.451   5.462   6.509  0.0066 -0.0386  0.7637
   25DOPE   O32 3128   7.536   5.494   6.590  0.3599 -0.1951 -0.1624
   25DOPE   C32 3129   7.469   5.459   6.353  0.0502  0.4606  0.2302
   25DOPE   H2X 3130   7.570   5.414   6.349  1.0359  2.4649  1.1897
   25DOPE   H2Y 3131   7.390   5.393   6.311  0.3695 -0.3801  0.9164
   25DOPE   C23 3132   7.123   5.777   6.290  0.0365  0.4787 -0.1482
   25DOPE   H3R 3133   7.228   5.808   6.276 -0.0370 -0.1117 -2.3695
   25DOPE   H3S 3134   7.063   5.859   6.246  0.4212  1.5623  1.2683
   25DOPE   C24 3135   7.106   5.646   6.208 -0.1546  0.1026  0.0501
   25DOPE   H4R 3136   7.005   5.607   6.234  0.0011 -1.2734 -1.3073
   25DOPE   H4S 3137   7.175   5.568   6.247  1.3330  1.0636 -0.5970
   25DOPE   C25 3138   7.116   5.672   6.058  0.1985  0.2296 -0.5471
   25DOPE   H5R 3139   7.135   5.581   5.996 -1.5543  0.8230 -2.0662
   25DOPE   H5S 3140   7.206   5.735   6.044  3.0504 -2.9926  1.4621
   25DOPE   C26 3141   6.990   5.737   5.998 -0.4205  0.2968  0.1505
   25DOPE   H6R 3142   6.988   5.832   6.056  2.0705  1.0841 -0.9378
   25DOPE   H6S 3143   6.897   5.678   6.015 -0.8077  0.0941 -2.2885
   25DOPE   C27 3144   7.012   5.758   5.852  0.4443  0.2261 -0.3524
   25DOPE   H7R 3145   7.024   5.661   5.798  1.7979 -1.0661  2.0540
   25DOPE   H7S 3146   7.110   5.809   5.841 -0.4905  2.0748 -0.4316
   25DOPE   C28 3147   6.917   5.841   5.770  0.0475 -0.5297 -0.2164
   25DOPE   H8R 3148   6.965   5.857   5.671  1.0411 -0.9428  0.1812
   25DOPE   H8S 3149   6.898   5.934   5.829 -1.2680  0.0191 -1.4457
   25DOPE   C29 3150   6.779   5.776   5.751  0.7485  0.2287 -0.0131
   25DOPE   H9R 3151   6.713   5.774   5.839  2.7429  1.6241  1.6223
   25DOPE  C210 3152   6.739   5.705   5.639 -0.5193 -0.7124  0.2910
   25DOPE  H10R 3153   6.630   5.695   5.628 -0.4644 -0.8136 -0.1977
   25DOPE  C211 3154   6.820   5.680   5.517 -0.3364 -1.2892 -0.0532
   25DOPE  H11R 3155   6.910   5.626   5.553  1.4900  1.1066 -0.7886
   25DOPE  H11S 3156   6.853   5.772   5.464  3.7824 -1.9120  1.1001
   25DOPE  C212 3157   6.751   5.581   5.418 -0.2303 -0.0457 -0.6169
   25DOPE  H12R 3158   6.826   5.560   5.339  0.6160 -0.9980  0.3973
   25DOPE  H12S 3159   6.656   5.631   5.391 -2.5599 -1.9124  3.2801
   25DOPE  C213 3160   6.720   5.446   5.479 -0.3990  0.0797 -0.5356
   25DOPE  H13R 3161   6.627   5.456   5.539  0.8787 -0.6523  1.6951
   25DOPE  H13S 3162   6.799   5.409   5.548 -0.1912  3.9964  1.6193
   25DOPE  C214 3163   6.689   5.354   5.365 -0.3371 -0.4477 -0.0899
   25DOPE  H14R 3164   6.768   5.354   5.287  0.0751 -0.6555  0.3224
   25DOPE  H14S 3165   6.591   5.385   5.320 -0.2385  2.1715  1.3043
   25DOPE  C215 3166   6.668   5.209   5.404 -0.1840  0.3481 -0.0420
   25DOPE  H15R 3167   6.576   5.199   5.465 -1.1548  2.3376 -1.0847
   25DOPE  H15S 3168   6.754   5.174   5.465 -1.3072  1.0760  2.0798
   25DOPE  C216 3169   6.634   5.128   5.284  0.1989 -0.1420 -0.4760
   25DOPE  H16R 3170   6.670   5.163   5.186 -0.7464 -0.7893 -1.0732
   25DOPE  H16S 3171   6.524   5.123   5.271 -0.3172  2.2175  2.0207
   25DOPE  C217 3172   6.689   4.983   5.308  0.0841 -0.1110  0.5802
   25DOPE  H17R 3173   6.638   4.953   5.401  0.2170  0.8253  0.9677
   25DOPE  H17S 3174   6.800   4.981   5.308  0.1411  1.7263  0.9079
   25DOPE  C218 3175   6.640   4.898   5.184 -0.6983 -0.1166 -0.5807
   25DOPE  H18R 3176   6.688   4.798   5.178  1.0359  0.7273 -1.3468
   25DOPE  H18S 3177   6.659   4.941   5.084 -1.1908 -2.4082 -1.7366
   25DOPE  H18T 3178   6.529   4.888   5.182 -0.6020 -1.2477 -1.6234
   25DOPE   C33 3179   7.482   5.599   6.286  0.0119  1.0585  0.3710
   25DOPE   H3X 3180   7.557   5.662   6.338 -0.0324  1.0046  0.4995
   25DOPE   H3Y 3181   7.386   5.651   6.308  0.5126  2.5494 -0.8058
   25DOPE   C34 3182   7.506   5.576   6.140  0.1540  0.1801  0.1691
   25DOPE   H4X 3183   7.597   5.516   6.120  0.5535  0.0555  2.2388
   25DOPE   H4Y 3184   7.424   5.517   6.093 -0.7855 -0.0314  1.9834
   25DOPE   C35 3185   7.507   5.695   6.050  0.7651 -0.5437 -0.2255
   25DOPE   H5X 3186   7.608   5.742   6.056  0.9811 -1.1123  0.7517
   25DOPE   H5Y 3187   7.426   5.767   6.077 -1.2404 -2.3207 -1.1895
   25DOPE   C36 3188   7.474   5.651   5.901  0.6221 -0.2276 -0.3625
   25DOPE   H6X 3189   7.379   5.593   5.905  0.9828 -1.0118 -2.1786
   25DOPE   H6Y 3190   7.557   5.592   5.857  1.5057  0.0036  0.9426
   25DOPE   C37 3191   7.457   5.774   5.806 -0.0386  0.0216  0.2599
   25DOPE   H7X 3192   7.381   5.845   5.845 -0.8295 -0.4170 -0.4368
   25DOPE   H7Y 3193   7.554   5.827   5.801 -0.6499  1.0492 -1.6837
   25DOPE   C38 3194   7.435   5.727   5.664 -0.3597  0.2295  0.2382
   25DOPE   H8X 3195   7.497   5.637   5.649  0.2418  0.6226  0.3243
   25DOPE   H8Y 3196   7.479   5.805   5.598 -1.2914 -1.0013 -1.9447
   25DOPE   C39 3197   7.294   5.705   5.617  0.6886 -0.2164 -0.6094
   25DOPE   H9X 3198   7.239   5.797   5.596 -0.9593 -1.3940 -1.7440
   25DOPE  C310 3199   7.230   5.588   5.602  0.1727 -0.1021 -0.4585
   25DOPE  H10X 3200   7.122   5.585   5.583 -0.3910  1.9916  1.9758
   25DOPE  C311 3201   7.284   5.446   5.624 -0.7093 -0.1257  0.3891
   25DOPE  H11X 3202   7.393   5.441   5.606 -0.6019  0.7817  0.7395
   25DOPE  H11Y 3203   7.259   5.416   5.729 -2.4665 -0.8565 -0.2034
   25DOPE  C312 3204   7.218   5.346   5.541  0.6486 -0.4346  0.3515
   25DOPE  H12X 3205   7.107   5.344   5.545  0.6315 -0.9438 -0.1548
   25DOPE  H12Y 3206   7.239   5.239   5.566  1.7158  0.2517  2.6038
   25DOPE  C313 3207   7.262   5.372   5.392  0.1824  0.0216 -0.2199
   25DOPE  H13X 3208   7.238   5.479   5.374  2.5203  0.6002 -0.2519
   25DOPE  H13Y 3209   7.373   5.360   5.389  0.4616  2.4072 -0.7485
   25DOPE  C314 3210   7.186   5.273   5.294 -0.4362 -0.9528  0.0413
   25DOPE  H14X 3211   7.078   5.296   5.284 -0.3971 -0.5960  0.4133
   25DOPE  H14Y 3212   7.183   5.169   5.333 -2.6295 -1.2152 -0.6971
   25DOPE  C315 3213   7.251   5.269   5.149 -0.7642  0.0240 -0.6047
   25DOPE  H15X 3214   7.362   5.260   5.158 -0.8618  0.7622  1.9873
   25DOPE  H15Y 3215   7.222   5.362   5.096 -2.0912 -0.4968 -0.8277
   25DOPE  C316 3216   7.188   5.155   5.070  0.1817  0.1849  0.6305
   25DOPE  H16X 3217   7.194   5.063   5.132  0.5167 -0.6572 -0.6110
   25DOPE  H16Y 3218   7.238   5.159   4.970 -1.8226  0.8739 -0.4098
   25DOPE  C317 3219   7.030   5.173   5.050 -0.2039  0.1846 -0.1001
   25DOPE  H17X 3220   6.981   5.178   5.150 -2.3861  1.2229 -1.1335
   25DOPE  H17Y 3221   7.023   5.267   4.991  1.2405 -0.8228 -1.9712
   25DOPE  C318 3222   6.976   5.056   4.964  0.1888 -0.1974  0.4656
   25DOPE  H18X 3223   6.965   4.970   5.034 -0.7879 -1.4425 -1.1532
   25DOPE  H18Y 3224   6.875   5.078   4.922 -0.3503 -1.5023  1.0474
   25DOPE  H18Z 3225   7.045   5.029   4.882 -2.0820 -0.9802 -1.2818
   26DOPE     N 3226   0.727   6.512   7.293  0.3501  0.2420 -0.1627
   26DOPE   HN1 3227   0.799   6.437   7.294 -0.3576 -0.4648 -0.3035
   26DOPE   HN2 3228   0.653   6.495   7.364 -1.4573 -0.2263 -2.0524
   26DOPE   HN3 3229   0.685   6.508   7.198  2.2139 -0.2377 -1.0034
   26DOPE   C12 3230   0.800   6.643   7.301 -0.3874 -0.1465  0.1901
   26DOPE  H12A 3231   0.848   6.657   7.400  0.6407  1.2758 -0.4678
   26DOPE  H12B 3232   0.730   6.728   7.282  0.4848  0.7586  0.9388
   26DOPE   C11 3233   0.914   6.653   7.193 -0.0318  0.0436  0.6571
   26DOPE  H11A 3234   0.971   6.746   7.215 -0.6647  1.4428 -2.9497
   26DOPE  H11B 3235   0.873   6.657   7.090  1.0661 -1.2803  0.1304
   26DOPE     P 3236   1.123   6.512   7.125 -0.1278  0.6774  0.4778
   26DOPE   O13 3237   1.162   6.376   7.148 -0.3504 -0.2971 -0.0484
   26DOPE   O14 3238   1.221   6.622   7.146  0.5857  0.2831  0.3930
   26DOPE   O11 3239   1.081   6.526   6.968 -0.2878 -0.0679  0.1367
   26DOPE   O12 3240   0.986   6.532   7.205  0.2708  0.3145 -0.0325
   26DOPE    C1 3241   0.950   6.477   6.921 -0.5819 -0.5218 -0.4786
   26DOPE    HA 3242   0.890   6.567   6.894  0.7938  0.6832  0.3599
   26DOPE    HB 3243   0.901   6.423   7.004  0.8310  1.1150  1.5107
   26DOPE    C2 3244   0.977   6.393   6.797  0.6221  0.0140  0.7312
   26DOPE    HS 3245   0.890   6.324   6.787 -0.2958  1.2594 -0.1486
   26DOPE   O21 3246   1.100   6.320   6.801 -0.6386 -0.5806  0.0610
   26DOPE   C21 3247   1.089   6.205   6.867 -0.0321 -0.1871 -0.1938
   26DOPE   O22 3248   0.981   6.154   6.903  0.1869 -0.2728 -0.5049
   26DOPE   C22 3249   1.228   6.132   6.893  0.4161 -0.2418  0.2645
   26DOPE   H2R 3250   1.209   6.044   6.958 -0.0587 -0.2297  0.1447
   26DOPE   H2S 3251   1.281   6.221   6.933 -0.7626  1.6636 -2.1597
   26DOPE    C3 3252   0.977   6.480   6.672  0.1754  0.6572 -0.2812
   26DOPE    HX 3253   1.030   6.577   6.690 -0.7516  0.8339  1.6133
   26DOPE    HY 3254   0.868   6.494   6.660 -0.0431 -0.9926 -0.3681
   26DOPE   O31 3255   1.017   6.413   6.551  0.1362 -0.1229 -0.2521
   26DOPE   C31 3256   1.151   6.412   6.527  0.4579  0.2421 -0.3322
   26DOPE   O32 3257   1.229   6.489   6.582 -0.1422 -0.1522  0.2771
   26DOPE   C32 3258   1.200   6.310   6.422 -0.2976  0.6394  0.4713
   26DOPE   H2X 3259   1.172   6.209   6.457 -0.4706  0.1448 -1.0137
   26DOPE   H2Y 3260   1.139   6.334   6.332 -1.1566  0.1513  0.9142
   26DOPE   C23 3261   1.305   6.107   6.764 -0.4940  0.3891  0.5152
   26DOPE   H3R 3262   1.413   6.127   6.783 -0.8795  2.6790  0.5967
   26DOPE   H3S 3263   1.294   6.181   6.682 -0.0026  0.1452  0.2274
   26DOPE   C24 3264   1.293   5.962   6.714  0.2879  0.1384  0.5763
   26DOPE   H4R 3265   1.334   5.897   6.794  0.6310 -0.2396  0.1066
   26DOPE   H4S 3266   1.359   5.938   6.628 -3.3272 -0.9337 -2.1588
   26DOPE   C25 3267   1.152   5.924   6.678 -0.0457 -0.8317  0.6084
   26DOPE   H5R 3268   1.111   6.000   6.608  0.8842  0.3845  1.3525
   26DOPE   H5S 3269   1.080   5.921   6.762  0.0023 -3.1735  0.6264
   26DOPE   C26 3270   1.147   5.787   6.609 -0.6359 -0.5361 -0.4890
   26DOPE   H6R 3271   1.186   5.706   6.674  0.2341 -1.9224 -2.6386
   26DOPE   H6S 3272   1.218   5.784   6.523 -2.1462 -1.1651 -1.7629
   26DOPE   C27 3273   1.016   5.756   6.548 -0.4497  0.6903  0.1532
   26DOPE   H7R 3274   0.974   5.838   6.485 -0.6287  2.5064  2.5161
   26DOPE   H7S 3275   0.955   5.744   6.640 -1.3518  0.6354 -0.4290
   26DOPE   C28 3276   1.022   5.628   6.465  0.3391  0.5912  0.4091
   26DOPE   H8R 3277   1.055   5.545   6.531  1.0855  1.5332  1.2779
   26DOPE   H8S 3278   1.095   5.653   6.385 -0.9142  1.6039 -0.4668
   26DOPE   C29 3279   0.884   5.594   6.398 -0.0552  0.0127 -0.2523
   26DOPE   H9R 3280   0.813   5.554   6.472  0.1751 -1.0102 -0.5716
   26DOPE  C210 3281   0.837   5.634   6.275  0.4718 -0.5076  0.0010
   26DOPE  H10R 3282   0.729   5.625   6.251  0.4908  0.0863 -0.3181
   26DOPE  C211 3283   0.901   5.721   6.174 -0.3995 -0.3507  0.1200
   26DOPE  H11R 3284   1.004   5.754   6.203  0.7785 -1.3328 -2.5942
   26DOPE  H11S 3285   0.835   5.809   6.156 -1.4643 -1.2668 -0.5949
   26DOPE  C212 3286   0.915   5.655   6.037  0.2952  0.2658  0.6423
   26DOPE  H12R 3287   1.000   5.585   6.034  0.7904  0.7777 -3.7098
   26DOPE  H12S 3288   0.945   5.732   5.962  2.2056  0.1873  1.2729
   26DOPE  C213 3289   0.784   5.590   5.976 -0.4610 -0.2851  0.4340
   26DOPE  H13R 3290   0.687   5.640   5.998  1.0258  2.0449  2.0245
   26DOPE  H13S 3291   0.783   5.495   6.034  1.8221  0.8591  2.5316
   26DOPE  C214 3292   0.801   5.562   5.821  0.1132 -0.4936  0.4445
   26DOPE  H14R 3293   0.906   5.531   5.802  0.1936 -0.0607  0.1821
   26DOPE  H14S 3294   0.772   5.651   5.763  0.2448  0.1961  1.4098
   26DOPE  C215 3295   0.715   5.441   5.780  0.2603  0.0578 -0.0862
   26DOPE  H15R 3296   0.613   5.446   5.826  1.6601 -0.5681  3.4458
   26DOPE  H15S 3297   0.753   5.344   5.819  0.7147  0.3339  0.1650
   26DOPE  C216 3298   0.700   5.428   5.627 -0.1406  0.1527  0.1631
   26DOPE  H16R 3299   0.803   5.419   5.586 -0.0073  1.5603  0.1368
   26DOPE  H16S 3300   0.648   5.511   5.575  0.8190  0.9107  0.3800
   26DOPE  C217 3301   0.647   5.289   5.581  0.6450  0.3637 -0.3239
   26DOPE  H17R 3302   0.721   5.212   5.608  1.9867  1.9853  0.8519
   26DOPE  H17S 3303   0.648   5.297   5.470  0.1435 -0.3440 -0.3835
   26DOPE  C218 3304   0.502   5.258   5.630 -0.3292 -0.0935 -0.2468
   26DOPE  H18R 3305   0.431   5.324   5.577  0.2963  0.1340 -0.8300
   26DOPE  H18S 3306   0.494   5.272   5.740 -1.9203  1.3663 -0.5076
   26DOPE  H18T 3307   0.480   5.151   5.611  0.7054  0.0565 -2.6305
   26DOPE   C33 3308   1.342   6.321   6.381  0.1177  0.5845 -0.2525
   26DOPE   H3X 3309   1.401   6.367   6.463  0.2640 -1.0868  0.6151
   26DOPE   H3Y 3310   1.359   6.394   6.298  1.2249  1.3336  0.5876
   26DOPE   C34 3311   1.408   6.186   6.330  0.2387  0.0474  0.3882
   26DOPE   H4X 3312   1.509   6.207   6.290 -0.9420 -0.0260 -2.9350
   26DOPE   H4Y 3313   1.418   6.112   6.413  0.5756 -0.8010 -0.3929
   26DOPE   C35 3314   1.323   6.102   6.225  0.1437  0.4067 -0.5565
   26DOPE   H5X 3315   1.258   6.167   6.163 -2.0566 -0.8201  0.3420
   26DOPE   H5Y 3316   1.251   6.036   6.278 -0.7729  2.4347  0.8470
   26DOPE   C36 3317   1.410   6.018   6.129 -0.2604 -0.2426 -0.2069
   26DOPE   H6X 3318   1.474   5.964   6.203 -1.0980 -0.7848  0.1386
   26DOPE   H6Y 3319   1.478   6.082   6.069  0.2568  0.4942  1.1098
   26DOPE   C37 3320   1.333   5.911   6.051  1.0846 -0.6126  0.0995
   26DOPE   H7X 3321   1.394   5.835   5.998 -0.4013 -1.7151 -0.1059
   26DOPE   H7Y 3322   1.259   5.866   6.121  0.1019  1.1653  0.2729
   26DOPE   C38 3323   1.254   5.981   5.935 -0.3302  0.0082 -0.1024
   26DOPE   H8X 3324   1.227   6.087   5.955 -2.1996 -0.5471  0.5942
   26DOPE   H8Y 3325   1.157   5.926   5.927 -1.4047  2.0398 -2.1322
   26DOPE   C39 3326   1.321   5.985   5.799 -0.5102  0.2036  0.3760
   26DOPE   H9X 3327   1.419   6.037   5.795 -1.1207  1.3535 -0.6105
   26DOPE  C310 3328   1.269   5.920   5.691  0.2812 -0.2237 -0.2520
   26DOPE  H10X 3329   1.331   5.908   5.601 -0.0176 -0.0602 -0.4838
   26DOPE  C311 3330   1.138   5.845   5.693 -0.1109  0.1940  0.1497
   26DOPE  H11X 3331   1.142   5.764   5.770  1.1675  0.6283  0.5662
   26DOPE  H11Y 3332   1.061   5.915   5.732 -1.5161  0.1538 -2.3641
   26DOPE  C312 3333   1.082   5.790   5.560  0.3479 -0.1109 -0.4627
   26DOPE  H12X 3334   0.986   5.735   5.572  0.6288 -0.7082 -0.9408
   26DOPE  H12Y 3335   1.157   5.723   5.512  0.7575  0.0411 -0.0460
   26DOPE  C313 3336   1.049   5.893   5.451  0.5549  0.1152 -0.5426
   26DOPE  H13X 3337   0.960   5.949   5.485  1.3997  0.4475  1.2441
   26DOPE  H13Y 3338   1.132   5.967   5.458 -1.6764  2.8349 -1.1398
   26DOPE  C314 3339   1.045   5.823   5.312  0.7518  0.2054 -0.0101
   26DOPE  H14X 3340   0.964   5.747   5.317 -0.3480  1.3914  1.3192
   26DOPE  H14Y 3341   1.144   5.779   5.287  0.4026 -0.3966 -0.3588
   26DOPE  C315 3342   1.006   5.915   5.190  0.3425 -0.2808 -0.2971
   26DOPE  H15X 3343   1.074   6.002   5.178 -0.2039 -0.0971 -2.5715
   26DOPE  H15Y 3344   0.903   5.955   5.198  0.9892  1.1977  1.2139
   26DOPE  C316 3345   1.025   5.845   5.050 -0.0639 -0.6722  0.0438
   26DOPE  H16X 3346   0.948   5.766   5.043 -0.3518 -0.4235  0.3949
   26DOPE  H16Y 3347   1.127   5.801   5.052  0.4105  0.3454 -0.7787
   26DOPE  C317 3348   1.008   5.936   4.930  0.5038  0.0041 -0.3333
   26DOPE  H17X 3349   0.967   5.866   4.854 -4.0985 -1.4793  3.0878
   26DOPE  H17Y 3350   0.918   6.000   4.945 -0.4939 -1.0303 -1.6709
   26DOPE  C318 3351   1.127   6.008   4.878 -0.1912 -0.2595 -0.2365
   26DOPE  H18X 3352   1.204   5.933   4.850  0.1725 -0.2489  0.6931
   26DOPE  H18Y 3353   1.089   6.076   4.798 -0.4676  0.5811  0.5934
   26DOPE  H18Z 3354   1.168   6.081   4.951  0.9966  2.0532 -3.0055
   27DOPE     N 3355   6.247   7.253   7.525 -0.2940 -0.0607  0.2973
   27DOPE   HN1 3356   6.343   7.215   7.531 -0.9141 -2.2282 -1.8620
   27DOPE   HN2 3357   6.214   7.263   7.623  0.9071  0.9984  0.6133
   27DOPE   HN3 3358   6.186   7.189   7.469  2.5644 -0.2852 -2.8456
   27DOPE   C12 3359   6.250   7.386   7.458  0.2307 -0.7298  0.3284
   27DOPE  H12A 3360   6.334   7.444   7.502  0.1489 -1.4183  1.4284
   27DOPE  H12B 3361   6.154   7.438   7.472  1.2607  1.4987 -0.4174
   27DOPE   C11 3362   6.274   7.374   7.297  0.5552 -0.1871 -0.4274
   27DOPE  H11A 3363   6.375   7.331   7.282  0.4766 -1.1086  1.4281
   27DOPE  H11B 3364   6.258   7.480   7.267  0.9365 -0.4981 -1.7541
   27DOPE     P 3365   6.191   7.227   7.089  0.1821 -0.0744  0.4878
   27DOPE   O13 3366   6.058   7.189   7.048 -0.4795  0.1540 -0.0224
   27DOPE   O14 3367   6.304   7.129   7.092  0.5701  0.7178  0.5113
   27DOPE   O11 3368   6.228   7.346   6.985 -0.3375 -0.1894  0.5791
   27DOPE   O12 3369   6.173   7.293   7.237  0.5247  0.2807  0.1179
   27DOPE    C1 3370   6.164   7.477   6.982  0.1771  0.3189  0.2640
   27DOPE    HA 3371   6.242   7.557   6.977  1.2989 -0.5640  2.2163
   27DOPE    HB 3372   6.098   7.486   7.071  1.3033  0.3624  1.1244
   27DOPE    C2 3373   6.073   7.495   6.852  0.1190  0.1794 -1.0733
   27DOPE    HS 3374   5.992   7.419   6.857  0.7648 -0.4347  1.5730
   27DOPE   O21 3375   6.160   7.477   6.740  0.5729  0.5817  0.1772
   27DOPE   C21 3376   6.170   7.353   6.689 -0.5588  0.6580 -0.3927
   27DOPE   O22 3377   6.096   7.260   6.723 -0.5631 -0.6929  0.3533
   27DOPE   C22 3378   6.293   7.355   6.592 -0.0230 -0.0059 -0.4975
   27DOPE   H2R 3379   6.367   7.279   6.623 -0.2357  0.3607  1.0196
   27DOPE   H2S 3380   6.339   7.454   6.613  0.5285  0.3843 -3.1666
   27DOPE    C3 3381   5.997   7.630   6.845  0.8548  0.0957 -0.1639
   27DOPE    HX 3382   6.079   7.706   6.850 -0.5345  1.7602 -1.4353
   27DOPE    HY 3383   5.928   7.644   6.931  1.0606 -0.4283  0.0914
   27DOPE   O31 3384   5.918   7.646   6.723 -0.1339 -0.1386  0.2594
   27DOPE   C31 3385   5.943   7.760   6.646  0.6719 -0.3822  0.1938
   27DOPE   O32 3386   5.991   7.864   6.690 -0.3726  0.0876  0.0361
   27DOPE   C32 3387   5.888   7.742   6.503 -0.1908 -0.1754 -0.2901
   27DOPE   H2X 3388   5.797   7.806   6.494 -0.6966 -1.0386 -1.5170
   27DOPE   H2Y 3389   5.971   7.780   6.439  2.3636 -0.9837  2.3107
   27DOPE   C23 3390   6.261   7.357   6.438  0.5597 -0.5611  0.1349
   27DOPE   H3R 3391   6.287   7.462   6.411  1.2018 -0.3620  1.4426
   27DOPE   H3S 3392   6.153   7.332   6.430  0.7569 -1.2425 -0.5313
   27DOPE   C24 3393   6.322   7.245   6.358 -0.5314 -0.7254 -0.3044
   27DOPE   H4R 3394   6.292   7.154   6.413  0.2096  0.1551  1.6707
   27DOPE   H4S 3395   6.433   7.250   6.353 -0.5812 -1.0679 -2.8882
   27DOPE   C25 3396   6.252   7.223   6.229 -0.3942  0.1671 -0.1930
   27DOPE   H5R 3397   6.278   7.309   6.164  0.8898 -0.6922 -0.8737
   27DOPE   H5S 3398   6.143   7.233   6.247 -0.0684 -0.7470  2.8027
   27DOPE   C26 3399   6.292   7.088   6.163  0.0319  0.2314  0.4406
   27DOPE   H6R 3400   6.268   7.015   6.244  2.4602  0.4352  1.4301
   27DOPE   H6S 3401   6.400   7.073   6.142 -0.3198 -2.6088  0.1874
   27DOPE   C27 3402   6.203   7.055   6.040 -0.5903  0.1278 -0.0169
   27DOPE   H7R 3403   6.235   7.095   5.941 -0.5731  1.8347  0.6460
   27DOPE   H7S 3404   6.100   7.094   6.054 -0.2048  1.2007 -0.1047
   27DOPE   C28 3405   6.187   6.900   6.026 -0.7309 -0.2850 -0.2130
   27DOPE   H8R 3406   6.107   6.881   5.951  0.9002 -2.4379 -1.5367
   27DOPE   H8S 3407   6.155   6.864   6.126  1.2005 -1.8717 -0.0887
   27DOPE   C29 3408   6.313   6.836   5.983  0.5716 -0.1395 -0.2717
   27DOPE   H9R 3409   6.371   6.804   6.071  1.9650 -1.4991 -1.6457
   27DOPE  C210 3410   6.358   6.812   5.858 -0.4237 -0.0359  0.8063
   27DOPE  H10R 3411   6.457   6.765   5.849 -1.3287 -1.7010 -1.0365
   27DOPE  C211 3412   6.288   6.847   5.729  0.3721  0.3512  0.1272
   27DOPE  H11R 3413   6.315   6.950   5.699  1.8884  0.0900  0.5491
   27DOPE  H11S 3414   6.177   6.848   5.729  0.3427  2.1817  1.4564
   27DOPE  C212 3415   6.334   6.746   5.611 -0.4586  0.5752 -0.2079
   27DOPE  H12R 3416   6.273   6.654   5.625 -1.1050  1.3304  2.5384
   27DOPE  H12S 3417   6.441   6.717   5.617 -1.0040 -3.2036 -3.8311
   27DOPE  C213 3418   6.326   6.808   5.471  0.5228 -0.8060  0.3353
   27DOPE  H13R 3419   6.377   6.907   5.473 -2.9344  1.1549 -1.0690
   27DOPE  H13S 3420   6.218   6.826   5.457  0.7228  1.3336  1.2126
   27DOPE  C214 3421   6.391   6.737   5.350  0.0857  0.0823 -0.3033
   27DOPE  H14R 3422   6.501   6.749   5.356 -0.1079  1.2587  1.8208
   27DOPE  H14S 3423   6.358   6.797   5.263  1.8765 -0.4237 -1.3935
   27DOPE  C215 3424   6.349   6.593   5.328  0.7221 -0.3963  0.3963
   27DOPE  H15R 3425   6.238   6.588   5.331  0.7039  0.1092  0.4944
   27DOPE  H15S 3426   6.375   6.523   5.411  0.9614  0.1347  0.7699
   27DOPE  C216 3427   6.411   6.539   5.207 -0.4347 -0.5865  0.9166
   27DOPE  H16R 3428   6.522   6.539   5.206 -0.4019 -1.2974 -1.1963
   27DOPE  H16S 3429   6.375   6.595   5.118 -1.5293  1.1081  2.3568
   27DOPE  C217 3430   6.376   6.386   5.183 -0.5208 -0.3650  0.2827
   27DOPE  H17R 3431   6.269   6.388   5.154 -0.6070  1.2765  0.6182
   27DOPE  H17S 3432   6.383   6.334   5.280 -1.0677 -1.0301 -0.0339
   27DOPE  C218 3433   6.451   6.308   5.068  0.1309 -0.3112  0.2372
   27DOPE  H18R 3434   6.408   6.206   5.058 -2.9148  1.0105 -1.3368
   27DOPE  H18S 3435   6.561   6.302   5.088  0.2751 -0.7975 -0.6613
   27DOPE  H18T 3436   6.437   6.362   4.972 -1.5417 -0.1071  0.5779
   27DOPE   C33 3437   5.837   7.590   6.467  0.1907 -0.7979 -0.5811
   27DOPE   H3X 3438   5.754   7.559   6.534  0.3771  1.1185  0.6330
   27DOPE   H3Y 3439   5.926   7.524   6.476  0.3230 -0.5958 -0.3601
   27DOPE   C34 3440   5.776   7.591   6.327  0.2228  0.3154  0.1521
   27DOPE   H4X 3441   5.717   7.502   6.295 -0.4457  1.4788 -2.0174
   27DOPE   H4Y 3442   5.704   7.674   6.313 -0.6959 -0.6398 -1.0589
   27DOPE   C35 3443   5.888   7.600   6.214 -0.2378 -0.5523 -0.0596
   27DOPE   H5X 3444   5.951   7.684   6.249 -3.1451  1.2111  1.3654
   27DOPE   H5Y 3445   5.837   7.642   6.124  0.9236  1.0338 -0.0090
   27DOPE   C36 3446   5.960   7.465   6.186  0.6359 -0.5719  0.2532
   27DOPE   H6X 3447   5.984   7.420   6.285  1.0291  1.7042  1.2628
   27DOPE   H6Y 3448   6.059   7.481   6.137  0.5662 -1.8067 -0.3168
   27DOPE   C37 3449   5.870   7.375   6.095  0.0355  0.2145 -0.5460
   27DOPE   H7X 3450   5.928   7.280   6.092 -0.0034  0.0505  1.7324
   27DOPE   H7Y 3451   5.774   7.355   6.147  0.2664 -1.0295 -0.5572
   27DOPE   C38 3452   5.851   7.432   5.956  0.0048  0.1424  0.1320
   27DOPE   H8X 3453   5.949   7.452   5.906 -1.4301  0.1716 -2.8803
   27DOPE   H8Y 3454   5.794   7.528   5.955  1.8224  1.4261 -3.8075
   27DOPE   C39 3455   5.770   7.333   5.874  0.5625  0.2669 -0.1401
   27DOPE   H9X 3456   5.663   7.356   5.879  0.5083 -0.1693  1.0714
   27DOPE  C310 3457   5.805   7.230   5.795  0.4648 -0.1116 -0.1449
   27DOPE  H10X 3458   5.722   7.172   5.752  2.5732 -2.1893 -1.6414
   27DOPE  C311 3459   5.941   7.180   5.771  0.0140 -0.0141 -0.2647
   27DOPE  H11X 3460   5.998   7.253   5.709 -0.3070 -0.7172 -1.4144
   27DOPE  H11Y 3461   5.990   7.174   5.871 -3.4085  0.7270  1.6006
   27DOPE  C312 3462   5.952   7.034   5.716  0.7283  0.2860  0.6033
   27DOPE  H12X 3463   5.928   6.963   5.798 -2.5650 -0.2703 -0.7118
   27DOPE  H12Y 3464   6.058   7.025   5.682  0.3275 -1.2398 -0.3260
   27DOPE  C313 3465   5.866   7.005   5.595  0.2261  1.1575  0.3037
   27DOPE  H13X 3466   5.767   6.968   5.629  0.8286  0.1011  0.9303
   27DOPE  H13Y 3467   5.849   7.095   5.531  0.8073  1.0424 -0.0208
   27DOPE  C314 3468   5.927   6.912   5.491 -0.8107 -0.5450 -0.0125
   27DOPE  H14X 3469   5.982   6.831   5.542 -0.5863  0.6327  1.7196
   27DOPE  H14Y 3470   6.010   6.963   5.438  0.2900 -1.4802  0.7863
   27DOPE  C315 3471   5.820   6.849   5.403  0.1048 -0.8195  0.0653
   27DOPE  H15X 3472   5.749   6.796   5.470  4.1998 -3.2940  2.8847
   27DOPE  H15Y 3473   5.861   6.778   5.329 -0.5028  0.7722 -1.8842
   27DOPE  C316 3474   5.722   6.945   5.332 -0.2229  0.7848 -0.2872
   27DOPE  H16X 3475   5.773   7.012   5.259  0.3907 -0.8565 -1.4043
   27DOPE  H16Y 3476   5.665   6.993   5.415  0.3225 -0.5729  0.9296
   27DOPE  C317 3477   5.625   6.858   5.243  0.5116  0.4536 -0.1952
   27DOPE  H17X 3478   5.683   6.815   5.158  0.2514 -1.2989  0.4722
   27DOPE  H17Y 3479   5.593   6.771   5.305 -0.4572  1.6907  1.0981
   27DOPE  C318 3480   5.511   6.943   5.199 -0.0917 -0.2988  0.6070
   27DOPE  H18X 3481   5.422   6.937   5.265  1.6298 -1.1599  2.9765
   27DOPE  H18Y 3482   5.541   7.048   5.183 -0.2279 -0.3073  0.2779
   27DOPE  H18Z 3483   5.485   6.892   5.103  0.0398  1.0863 -0.1859
   28DOPE     N 3484   7.321   6.189   7.328 -0.1917 -0.3889  0.5892
   28DOPE   HN1 3485   7.249   6.145   7.268  0.5910  0.9240 -1.4283
   28DOPE   HN2 3486   7.367   6.106   7.369 -0.7749 -1.5764 -1.0602
   28DOPE   HN3 3487   7.274   6.247   7.400  1.2929  3.4192 -1.1824
   28DOPE   C12 3488   7.406   6.281   7.241 -0.8416 -0.2577 -0.4780
   28DOPE  H12A 3489   7.465   6.216   7.173  1.1774  2.4252 -1.4644
   28DOPE  H12B 3490   7.474   6.334   7.311 -1.9243 -1.2810  1.4201
   28DOPE   C11 3491   7.319   6.369   7.145  0.2688  0.0137 -0.4544
   28DOPE  H11A 3492   7.384   6.448   7.101 -0.5226 -0.2883 -2.2590
   28DOPE  H11B 3493   7.243   6.415   7.211  0.5119  1.6275 -1.2627
   28DOPE     P 3494   7.293   6.256   6.903 -0.0574 -0.4102  0.2208
   28DOPE   O13 3495   7.180   6.174   6.840  0.3102  0.3315 -0.1403
   28DOPE   O14 3496   7.431   6.200   6.918  0.8151 -0.4027 -0.1458
   28DOPE   O11 3497   7.299   6.389   6.824  0.3075  0.1355 -0.5929
   28DOPE   O12 3498   7.239   6.299   7.048 -0.0803  0.2743  0.1131
   28DOPE    C1 3499   7.196   6.433   6.739 -0.0837  0.3174  0.1054
   28DOPE    HA 3500   7.190   6.542   6.759  2.8042  0.6309 -0.3751
   28DOPE    HB 3501   7.093   6.394   6.753 -0.4340  1.4216  0.7733
   28DOPE    C2 3502   7.240   6.412   6.585 -0.1411 -0.1755 -0.6045
   28DOPE    HS 3503   7.306   6.322   6.580 -0.4960 -0.4883  0.1217
   28DOPE   O21 3504   7.317   6.524   6.543 -0.3838 -0.2764 -0.0593
   28DOPE   C21 3505   7.426   6.505   6.463 -0.0142 -0.2791  0.2706
   28DOPE   O22 3506   7.468   6.396   6.425 -0.2153  0.2916  0.5678
   28DOPE   C22 3507   7.489   6.636   6.433 -0.5433 -0.2452  0.0570
   28DOPE   H2R 3508   7.581   6.647   6.494 -0.0770  0.3922 -0.7444
   28DOPE   H2S 3509   7.429   6.722   6.469  0.4549  1.2035 -1.5753
   28DOPE    C3 3510   7.111   6.400   6.503 -0.3664 -0.5450 -0.1304
   28DOPE    HX 3511   7.055   6.494   6.521  1.2286 -0.1199  3.3685
   28DOPE    HY 3512   7.049   6.329   6.562 -4.0799  2.7579  0.3757
   28DOPE   O31 3513   7.121   6.365   6.363  0.4851  0.1075 -0.5186
   28DOPE   C31 3514   7.162   6.245   6.336  0.4147  0.3663 -0.5853
   28DOPE   O32 3515   7.168   6.150   6.412 -0.1258 -0.0781 -0.1796
   28DOPE   C32 3516   7.211   6.248   6.188 -0.5791  0.4717  0.6381
   28DOPE   H2X 3517   7.127   6.291   6.130 -0.7680  0.7231  1.0933
   28DOPE   H2Y 3518   7.293   6.322   6.174 -1.4592  1.7065  1.7080
   28DOPE   C23 3519   7.524   6.658   6.281  0.0156  0.0326 -0.5121
   28DOPE   H3R 3520   7.438   6.638   6.214  0.4109 -1.2744 -0.6606
   28DOPE   H3S 3521   7.610   6.591   6.258  0.4748  0.5929 -0.4590
   28DOPE   C24 3522   7.568   6.804   6.274  0.1871  0.0959  0.5466
   28DOPE   H4R 3523   7.660   6.825   6.333 -0.4281 -3.0355  2.9053
   28DOPE   H4S 3524   7.491   6.876   6.310 -1.2864 -0.9949 -0.3190
   28DOPE   C25 3525   7.586   6.835   6.118  0.6284 -0.6921  0.1610
   28DOPE   H5R 3526   7.488   6.824   6.067  0.0613 -0.0070  1.0698
   28DOPE   H5S 3527   7.647   6.756   6.069 -0.2858 -1.6502  0.5318
   28DOPE   C26 3528   7.644   6.969   6.090 -0.4608  0.2394  0.2309
   28DOPE   H6R 3529   7.751   6.978   6.118 -0.8095  0.8688  1.4409
   28DOPE   H6S 3530   7.592   7.052   6.142  0.6619  2.3406 -1.8123
   28DOPE   C27 3531   7.644   7.005   5.943 -0.2949 -0.3821 -0.2889
   28DOPE   H7R 3532   7.688   7.106   5.935 -0.0049 -0.5502 -0.8915
   28DOPE   H7S 3533   7.535   7.019   5.923 -0.4804 -0.4010  0.6923
   28DOPE   C28 3534   7.719   6.920   5.835 -0.1761  0.2217  0.4089
   28DOPE   H8R 3535   7.679   6.818   5.851 -0.4784  0.3270  0.3313
   28DOPE   H8S 3536   7.827   6.914   5.861  0.0440 -0.5090 -0.6049
   28DOPE   C29 3537   7.703   6.965   5.690  1.1338  0.4869  0.5143
   28DOPE   H9R 3538   7.753   7.058   5.659 -1.5464  1.5340 -1.0348
   28DOPE  C210 3539   7.635   6.909   5.589  0.4718  0.5389  0.2538
   28DOPE  H10R 3540   7.641   6.948   5.486 -0.4288 -1.0101 -0.4107
   28DOPE  C211 3541   7.557   6.780   5.593  0.2859  0.6097 -0.4012
   28DOPE  H11R 3542   7.453   6.810   5.618  0.3466  0.0063  0.6246
   28DOPE  H11S 3543   7.595   6.709   5.670  0.6683 -3.1698 -3.7339
   28DOPE  C212 3544   7.548   6.692   5.464  0.0876  0.5674  1.0303
   28DOPE  H12R 3545   7.497   6.746   5.382 -0.2702 -2.7284 -1.1040
   28DOPE  H12S 3546   7.482   6.612   5.504 -1.2059  1.0579 -0.0620
   28DOPE  C213 3547   7.681   6.631   5.418  0.7263 -0.0560 -0.0751
   28DOPE  H13R 3548   7.725   6.597   5.514  0.8205  1.4068  0.4240
   28DOPE  H13S 3549   7.730   6.715   5.364 -2.5104  0.9942 -1.5892
   28DOPE  C214 3550   7.662   6.503   5.334  0.5638  0.5944  0.3373
   28DOPE  H14R 3551   7.573   6.448   5.369  1.4096 -0.4595  0.8911
   28DOPE  H14S 3552   7.750   6.436   5.348  0.1589  0.3778  2.0419
   28DOPE  C215 3553   7.633   6.525   5.188  0.2755  0.7997 -0.3172
   28DOPE  H15R 3554   7.705   6.604   5.157 -1.0753  2.4623  0.5853
   28DOPE  H15S 3555   7.528   6.555   5.168 -0.0455 -0.6235 -0.8879
   28DOPE  C216 3556   7.648   6.404   5.096  0.8498  0.1237 -0.3603
   28DOPE  H16R 3557   7.579   6.321   5.123  1.4388 -0.3094 -0.1731
   28DOPE  H16S 3558   7.752   6.366   5.108  1.3419  0.8440 -2.1273
   28DOPE  C217 3559   7.628   6.443   4.948 -0.1049  0.2971 -0.7821
   28DOPE  H17R 3560   7.658   6.549   4.933 -1.7391  0.5571 -2.4701
   28DOPE  H17S 3561   7.518   6.451   4.936 -0.2720 -2.3247 -1.5998
   28DOPE  C218 3562   7.695   6.354   4.849 -0.3250  0.7107 -0.6294
   28DOPE  H18R 3563   7.801   6.351   4.880 -0.1447  1.3643 -1.1567
   28DOPE  H18S 3564   7.686   6.382   4.741  0.3155  1.4824 -0.4909
   28DOPE  H18T 3565   7.649   6.253   4.852  0.4122  0.3993  1.3624
   28DOPE   C33 3566   7.247   6.107   6.122  0.0295 -0.3449 -0.2845
   28DOPE   H3X 3567   7.172   6.039   6.167 -0.4390 -0.5286 -1.3214
   28DOPE   H3Y 3568   7.342   6.061   6.159  1.0446 -0.3532 -2.7305
   28DOPE   C34 3569   7.232   6.103   5.971 -0.0237 -0.1465  0.4524
   28DOPE   H4X 3570   7.242   5.999   5.934  1.4400  0.1381 -0.0265
   28DOPE   H4Y 3571   7.130   6.139   5.945 -0.1947 -0.5912  0.5087
   28DOPE   C35 3572   7.347   6.187   5.903  0.2773  0.9615 -0.0871
   28DOPE   H5X 3573   7.431   6.116   5.918 -1.2510 -0.8677  0.1076
   28DOPE   H5Y 3574   7.359   6.283   5.959 -1.8487  1.8125 -0.9671
   28DOPE   C36 3575   7.328   6.206   5.751  0.3929  0.1943  0.1750
   28DOPE   H6X 3576   7.400   6.283   5.718 -1.2911  2.0545  0.6375
   28DOPE   H6Y 3577   7.231   6.257   5.731  1.9110  3.0765 -0.3099
   28DOPE   C37 3578   7.356   6.082   5.659  0.0592  0.3250  0.0613
   28DOPE   H7X 3579   7.461   6.047   5.666  0.8991  2.6277 -0.3762
   28DOPE   H7Y 3580   7.306   5.988   5.693 -0.3037  0.2172 -0.7410
   28DOPE   C38 3581   7.325   6.111   5.515  0.1157  0.5352 -0.1609
   28DOPE   H8X 3582   7.369   6.043   5.440  0.8230  1.4451 -0.5906
   28DOPE   H8Y 3583   7.371   6.210   5.495 -0.2487  0.4175 -1.7102
   28DOPE   C39 3584   7.176   6.123   5.485  0.4946 -0.5224 -0.0383
   28DOPE   H9X 3585   7.125   6.198   5.547  1.1468  1.4089 -1.7237
   28DOPE  C310 3586   7.104   6.052   5.395 -0.0683  0.4677  0.5043
   28DOPE  H10X 3587   6.994   6.051   5.408 -0.2447  0.3819 -0.8617
   28DOPE  C311 3588   7.155   5.948   5.297  0.2995 -0.0811 -0.0160
   28DOPE  H11X 3589   7.152   5.988   5.194  0.7240 -0.9193 -0.3566
   28DOPE  H11Y 3590   7.262   5.925   5.315  0.6148  1.8423  0.8778
   28DOPE  C312 3591   7.076   5.815   5.299  0.1495  0.2317 -0.4252
   28DOPE  H12X 3592   6.970   5.838   5.274  0.8101  1.7991 -2.0059
   28DOPE  H12Y 3593   7.074   5.773   5.402  0.1061 -1.8987 -1.2623
   28DOPE  C313 3594   7.134   5.708   5.211 -0.2278 -0.5260 -0.6276
   28DOPE  H13X 3595   7.238   5.695   5.246 -0.1299 -1.6648 -1.3102
   28DOPE  H13Y 3596   7.076   5.615   5.229 -1.5843  0.6108  1.2082
   28DOPE  C314 3597   7.131   5.734   5.059  0.3329  0.1914  0.5552
   28DOPE  H14X 3598   7.201   5.818   5.038 -0.1072  0.1934 -1.0103
   28DOPE  H14Y 3599   7.031   5.767   5.024  0.0473 -1.0130  0.2113
   28DOPE  C315 3600   7.158   5.609   4.972  0.3559  0.0748  0.0296
   28DOPE  H15X 3601   7.091   5.520   4.977 -0.4805  0.5796 -1.5738
   28DOPE  H15Y 3602   7.249   5.567   5.021  0.4584  0.9470  0.5940
   28DOPE  C316 3603   7.180   5.640   4.821  0.4284 -0.5219  0.5346
   28DOPE  H16X 3604   7.235   5.736   4.806 -0.1633 -0.4690 -1.7618
   28DOPE  H16Y 3605   7.080   5.654   4.775  0.7589 -0.4861 -0.1840
   28DOPE  C317 3606   7.234   5.530   4.725  0.5177  0.7131  0.1748
   28DOPE  H17X 3607   7.340   5.508   4.753  0.9328  1.7257 -0.5312
   28DOPE  H17Y 3608   7.184   5.438   4.763 -0.2942  0.9692 -0.2590
   28DOPE  C318 3609   7.228   5.556   4.575 -0.2956  0.4048  0.6967
   28DOPE  H18X 3610   7.247   5.659   4.537 -1.0325 -0.3033 -1.8015
   28DOPE  H18Y 3611   7.290   5.485   4.517 -0.3555 -0.2151  1.3749
   28DOPE  H18Z 3612   7.123   5.539   4.541 -0.1947 -1.3117  1.1849
   29DOPE     N 3613   7.247   0.385   7.229  0.0524  0.7736  0.2658
   29DOPE   HN1 3614   7.320   0.316   7.202  0.8151  0.8366  2.0339
   29DOPE   HN2 3615   7.186   0.333   7.294  0.9405  0.2734  0.7208
   29DOPE   HN3 3616   7.186   0.412   7.150 -1.4186  2.2442  1.8401
   29DOPE   C12 3617   7.308   0.495   7.316 -0.2613  0.1791  0.1611
   29DOPE  H12A 3618   7.376   0.442   7.386  1.3362  0.6653 -0.9529
   29DOPE  H12B 3619   7.226   0.540   7.376  0.7652  1.7790  0.4505
   29DOPE   C11 3620   7.390   0.587   7.220 -0.3148 -0.2146  0.5954
   29DOPE  H11A 3621   7.427   0.678   7.272 -1.0730  0.5976 -0.2515
   29DOPE  H11B 3622   7.321   0.604   7.134 -2.0604  0.3769  2.0444
   29DOPE     P 3623   7.631   0.593   7.105  0.1605  0.0012 -0.5845
   29DOPE   O13 3624   7.743   0.502   7.102 -0.3442  0.0515 -0.2501
   29DOPE   O14 3625   7.663   0.732   7.160  0.2251  0.6040 -0.2294
   29DOPE   O11 3626   7.566   0.598   6.957 -0.1150  0.0396 -0.7718
   29DOPE   O12 3627   7.511   0.521   7.189 -0.3985  0.3033 -0.1685
   29DOPE    C1 3628   7.492   0.482   6.912 -0.3871 -0.7646 -0.0897
   29DOPE    HA 3629   7.396   0.467   6.966  0.9008 -0.9472  2.2748
   29DOPE    HB 3630   7.554   0.390   6.922  2.8294  1.0821 -1.3640
   29DOPE    C2 3631   7.461   0.507   6.756 -0.7411  0.2569  0.6219
   29DOPE    HS 3632   7.419   0.414   6.711  1.6364  0.7208 -3.0307
   29DOPE   O21 3633   7.573   0.548   6.678  0.2576 -0.1235 -0.0839
   29DOPE   C21 3634   7.670   0.457   6.674 -0.4145  0.2679 -0.4301
   29DOPE   O22 3635   7.678   0.354   6.740 -0.0428 -0.6136  0.0720
   29DOPE   C22 3636   7.748   0.485   6.548  0.2961  0.7653 -0.6093
   29DOPE   H2R 3637   7.671   0.500   6.469 -3.3400 -1.2764  2.2146
   29DOPE   H2S 3638   7.810   0.396   6.523  0.0244  0.6037 -0.7199
   29DOPE    C3 3639   7.354   0.619   6.748 -0.4234  0.8872  0.1239
   29DOPE    HX 3640   7.400   0.699   6.809 -0.6108 -0.9762  2.8645
   29DOPE    HY 3641   7.264   0.574   6.795 -1.2985  0.6317 -1.7182
   29DOPE   O31 3642   7.322   0.649   6.611  0.0202 -0.1505  0.1238
   29DOPE   C31 3643   7.313   0.778   6.580 -1.0969 -0.4801  0.6252
   29DOPE   O32 3644   7.304   0.865   6.665 -0.3521  0.0294  0.0707
   29DOPE   C32 3645   7.303   0.799   6.430  0.4304  0.2724  0.3842
   29DOPE   H2X 3646   7.223   0.739   6.381  1.6933 -1.4592  0.3794
   29DOPE   H2Y 3647   7.288   0.908   6.410  0.5381  0.5385  1.6731
   29DOPE   C23 3648   7.849   0.598   6.571  0.5782  0.4596 -0.1521
   29DOPE   H3R 3649   7.882   0.593   6.677 -0.8059 -0.5622  0.2718
   29DOPE   H3S 3650   7.783   0.685   6.554 -1.1798 -0.6736  0.5020
   29DOPE   C24 3651   7.963   0.592   6.470 -0.5140  0.3684  0.0532
   29DOPE   H4R 3652   8.022   0.501   6.493  0.3819  0.8091 -0.4320
   29DOPE   H4S 3653   8.033   0.677   6.484  0.0864 -0.1600  0.3252
   29DOPE   C25 3654   7.929   0.597   6.318  0.3015  0.4301  0.9511
   29DOPE   H5R 3655   7.877   0.690   6.283 -0.9079 -0.5203  0.1183
   29DOPE   H5S 3656   7.851   0.522   6.292  1.8363 -1.4730  1.6757
   29DOPE   C26 3657   8.054   0.554   6.246  0.5964 -0.2956  0.0773
   29DOPE   H6R 3658   8.093   0.459   6.288 -2.8925 -2.2939 -0.7629
   29DOPE   H6S 3659   8.140   0.624   6.253  1.0969 -1.0076  1.4498
   29DOPE   C27 3660   8.039   0.531   6.097 -0.9198  0.3983  0.2913
   29DOPE   H7R 3661   7.945   0.476   6.071 -0.9237  1.3018 -1.7635
   29DOPE   H7S 3662   8.124   0.470   6.059 -1.5759  0.0833 -0.7156
   29DOPE   C28 3663   8.046   0.661   6.009  0.2133 -0.0428  0.0017
   29DOPE   H8R 3664   8.142   0.716   6.026  0.8259 -1.2671  0.6201
   29DOPE   H8S 3665   7.964   0.727   6.046  0.0666 -0.4470  0.4045
   29DOPE   C29 3666   8.012   0.637   5.862  0.2191 -0.2686  0.5453
   29DOPE   H9R 3667   7.920   0.580   5.846 -0.2140  0.0406  1.8441
   29DOPE  C210 3668   8.095   0.664   5.762  0.1903 -0.7911  0.0541
   29DOPE  H10R 3669   8.067   0.647   5.657 -0.0394 -1.3170  0.1986
   29DOPE  C211 3670   8.229   0.720   5.759 -0.3395  0.4187 -0.0042
   29DOPE  H11R 3671   8.301   0.648   5.715  0.6112  0.5773  1.2182
   29DOPE  H11S 3672   8.270   0.737   5.861 -0.7108 -0.4867  0.3001
   29DOPE  C212 3673   8.241   0.852   5.673  0.0706  0.5811 -0.8241
   29DOPE  H12R 3674   8.209   0.933   5.742  1.6023 -0.3861  1.1186
   29DOPE  H12S 3675   8.167   0.844   5.590  0.4417  0.1692 -1.1157
   29DOPE  C213 3676   8.383   0.866   5.625 -0.0224 -0.1050 -0.2821
   29DOPE  H13R 3677   8.411   0.798   5.542 -0.0678  0.6932 -0.9688
   29DOPE  H13S 3678   8.448   0.837   5.710 -0.2836  0.5659  0.1569
   29DOPE  C214 3679   8.416   1.011   5.572  0.0188  0.7647 -0.6523
   29DOPE  H14R 3680   8.413   1.083   5.657  1.2801  1.4320 -1.1371
   29DOPE  H14S 3681   8.329   1.043   5.511  0.1247  1.8537 -0.2640
   29DOPE  C215 3682   8.545   1.005   5.501  0.3251  0.0378 -0.0971
   29DOPE  H15R 3683   8.548   0.922   5.427  3.2997  1.6814 -2.0093
   29DOPE  H15S 3684   8.613   0.985   5.586  0.0171 -0.0296  0.1345
   29DOPE  C216 3685   8.574   1.138   5.424  0.1698  0.6519  0.3988
   29DOPE  H16R 3686   8.676   1.139   5.380  0.9810  1.6365  2.2146
   29DOPE  H16S 3687   8.577   1.222   5.496  0.8635  1.9448 -1.0657
   29DOPE  C217 3688   8.466   1.165   5.309 -0.6460 -0.4989  0.1354
   29DOPE  H17R 3689   8.364   1.173   5.351 -0.8030  2.2743 -0.6343
   29DOPE  H17S 3690   8.479   1.078   5.241  0.7906 -0.3969  0.2424
   29DOPE  C218 3691   8.502   1.293   5.236  0.5074  0.6383 -0.0207
   29DOPE  H18R 3692   8.430   1.316   5.155  0.2063  2.6755  0.7654
   29DOPE  H18S 3693   8.599   1.280   5.183  0.0166 -0.1075 -0.7647
   29DOPE  H18T 3694   8.521   1.379   5.304  0.9415  0.5146  0.0218
   29DOPE   C33 3695   7.428   0.739   6.365 -0.5081 -0.0529  0.1214
   29DOPE   H3X 3696   7.447   0.635   6.398 -0.8891 -0.5430 -1.1518
   29DOPE   H3Y 3697   7.523   0.791   6.392 -1.0558  0.7909  0.4497
   29DOPE   C34 3698   7.440   0.729   6.214 -1.1230  0.5104  0.8731
   29DOPE   H4X 3699   7.344   0.691   6.172 -1.7619  0.6357  2.1703
   29DOPE   H4Y 3700   7.464   0.824   6.162  1.7277 -1.7501 -2.4126
   29DOPE   C35 3701   7.555   0.642   6.160 -0.3975  0.0571  0.1807
   29DOPE   H5X 3702   7.536   0.539   6.197 -2.0503  1.2560  2.9971
   29DOPE   H5Y 3703   7.648   0.684   6.202  0.4076 -1.1941 -0.2999
   29DOPE   C36 3704   7.550   0.643   6.004  0.3491 -0.1611 -0.4635
   29DOPE   H6X 3705   7.544   0.749   5.972  0.0842  1.0823  3.2329
   29DOPE   H6Y 3706   7.449   0.605   5.978  0.1462  0.1820 -0.1765
   29DOPE   C37 3707   7.662   0.565   5.931  0.2108 -0.4396 -0.0576
   29DOPE   H7X 3708   7.688   0.630   5.845 -0.7540 -0.1547 -0.1433
   29DOPE   H7Y 3709   7.748   0.555   6.001  0.9676  1.1606 -0.7031
   29DOPE   C38 3710   7.615   0.429   5.878  0.0266 -0.0950  0.5076
   29DOPE   H8X 3711   7.553   0.443   5.787  1.0750  0.9127 -0.0824
   29DOPE   H8Y 3712   7.556   0.381   5.959  0.7846 -0.8084  0.6491
   29DOPE   C39 3713   7.726   0.342   5.835 -0.1442 -0.7386 -0.5158
   29DOPE   H9X 3714   7.815   0.363   5.895 -0.2249  0.5578 -0.8148
   29DOPE  C310 3715   7.733   0.254   5.735  0.6672  0.3491 -0.2943
   29DOPE  H10X 3716   7.830   0.210   5.708  1.0827  1.1522 -0.1207
   29DOPE  C311 3717   7.635   0.207   5.636  0.3083 -0.3744 -0.2024
   29DOPE  H11X 3718   7.624   0.097   5.649  0.9526 -0.3658  0.3939
   29DOPE  H11Y 3719   7.537   0.254   5.659  0.1511 -0.5353 -0.5309
   29DOPE  C312 3720   7.669   0.227   5.487 -0.2577 -0.5291  0.1243
   29DOPE  H12X 3721   7.576   0.208   5.430  0.2570  3.2079 -2.2814
   29DOPE  H12Y 3722   7.734   0.140   5.463  2.0493  0.8622  1.0101
   29DOPE  C313 3723   7.737   0.361   5.441 -0.3205 -0.3212  0.1725
   29DOPE  H13X 3724   7.679   0.444   5.486 -1.3788 -1.4148  0.8646
   29DOPE  H13Y 3725   7.843   0.370   5.473 -0.0942 -0.6432 -0.4649
   29DOPE  C314 3726   7.736   0.377   5.288 -0.4729  0.1381  0.3986
   29DOPE  H14X 3727   7.648   0.327   5.242  0.2942  0.5387 -1.6368
   29DOPE  H14Y 3728   7.832   0.334   5.252  0.0059 -1.1003  2.9934
   29DOPE  C315 3729   7.729   0.526   5.249 -0.2788  0.0874 -0.7377
   29DOPE  H15X 3730   7.816   0.574   5.298 -0.9868 -0.4432  1.1329
   29DOPE  H15Y 3731   7.632   0.569   5.283 -0.8441  0.7223 -3.0193
   29DOPE  C316 3732   7.738   0.558   5.101 -0.2369  0.0643  0.3121
   29DOPE  H16X 3733   7.835   0.530   5.055 -0.1503  2.3390 -1.0364
   29DOPE  H16Y 3734   7.740   0.668   5.094 -1.5194  0.0372 -1.2692
   29DOPE  C317 3735   7.617   0.510   5.019  0.1445 -0.3312 -0.0135
   29DOPE  H17X 3736   7.594   0.402   5.031 -1.3984 -0.0581 -0.2648
   29DOPE  H17Y 3737   7.526   0.564   5.053  1.0277  1.4799 -0.4102
   29DOPE  C318 3738   7.638   0.540   4.872 -0.2731  0.6376  0.0172
   29DOPE  H18X 3739   7.553   0.516   4.804  0.7780 -1.2116 -0.7254
   29DOPE  H18Y 3740   7.675   0.643   4.855 -1.1361  0.8714 -0.5170
   29DOPE  H18Z 3741   7.722   0.470   4.850 -0.8382 -0.2163  0.5080
   30DOPE     N 3742   0.574   7.080   7.200 -0.0252 -0.2278 -0.4503
   30DOPE   HN1 3743   0.640   7.076   7.281 -0.4807  0.9615 -0.0042
   30DOPE   HN2 3744   0.611   7.016   7.126  1.8361  1.3601 -0.9691
   30DOPE   HN3 3745   0.558   7.177   7.167 -0.2490 -0.0094  0.2738
   30DOPE   C12 3746   0.447   7.024   7.250 -0.3884  0.3617  0.5610
   30DOPE  H12A 3747   0.363   7.095   7.238 -2.1056 -1.5421  0.6854
   30DOPE  H12B 3748   0.457   6.990   7.355  0.4454 -0.7430  0.1529
   30DOPE   C11 3749   0.411   6.900   7.160  0.3671 -0.3508 -0.3649
   30DOPE  H11A 3750   0.390   6.937   7.058  1.0216  0.6578 -0.1493
   30DOPE  H11B 3751   0.324   6.850   7.207  0.8110  1.7105  3.0203
   30DOPE     P 3752   0.490   6.672   7.068 -0.0533  0.0690  0.0522
   30DOPE   O13 3753   0.362   6.616   7.111 -0.6214  0.2341 -0.0831
   30DOPE   O14 3754   0.607   6.578   7.068  0.2626 -0.3758 -0.5669
   30DOPE   O11 3755   0.479   6.740   6.920  0.1554 -0.2411  0.1741
   30DOPE   O12 3756   0.520   6.805   7.153  0.5067 -0.1747  0.7653
   30DOPE    C1 3757   0.358   6.778   6.855  0.1899  0.9568 -0.3096
   30DOPE    HA 3758   0.388   6.858   6.784  1.6381  3.0518  2.4772
   30DOPE    HB 3759   0.285   6.822   6.926 -0.9287 -0.5447 -0.4938
   30DOPE    C2 3760   0.282   6.660   6.789  0.2338  0.3779 -0.5436
   30DOPE    HS 3761   0.259   6.598   6.878  0.1136 -0.0688 -0.8842
   30DOPE   O21 3762   0.383   6.596   6.709 -0.0136 -0.1859  0.1599
   30DOPE   C21 3763   0.348   6.481   6.656  0.3927  0.1886 -0.2446
   30DOPE   O22 3764   0.256   6.411   6.700 -0.0019  0.4665  0.1377
   30DOPE   C22 3765   0.434   6.457   6.527  0.3207  0.7651 -0.2237
   30DOPE   H2R 3766   0.539   6.486   6.548 -0.2196 -0.0783  5.3905
   30DOPE   H2S 3767   0.391   6.516   6.443 -0.8800 -0.1079 -0.2454
   30DOPE    C3 3768   0.158   6.716   6.717  0.3103 -0.3432 -0.1546
   30DOPE    HX 3769   0.103   6.777   6.792  2.8741 -1.3008  2.7271
   30DOPE    HY 3770   0.091   6.630   6.694 -0.0621  0.2983 -1.6227
   30DOPE   O31 3771   0.199   6.803   6.614  0.0074  0.2800 -0.0196
   30DOPE   C31 3772   0.207   6.749   6.497 -0.3824  0.0998  0.0286
   30DOPE   O32 3773   0.169   6.636   6.472  0.2223 -0.1101  0.2424
   30DOPE   C32 3774   0.273   6.834   6.383  0.0043 -0.9883  0.2498
   30DOPE   H2X 3775   0.219   6.931   6.380 -1.0010 -1.5474 -0.0292
   30DOPE   H2Y 3776   0.376   6.844   6.425  0.7894 -1.1235 -1.5421
   30DOPE   C23 3777   0.448   6.311   6.492  0.1956 -0.1932 -1.1683
   30DOPE   H3R 3778   0.483   6.254   6.581 -0.1294 -1.6497 -1.9418
   30DOPE   H3S 3779   0.523   6.307   6.410 -0.0986 -1.8565 -1.3977
   30DOPE   C24 3780   0.321   6.235   6.447 -0.4741 -0.3255  0.3315
   30DOPE   H4R 3781   0.235   6.272   6.507 -1.0469  1.7225 -1.5874
   30DOPE   H4S 3782   0.334   6.125   6.453 -1.1525 -0.5654 -1.7593
   30DOPE   C25 3783   0.282   6.265   6.300 -0.1752 -0.3836 -0.0151
   30DOPE   H5R 3784   0.370   6.247   6.234  1.3564  0.8732  1.5935
   30DOPE   H5S 3785   0.264   6.375   6.296 -0.4507 -0.4478 -0.7843
   30DOPE   C26 3786   0.161   6.178   6.253  0.2730 -0.3317  0.7258
   30DOPE   H6R 3787   0.087   6.177   6.335  0.6999 -2.2438  1.1354
   30DOPE   H6S 3788   0.191   6.072   6.243 -0.8826 -0.4947 -1.4323
   30DOPE   C27 3789   0.094   6.231   6.122  0.1626  0.3483  0.1342
   30DOPE   H7R 3790   0.039   6.324   6.148  0.4976  1.1559 -1.8519
   30DOPE   H7S 3791   0.021   6.152   6.094  1.4172 -0.5446 -0.7632
   30DOPE   C28 3792   0.188   6.267   6.001  0.3946  0.5666  0.1180
   30DOPE   H8R 3793   0.243   6.178   5.964 -0.2125  0.0566  0.4187
   30DOPE   H8S 3794   0.243   6.358   6.033 -2.3420  2.3273  0.2335
   30DOPE   C29 3795   0.105   6.308   5.883 -0.2698 -0.7749 -0.5103
   30DOPE   H9R 3796   0.095   6.417   5.881 -0.0955 -0.7630 -1.0444
   30DOPE  C210 3797   0.050   6.235   5.785 -0.2487  1.1708 -0.2292
   30DOPE  H10R 3798  -0.026   6.278   5.718 -0.2751 -0.7512 -1.5297
   30DOPE  C211 3799   0.055   6.085   5.770  0.9227 -0.3593 -0.5291
   30DOPE  H11R 3800  -0.044   6.039   5.794  1.3948 -2.0300 -1.6436
   30DOPE  H11S 3801   0.129   6.041   5.840  0.2215 -2.2526 -0.9077
   30DOPE  C212 3802   0.078   6.033   5.619  0.1561  0.5069  0.0494
   30DOPE  H12R 3803  -0.013   6.055   5.559  1.0243 -0.5353 -1.7278
   30DOPE  H12S 3804   0.089   5.923   5.631  0.6867  0.6667  1.2429
   30DOPE  C213 3805   0.197   6.098   5.544  0.2226 -0.6062  0.1172
   30DOPE  H13R 3806   0.289   6.094   5.607  1.4110  0.9062 -1.4276
   30DOPE  H13S 3807   0.175   6.207   5.534 -0.8634 -0.7202  0.9447
   30DOPE  C214 3808   0.226   6.032   5.408  0.0655  0.2081  0.2290
   30DOPE  H14R 3809   0.237   5.922   5.406 -1.7759  0.0082 -1.7706
   30DOPE  H14S 3810   0.332   6.059   5.388  0.5752 -2.3349 -0.8725
   30DOPE  C215 3811   0.135   6.086   5.296 -0.2761 -0.2846 -0.4701
   30DOPE  H15R 3812   0.145   6.197   5.290  2.6761 -0.3415  1.4525
   30DOPE  H15S 3813   0.031   6.061   5.325 -1.0940 -1.4557 -3.9115
   30DOPE  C216 3814   0.154   6.017   5.160 -0.2502 -0.4215  0.5045
   30DOPE  H16R 3815   0.065   6.042   5.098 -1.4397 -1.8716  1.5781
   30DOPE  H16S 3816   0.166   5.907   5.171 -1.7301 -0.7977 -1.1433
   30DOPE  C217 3817   0.274   6.082   5.080 -0.1895 -0.4717  0.5747
   30DOPE  H17R 3818   0.371   6.067   5.132  0.5049 -0.1033 -0.5770
   30DOPE  H17S 3819   0.253   6.191   5.085  2.1440  0.0141  0.6895
   30DOPE  C218 3820   0.280   6.047   4.934 -0.7657  0.3890 -0.1675
   30DOPE  H18R 3821   0.190   6.083   4.880  0.1128  0.3305 -1.7571
   30DOPE  H18S 3822   0.291   5.937   4.923  1.6463  0.5944 -0.3361
   30DOPE  H18T 3823   0.366   6.091   4.878  0.1751  0.2428  1.1252
   30DOPE   C33 3824   0.277   6.766   6.244  0.4120  0.6245 -0.0581
   30DOPE   H3X 3825   0.182   6.733   6.196  1.3244 -1.6656 -0.4364
   30DOPE   H3Y 3826   0.337   6.673   6.260 -0.5712  0.0435  0.3358
   30DOPE   C34 3827   0.368   6.841   6.147  0.0883 -0.2591  0.1983
   30DOPE   H4X 3828   0.325   6.944   6.151  0.4798 -0.1433  2.1013
   30DOPE   H4Y 3829   0.476   6.846   6.172  0.6631  4.3521 -2.0706
   30DOPE   C35 3830   0.354   6.779   6.009  0.6110  0.1588 -0.4224
   30DOPE   H5X 3831   0.246   6.766   5.985  0.6019 -0.2605 -0.1460
   30DOPE   H5Y 3832   0.398   6.677   6.007  0.9333  0.2734  0.6125
   30DOPE   C36 3833   0.426   6.865   5.897  0.8206 -0.0055 -0.5101
   30DOPE   H6X 3834   0.534   6.846   5.912  0.9768  1.4058  0.2723
   30DOPE   H6Y 3835   0.406   6.974   5.901  0.5440 -0.0003 -1.7564
   30DOPE   C37 3836   0.393   6.832   5.745 -0.4502  0.0649  0.1381
   30DOPE   H7X 3837   0.413   6.729   5.710  0.4202  0.6294 -1.1033
   30DOPE   H7Y 3838   0.285   6.850   5.724 -0.3065  1.5573  0.5475
   30DOPE   C38 3839   0.468   6.924   5.653 -0.7961 -0.1582 -1.3696
   30DOPE   H8X 3840   0.476   6.882   5.550  1.2585  2.0239 -2.2012
   30DOPE   H8Y 3841   0.572   6.932   5.692 -1.0923  0.8015 -0.7263
   30DOPE   C39 3842   0.394   7.060   5.657  0.1076  0.8610 -0.0913
   30DOPE   H9X 3843   0.395   7.105   5.757  0.2812  2.4277 -0.7721
   30DOPE  C310 3844   0.345   7.123   5.549 -0.0026  0.0924 -0.4983
   30DOPE  H10X 3845   0.286   7.211   5.578 -1.1939 -0.9446  0.3835
   30DOPE  C311 3846   0.355   7.076   5.401  0.2821  0.0108  0.1420
   30DOPE  H11X 3847   0.458   7.076   5.359  0.3274  0.2725  0.2522
   30DOPE  H11Y 3848   0.300   6.979   5.399 -0.9990  0.6559  1.9128
   30DOPE  C312 3849   0.267   7.161   5.314 -0.0682  0.3964  0.5718
   30DOPE  H12X 3850   0.315   7.261   5.314 -0.0880  0.4086  1.0373
   30DOPE  H12Y 3851   0.164   7.164   5.356  1.1193  1.4879  3.6746
   30DOPE  C313 3852   0.279   7.111   5.165  0.6278 -0.4601 -0.2585
   30DOPE  H13X 3853   0.217   7.179   5.102 -1.0936 -1.1592  0.5975
   30DOPE  H13Y 3854   0.387   7.103   5.141  1.2875  0.7617  1.9768
   30DOPE  C314 3855   0.217   6.974   5.144  0.1085  0.5435 -0.4736
   30DOPE  H14X 3856   0.124   6.966   5.203  0.4491  0.2050  0.0233
   30DOPE  H14Y 3857   0.291   6.913   5.200  0.7492  2.1016  0.4638
   30DOPE  C315 3858   0.195   6.938   4.997  0.3560 -0.0013 -0.0940
   30DOPE  H15X 3859   0.117   6.997   4.945  1.2276  1.2429 -0.0373
   30DOPE  H15Y 3860   0.170   6.831   4.986  4.2298 -1.4089  2.4838
   30DOPE  C316 3861   0.318   6.940   4.906 -0.3216 -0.1952  0.5755
   30DOPE  H16X 3862   0.413   6.903   4.951 -0.0352  1.1943  1.1947
   30DOPE  H16Y 3863   0.336   7.046   4.878 -1.1422 -0.5091 -1.2814
   30DOPE  C317 3864   0.299   6.853   4.778  0.0527 -0.0966  0.0269
   30DOPE  H17X 3865   0.314   6.746   4.804 -0.6702 -0.8460 -2.4421
   30DOPE  H17Y 3866   0.192   6.861   4.748 -0.1820 -1.4901  0.4141
   30DOPE  C318 3867   0.399   6.887   4.665  0.5977  0.0100  0.6476
   30DOPE  H18X 3868   0.409   6.987   4.617  3.6655 -0.2067  0.6676
   30DOPE  H18Y 3869   0.493   6.853   4.713  0.3866  0.1298  1.1447
   30DOPE  H18Z 3870   0.386   6.807   4.589  1.5286 -0.6152  1.1319
   31DOPE     N 3871   2.891   2.708   2.940 -0.2675 -0.7990  0.0629
   31DOPE   HN1 3872   2.992   2.733   2.942 -0.5175  0.2526  0.8013
   31DOPE   HN2 3873   2.885   2.606   2.960 -0.4376 -0.7602  0.2123
   31DOPE   HN3 3874   2.855   2.720   2.844  2.5293 -1.7234 -1.2149
   31DOPE   C12 3875   2.811   2.768   3.050 -0.0067  0.0115 -0.2343
   31DOPE  H12A 3876   2.848   2.725   3.146  0.8475  0.4119 -0.3753
   31DOPE  H12B 3877   2.703   2.745   3.046 -0.2872  1.3250 -0.5939
   31DOPE   C11 3878   2.821   2.918   3.050 -0.6057  0.1954 -0.5011
   31DOPE  H11A 3879   2.929   2.943   3.060  0.1866 -2.9530 -0.2764
   31DOPE  H11B 3880   2.794   2.946   3.154  1.1988 -1.5498  0.5016
   31DOPE     P 3881   2.781   3.130   2.909 -0.0993 -0.3388  0.0770
   31DOPE   O13 3882   2.672   3.185   2.829 -0.3288 -0.3904  0.1811
   31DOPE   O14 3883   2.919   3.124   2.848 -0.6358 -0.0622 -0.8570
   31DOPE   O11 3884   2.786   3.197   3.052  0.2989 -0.5416  0.0333
   31DOPE   O12 3885   2.742   2.983   2.951 -0.0988  0.3108 -0.1034
   31DOPE    C1 3886   2.864   3.318   3.065  0.8323  0.6869 -0.2335
   31DOPE    HA 3887   2.798   3.408   3.062 -0.6904 -0.3667  0.5584
   31DOPE    HB 3888   2.929   3.330   2.976  0.5907 -0.3262 -0.5566
   31DOPE    C2 3889   2.939   3.330   3.203 -0.0092 -0.6847  0.2845
   31DOPE    HS 3890   2.994   3.234   3.197 -1.6556 -1.6629  0.3608
   31DOPE   O21 3891   2.837   3.348   3.307  0.1748 -0.1896  0.6609
   31DOPE   C21 3892   2.893   3.307   3.424  0.2947 -0.1368  0.7017
   31DOPE   O22 3893   2.991   3.239   3.426  0.5666 -0.3425 -0.5609
   31DOPE   C22 3894   2.816   3.349   3.549  0.5135 -0.2032 -0.1203
   31DOPE   H2R 3895   2.725   3.285   3.548  0.9871 -0.8990 -1.0729
   31DOPE   H2S 3896   2.779   3.453   3.536 -1.5996 -0.9881 -0.7131
   31DOPE    C3 3897   3.043   3.444   3.196  0.0695  0.3602 -0.2099
   31DOPE    HX 3898   2.994   3.539   3.167 -0.6537  0.1087  0.1806
   31DOPE    HY 3899   3.102   3.431   3.103 -0.4065  1.6590 -0.7133
   31DOPE   O31 3900   3.125   3.465   3.311 -0.8150 -0.2225 -0.1359
   31DOPE   C31 3901   3.237   3.401   3.319  0.2008  0.1934 -0.0010
   31DOPE   O32 3902   3.278   3.316   3.235 -0.0137  0.4615 -0.2185
   31DOPE   C32 3903   3.320   3.452   3.438  0.2651 -0.3300  0.3170
   31DOPE   H2X 3904   3.425   3.420   3.419  0.4532  0.5656 -0.2453
   31DOPE   H2Y 3905   3.325   3.563   3.427 -1.1054 -0.3276 -0.5193
   31DOPE   C23 3906   2.891   3.338   3.676 -0.3341 -0.0703 -0.4138
   31DOPE   H3R 3907   2.957   3.426   3.694  2.1791 -1.9604  0.0954
   31DOPE   H3S 3908   2.966   3.256   3.672  0.3736  0.6018 -1.5351
   31DOPE   C24 3909   2.799   3.320   3.794  0.1772 -0.2825  0.5220
   31DOPE   H4R 3910   2.760   3.218   3.776  0.7455 -0.2140 -1.2252
   31DOPE   H4S 3911   2.722   3.400   3.796  0.1094 -0.2065 -2.1776
   31DOPE   C25 3912   2.869   3.314   3.926  0.1535 -0.0354  0.2515
   31DOPE   H5R 3913   2.926   3.405   3.958 -0.3965  0.5698 -0.4603
   31DOPE   H5S 3914   2.950   3.238   3.930 -0.0414 -0.2695 -0.2572
   31DOPE   C26 3915   2.776   3.284   4.046 -0.2268  0.0910  0.4222
   31DOPE   H6R 3916   2.721   3.190   4.023 -1.9490  1.4401 -1.2880
   31DOPE   H6S 3917   2.711   3.374   4.053 -1.0565 -0.4285 -0.3063
   31DOPE   C27 3918   2.855   3.270   4.175 -0.4181  0.0864  0.5578
   31DOPE   H7R 3919   2.934   3.348   4.172  0.7179 -1.0427 -1.6292
   31DOPE   H7S 3920   2.902   3.170   4.173  3.2073  1.6357  0.0107
   31DOPE   C28 3921   2.770   3.284   4.297  0.1389  0.2928 -0.3995
   31DOPE   H8R 3922   2.700   3.368   4.277 -0.0019 -0.0451 -1.3451
   31DOPE   H8S 3923   2.826   3.311   4.390  1.4126  2.0583 -1.6283
   31DOPE   C29 3924   2.683   3.162   4.324  0.1085 -0.6663  0.0027
   31DOPE   H9R 3925   2.666   3.092   4.241  2.1942 -1.3025  0.0568
   31DOPE  C210 3926   2.605   3.148   4.429  0.5856 -0.0430 -0.5522
   31DOPE  H10R 3927   2.537   3.062   4.428 -1.3573  1.3852  0.4472
   31DOPE  C211 3928   2.587   3.244   4.545 -0.0451 -0.3441  1.0500
   31DOPE  H11R 3929   2.484   3.227   4.582 -0.7665 -0.1637 -0.7571
   31DOPE  H11S 3930   2.593   3.349   4.509 -0.2239 -0.9396 -0.8049
   31DOPE  C212 3931   2.700   3.230   4.646  0.4202  0.5144 -0.3135
   31DOPE  H12R 3932   2.798   3.261   4.605  1.9522 -0.8004  2.1292
   31DOPE  H12S 3933   2.716   3.122   4.665  1.6700  0.7421 -0.0332
   31DOPE  C213 3934   2.669   3.308   4.775 -0.7322 -0.1711 -0.3243
   31DOPE  H13R 3935   2.571   3.286   4.822  0.3304 -1.5356  1.3576
   31DOPE  H13S 3936   2.669   3.414   4.740  0.5047 -0.2443 -0.6053
   31DOPE  C214 3937   2.776   3.305   4.884  0.4271 -0.0259  0.3856
   31DOPE  H14R 3938   2.775   3.200   4.923  0.0052 -0.0990  0.1828
   31DOPE  H14S 3939   2.750   3.363   4.976 -0.0807  0.2795  0.0545
   31DOPE  C215 3940   2.926   3.331   4.837  0.2710  0.2376 -0.2956
   31DOPE  H15R 3941   2.940   3.435   4.800  1.0298 -0.0740 -0.8874
   31DOPE  H15S 3942   2.968   3.261   4.762 -0.1489  1.7185 -1.9865
   31DOPE  C216 3943   3.013   3.304   4.966 -0.4467 -0.9607  0.5563
   31DOPE  H16R 3944   2.983   3.204   5.002  0.5678 -1.8386 -0.9216
   31DOPE  H16S 3945   2.969   3.366   5.048  0.5841 -2.1536  2.0628
   31DOPE  C217 3946   3.161   3.338   4.937 -0.0968  0.8177 -0.4062
   31DOPE  H17R 3947   3.164   3.449   4.924 -2.3269  0.8657 -0.8726
   31DOPE  H17S 3948   3.188   3.292   4.839 -1.2040 -0.9927  0.1043
   31DOPE  C218 3949   3.253   3.288   5.043 -0.0437 -0.9980  0.1052
   31DOPE  H18R 3950   3.228   3.327   5.144  0.7131 -1.6813  0.5744
   31DOPE  H18S 3951   3.356   3.327   5.029 -0.5576 -0.0462 -1.2288
   31DOPE  H18T 3952   3.266   3.177   5.037  1.5998 -0.8224 -0.2105
   31DOPE   C33 3953   3.259   3.402   3.565  0.5488  0.4724  0.7900
   31DOPE   H3X 3954   3.259   3.291   3.565 -0.5390  0.3024 -3.2549
   31DOPE   H3Y 3955   3.157   3.445   3.576  1.0853  2.7077 -1.9595
   31DOPE   C34 3956   3.328   3.451   3.692 -0.0863  0.5915  0.3945
   31DOPE   H4X 3957   3.429   3.404   3.702 -0.3610  0.4691  4.0862
   31DOPE   H4Y 3958   3.339   3.561   3.679 -1.3852  0.5031 -1.9622
   31DOPE   C35 3959   3.250   3.414   3.821 -0.2531  0.2921  0.6034
   31DOPE   H5X 3960   3.246   3.303   3.826  1.4808  0.2121  0.9288
   31DOPE   H5Y 3961   3.148   3.453   3.800 -0.0862  0.5071  0.1658
   31DOPE   C36 3962   3.311   3.478   3.943  0.3866  0.2619  0.0965
   31DOPE   H6X 3963   3.336   3.585   3.925  0.4934 -0.2033 -2.9502
   31DOPE   H6Y 3964   3.409   3.430   3.966  1.3460  0.5029 -2.9918
   31DOPE   C37 3965   3.209   3.466   4.055  0.1818 -0.6003  0.4106
   31DOPE   H7X 3966   3.109   3.498   4.018  0.7419  0.7756  0.0135
   31DOPE   H7Y 3967   3.191   3.363   4.092 -0.5284  0.1213  2.1423
   31DOPE   C38 3968   3.246   3.551   4.179  0.0240  0.0754  1.3317
   31DOPE   H8X 3969   3.160   3.561   4.249  0.5388  0.6388  1.8919
   31DOPE   H8Y 3970   3.266   3.657   4.154  1.3523 -0.0328  1.8426
   31DOPE   C39 3971   3.366   3.498   4.252  0.7600 -0.0180 -0.2964
   31DOPE   H9X 3972   3.457   3.491   4.191  1.3552  0.5173  0.5085
   31DOPE  C310 3973   3.383   3.487   4.385  0.2367  0.2181 -0.5302
   31DOPE  H10X 3974   3.484   3.461   4.420  0.1667 -2.1301 -1.8992
   31DOPE  C311 3975   3.286   3.517   4.495  0.8776  0.1422  0.3948
   31DOPE  H11X 3976   3.187   3.489   4.452  0.1536  2.3249  0.5478
   31DOPE  H11Y 3977   3.307   3.459   4.587  4.0362  1.0516  0.3626
   31DOPE  C312 3978   3.285   3.661   4.551  0.1505 -0.2824  0.1910
   31DOPE  H12X 3979   3.385   3.689   4.589  0.9741 -1.2627 -1.1640
   31DOPE  H12Y 3980   3.217   3.663   4.640 -0.2150 -0.4064 -0.0803
   31DOPE  C313 3981   3.220   3.767   4.462 -0.3915 -0.4872  0.8497
   31DOPE  H13X 3982   3.276   3.785   4.368 -1.2325 -0.0920  0.4176
   31DOPE  H13Y 3983   3.120   3.742   4.421 -0.6454 -0.2195  1.3028
   31DOPE  C314 3984   3.193   3.905   4.523  0.1425 -0.6360 -0.6894
   31DOPE  H14X 3985   3.145   3.967   4.445  0.3229 -2.1626 -2.0716
   31DOPE  H14Y 3986   3.294   3.941   4.551 -0.0116 -0.6950 -0.0305
   31DOPE  C315 3987   3.111   3.914   4.655 -0.5875 -0.2314 -0.0781
   31DOPE  H15X 3988   3.113   4.018   4.694  0.2126 -0.9116  1.7943
   31DOPE  H15Y 3989   3.154   3.852   4.736 -1.8969  1.3435  1.9143
   31DOPE  C316 3990   2.966   3.864   4.645 -0.2832 -0.4967 -0.2962
   31DOPE  H16X 3991   2.955   3.754   4.656 -0.6547 -0.2768  1.8703
   31DOPE  H16Y 3992   2.917   3.903   4.553  1.2388  0.1060 -0.8836
   31DOPE  C317 3993   2.907   3.937   4.766  0.9267  1.2103  0.0797
   31DOPE  H17X 3994   2.980   3.919   4.848  0.8384  1.4042  0.2028
   31DOPE  H17Y 3995   2.896   4.047   4.749  0.4853  1.0025 -1.1101
   31DOPE  C318 3996   2.764   3.885   4.800  0.1226 -0.4963  0.1853
   31DOPE  H18X 3997   2.752   3.775   4.799  0.4136 -0.5337 -0.6792
   31DOPE  H18Y 3998   2.734   3.932   4.896  0.9651  0.8285 -0.1684
   31DOPE  H18Z 3999   2.704   3.934   4.719 -0.7990  0.0462  1.1716
   32DOPE     N 4000   4.379   1.922   2.819  0.6487  0.0386  0.1127
   32DOPE   HN1 4001   4.286   1.962   2.842 -0.6060 -1.8992 -1.2282
   32DOPE   HN2 4002   4.355   1.864   2.736 -0.1525  0.0539  0.3253
   32DOPE   HN3 4003   4.384   1.845   2.889 -2.9987  1.3377  2.0861
   32DOPE   C12 4004   4.483   2.022   2.811 -0.5752 -0.1034  0.3692
   32DOPE  H12A 4005   4.464   2.097   2.731 -0.4560  0.1041  0.5338
   32DOPE  H12B 4006   4.579   1.970   2.795 -1.5868 -1.9101 -0.0792
   32DOPE   C11 4007   4.490   2.110   2.934  0.6661 -0.7292 -0.4731
   32DOPE  H11A 4008   4.549   2.200   2.904  0.4907 -0.6816 -0.6779
   32DOPE  H11B 4009   4.546   2.055   3.013 -0.3118  1.9323  2.2525
   32DOPE     P 4010   4.261   2.234   2.912 -0.5108 -0.0751 -0.0134
   32DOPE   O13 4011   4.176   2.135   2.839  0.1573 -0.4960 -0.2485
   32DOPE   O14 4012   4.340   2.333   2.832 -0.0075  0.4296 -0.1116
   32DOPE   O11 4013   4.186   2.297   3.030  0.1092  0.3570 -0.4669
   32DOPE   O12 4014   4.360   2.142   2.995 -0.6713  0.0718 -0.1672
   32DOPE    C1 4015   4.236   2.410   3.103 -0.2866 -0.1104 -0.6278
   32DOPE    HA 4016   4.158   2.449   3.172  1.5804 -0.8430  2.0753
   32DOPE    HB 4017   4.263   2.487   3.027 -0.3395 -0.9009 -1.4610
   32DOPE    C2 4018   4.353   2.367   3.187  0.4142  0.4167 -0.5407
   32DOPE    HS 4019   4.435   2.325   3.125  0.7390  1.2234 -0.6722
   32DOPE   O21 4020   4.300   2.270   3.285 -0.5244 -0.0194  0.3869
   32DOPE   C21 4021   4.379   2.191   3.341 -0.1726  0.0125 -0.6459
   32DOPE   O22 4022   4.494   2.170   3.307 -0.2510 -0.1873  0.0557
   32DOPE   C22 4023   4.297   2.122   3.452 -0.7137  0.4351  0.2295
   32DOPE   H2R 4024   4.206   2.077   3.407 -1.0333  0.8364  0.4704
   32DOPE   H2S 4025   4.261   2.197   3.526  4.1432  1.8261  1.5996
   32DOPE    C3 4026   4.430   2.478   3.262 -0.1535  1.1872 -0.2060
   32DOPE    HX 4027   4.502   2.424   3.327 -1.8390  3.1855  3.6355
   32DOPE    HY 4028   4.374   2.527   3.344  0.0690 -1.6513  1.8096
   32DOPE   O31 4029   4.488   2.591   3.192  0.6166 -0.0728 -0.4201
   32DOPE   C31 4030   4.601   2.560   3.122 -0.0921 -0.5898 -0.1518
   32DOPE   O32 4031   4.641   2.450   3.091 -0.0173 -0.1435 -0.0693
   32DOPE   C32 4032   4.668   2.688   3.067 -0.2590 -0.4299  0.7847
   32DOPE   H2X 4033   4.706   2.744   3.154 -0.0029 -2.2386  1.8922
   32DOPE   H2Y 4034   4.754   2.657   3.004  0.3583  0.4570  1.1766
   32DOPE   C23 4035   4.371   2.005   3.523 -0.3115  0.6674  0.6088
   32DOPE   H3R 4036   4.384   1.923   3.449  1.5622  0.8244  0.7242
   32DOPE   H3S 4037   4.312   1.970   3.611  0.0159  0.7461  0.8610
   32DOPE   C24 4038   4.498   2.042   3.596 -0.0857  0.3865  0.4385
   32DOPE   H4R 4039   4.568   2.091   3.526 -0.4549 -0.6311 -0.6648
   32DOPE   H4S 4040   4.546   1.951   3.638 -1.4945 -0.8952 -0.6375
   32DOPE   C25 4041   4.470   2.149   3.711 -0.0270  0.3353  0.1456
   32DOPE   H5R 4042   4.404   2.103   3.788  0.0286  1.4960  0.9184
   32DOPE   H5S 4043   4.418   2.238   3.670 -0.8380  0.2138  0.8701
   32DOPE   C26 4044   4.591   2.186   3.797 -0.7296 -0.0332  0.2100
   32DOPE   H6R 4045   4.678   2.118   3.797  0.3551  1.2174  2.9492
   32DOPE   H6S 4046   4.564   2.188   3.905  0.7824 -0.2447  0.6139
   32DOPE   C27 4047   4.643   2.338   3.783  0.0749 -0.4178 -0.0614
   32DOPE   H7R 4048   4.719   2.360   3.860 -0.5721 -0.4580  0.5935
   32DOPE   H7S 4049   4.557   2.405   3.802  1.6317  1.4734  0.5735
   32DOPE   C28 4050   4.706   2.373   3.651  0.1119  0.5107  0.5666
   32DOPE   H8R 4051   4.635   2.362   3.567  0.7481  1.1827 -0.0733
   32DOPE   H8S 4052   4.783   2.297   3.626 -1.1703 -0.6581  0.0259
   32DOPE   C29 4053   4.757   2.519   3.640  0.3685  0.2839  0.3620
   32DOPE   H9R 4054   4.866   2.525   3.651  0.1851  1.5701  1.8582
   32DOPE  C210 4055   4.681   2.629   3.628  0.4576  0.6513 -0.0583
   32DOPE  H10R 4056   4.735   2.724   3.614 -0.0943  0.8410 -0.9895
   32DOPE  C211 4057   4.528   2.629   3.631  0.6831 -0.4843  0.0557
   32DOPE  H11R 4058   4.483   2.529   3.618  0.4592 -0.5941  1.4499
   32DOPE  H11S 4059   4.481   2.693   3.554 -0.3191  0.9370  1.7753
   32DOPE  C212 4060   4.465   2.680   3.759  0.6832 -0.2076 -0.0121
   32DOPE  H12R 4061   4.521   2.769   3.794  2.7889 -0.9539 -1.3141
   32DOPE  H12S 4062   4.468   2.611   3.846  0.4769  2.2517  2.0938
   32DOPE  C213 4063   4.308   2.712   3.746 -0.5415  0.8984 -1.3771
   32DOPE  H13R 4064   4.259   2.622   3.702 -0.5543 -0.3739  1.0852
   32DOPE  H13S 4065   4.303   2.794   3.671  3.9610  0.7601 -2.1569
   32DOPE  C214 4066   4.250   2.760   3.885 -0.1172  0.1852  0.4997
   32DOPE  H14R 4067   4.311   2.849   3.913 -2.0418  0.5779  3.9687
   32DOPE  H14S 4068   4.260   2.678   3.960  2.1972 -2.9778 -2.9090
   32DOPE  C215 4069   4.108   2.808   3.881  0.2191  0.7171 -0.0534
   32DOPE  H15R 4070   4.047   2.720   3.849  0.0175  1.7096 -2.7080
   32DOPE  H15S 4071   4.098   2.882   3.799 -1.2609  1.2530  0.5865
   32DOPE  C216 4072   4.053   2.866   4.010  0.0311  0.1623  0.5524
   32DOPE  H16R 4073   4.084   2.804   4.096  0.7693  0.6190  0.6171
   32DOPE  H16S 4074   3.942   2.860   4.018 -0.1091 -0.5939 -1.4098
   32DOPE  C217 4075   4.116   3.002   4.029 -0.0845  0.2970  0.0776
   32DOPE  H17R 4076   4.120   3.048   3.928  1.1782  2.6207  1.1076
   32DOPE  H17S 4077   4.219   2.990   4.068  0.5986  2.1163 -1.0744
   32DOPE  C218 4078   4.050   3.089   4.133 -0.2579  0.7209  0.0099
   32DOPE  H18R 4079   3.940   3.074   4.131 -0.2739  0.6021  1.0280
   32DOPE  H18S 4080   4.073   3.197   4.117 -1.1750  0.6399 -2.3246
   32DOPE  H18T 4081   4.087   3.061   4.234  0.5779 -0.8505 -0.7086
   32DOPE   C33 4082   4.578   2.778   2.975 -0.6370  0.2735 -0.4280
   32DOPE   H3X 4083   4.540   2.729   2.883  1.0040  1.1107 -1.6033
   32DOPE   H3Y 4084   4.656   2.839   2.925 -0.8822  0.7311 -0.2610
   32DOPE   C34 4085   4.460   2.857   3.028 -0.2343 -0.4689 -0.7302
   32DOPE   H4X 4086   4.419   2.925   2.951  1.0864  0.8343 -0.3416
   32DOPE   H4Y 4087   4.372   2.797   3.058  0.8939 -0.9303  1.9337
   32DOPE   C35 4088   4.500   2.937   3.163  0.7403 -0.4081  0.0908
   32DOPE   H5X 4089   4.595   2.993   3.150  1.9575 -2.1933  0.9324
   32DOPE   H5Y 4090   4.515   2.860   3.242  1.3738  0.5797  0.9722
   32DOPE   C36 4091   4.394   3.053   3.187  0.1414  0.4191 -0.4423
   32DOPE   H6X 4092   4.288   3.020   3.190 -0.3879  2.0802  0.4059
   32DOPE   H6Y 4093   4.401   3.129   3.106 -0.6923 -0.1193 -1.0312
   32DOPE   C37 4094   4.424   3.132   3.313  0.5058 -0.5508  0.0833
   32DOPE   H7X 4095   4.409   3.068   3.402  1.7863 -1.6054 -0.4134
   32DOPE   H7Y 4096   4.533   3.152   3.324  0.2452  0.3906  1.1359
   32DOPE   C38 4097   4.347   3.267   3.332 -0.1331 -0.0277 -0.3303
   32DOPE   H8X 4098   4.240   3.256   3.361 -0.1685  2.1411  0.5886
   32DOPE   H8Y 4099   4.351   3.313   3.232 -0.1768  1.3461  0.2781
   32DOPE   C39 4100   4.417   3.357   3.436 -0.0897  0.5990 -0.1352
   32DOPE   H9X 4101   4.499   3.419   3.397  1.7190 -0.9668  0.9976
   32DOPE  C310 4102   4.392   3.352   3.567  0.0640  0.0586 -0.0069
   32DOPE  H10X 4103   4.441   3.432   3.623  0.0914  0.0525 -0.0225
   32DOPE  C311 4104   4.294   3.266   3.646  0.5154  0.4167 -0.2430
   32DOPE  H11X 4105   4.258   3.184   3.581 -0.3605  0.0976  0.6238
   32DOPE  H11Y 4106   4.347   3.216   3.730  1.1077  1.2613 -0.1013
   32DOPE  C312 4107   4.171   3.336   3.709  0.0734  0.4632  0.2312
   32DOPE  H12X 4108   4.115   3.262   3.770  0.8781 -1.1644 -0.9433
   32DOPE  H12Y 4109   4.110   3.377   3.625  0.6617  1.3708  0.2402
   32DOPE  C313 4110   4.210   3.446   3.807  0.3593  0.3928  0.0097
   32DOPE  H13X 4111   4.269   3.412   3.895 -0.8777 -1.4641  0.1754
   32DOPE  H13Y 4112   4.272   3.526   3.762 -0.2763 -0.1105 -1.8371
   32DOPE  C314 4113   4.083   3.512   3.860  0.1407  0.4806 -0.0998
   32DOPE  H14X 4114   4.047   3.455   3.949  1.3440 -0.6770 -0.3108
   32DOPE  H14Y 4115   4.006   3.506   3.780 -0.4627 -0.0481  0.5063
   32DOPE  C315 4116   4.105   3.652   3.909  0.9392  0.5252 -0.1757
   32DOPE  H15X 4117   4.007   3.700   3.925  0.4736 -1.0293  2.0587
   32DOPE  H15Y 4118   4.150   3.718   3.832 -0.6802 -0.0873 -1.7117
   32DOPE  C316 4119   4.178   3.654   4.046  0.1339 -0.2756 -0.1559
   32DOPE  H16X 4120   4.274   3.598   4.039 -0.8732 -1.8844 -1.9316
   32DOPE  H16Y 4121   4.111   3.603   4.118 -1.2270 -0.2388 -1.3540
   32DOPE  C317 4122   4.205   3.798   4.111  0.2990 -0.6067 -0.2451
   32DOPE  H17X 4123   4.289   3.791   4.184  0.8260 -0.2394 -0.8028
   32DOPE  H17Y 4124   4.250   3.868   4.037 -2.0126  0.8323 -0.3860
   32DOPE  C318 4125   4.087   3.875   4.174  0.5905  0.6765  1.0572
   32DOPE  H18X 4126   4.108   3.978   4.209  2.2956  0.2885  1.3088
   32DOPE  H18Y 4127   4.013   3.880   4.091  2.6645 -1.2507 -1.0878
   32DOPE  H18Z 4128   4.039   3.820   4.258 -0.4259  0.3604  0.2924
   33DOPE     N 4129   3.601   3.079   3.012 -0.2121 -0.6757  0.8605
   33DOPE   HN1 4130   3.633   3.175   2.987 -3.3134  0.7553  1.9727
   33DOPE   HN2 4131   3.539   3.082   3.095 -0.3700  0.9409  0.7049
   33DOPE   HN3 4132   3.685   3.019   3.029  0.1656 -0.3361  0.2294
   33DOPE   C12 4133   3.527   3.039   2.890  0.0848 -0.1718  0.3358
   33DOPE  H12A 4134   3.599   3.024   2.807  2.4217  0.7390  2.0937
   33DOPE  H12B 4135   3.463   3.123   2.855 -2.5063 -1.6880  1.1402
   33DOPE   C11 4136   3.423   2.922   2.924  0.4767  0.0234  0.3495
   33DOPE  H11A 4137   3.478   2.828   2.945 -0.6705 -0.8309 -0.3406
   33DOPE  H11B 4138   3.377   2.906   2.824  0.9242 -1.7322  0.3916
   33DOPE     P 4139   3.232   2.853   3.075 -0.0459 -0.2542  0.2050
   33DOPE   O13 4140   3.141   2.822   2.967  0.4604 -0.7665 -0.2794
   33DOPE   O14 4141   3.174   2.901   3.203 -0.1024  0.0388  0.1618
   33DOPE   O11 4142   3.322   2.724   3.097 -0.1445 -0.1350 -0.1103
   33DOPE   O12 4143   3.331   2.965   3.024  0.3539  0.0829 -0.7103
   33DOPE    C1 4144   3.426   2.711   3.193  0.0049 -0.2797  0.5599
   33DOPE    HA 4145   3.479   2.800   3.232 -1.2108  0.4179  0.6574
   33DOPE    HB 4146   3.502   2.641   3.151  0.8367  0.4519  0.8222
   33DOPE    C2 4147   3.379   2.629   3.319  0.3747 -0.1342  0.5048
   33DOPE    HS 4148   3.305   2.700   3.360  1.1123  0.6990  0.4461
   33DOPE   O21 4149   3.489   2.600   3.404 -0.1980  0.2043 -0.4053
   33DOPE   C21 4150   3.493   2.664   3.518 -0.3345 -0.2280  0.6907
   33DOPE   O22 4151   3.414   2.748   3.560  0.1849 -0.1999  0.1420
   33DOPE   C22 4152   3.618   2.614   3.588  0.2769 -0.1346 -0.6450
   33DOPE   H2R 4153   3.708   2.621   3.523  0.7757 -0.4139 -0.0023
   33DOPE   H2S 4154   3.596   2.512   3.625 -1.1207  1.1851  2.5167
   33DOPE    C3 4155   3.308   2.492   3.280 -0.0512  0.1421  0.3757
   33DOPE    HX 4156   3.374   2.434   3.212 -0.5418 -1.1907  0.9919
   33DOPE    HY 4157   3.219   2.512   3.216 -1.1270 -0.8536  1.5060
   33DOPE   O31 4158   3.277   2.416   3.396 -0.5855 -0.2525  0.2669
   33DOPE   C31 4159   3.166   2.457   3.459 -0.4496 -0.4115  0.3583
   33DOPE   O32 4160   3.090   2.540   3.411 -0.1154  0.2428 -0.3868
   33DOPE   C32 4161   3.143   2.366   3.582 -0.3110  0.7519  0.0298
   33DOPE   H2X 4162   3.063   2.293   3.557  1.5250 -1.4276  0.1170
   33DOPE   H2Y 4163   3.233   2.301   3.589 -0.4849  0.6529  1.5750
   33DOPE   C23 4164   3.651   2.698   3.718 -0.9510 -0.0229 -0.0432
   33DOPE   H3R 4165   3.603   2.798   3.725  2.5390  1.9934 -1.9913
   33DOPE   H3S 4166   3.756   2.732   3.703 -1.4075  1.8148  0.6107
   33DOPE   C24 4167   3.640   2.615   3.852  0.2849 -0.2601  0.3253
   33DOPE   H4R 4168   3.701   2.524   3.837 -0.1133 -0.7475  1.5464
   33DOPE   H4S 4169   3.536   2.581   3.872  1.0293 -1.8435  1.6891
   33DOPE   C25 4170   3.691   2.697   3.977  0.3153  0.4343 -0.1698
   33DOPE   H5R 4171   3.626   2.786   3.992 -0.5977 -0.2865  0.2283
   33DOPE   H5S 4172   3.792   2.735   3.948  1.8777 -3.1291  0.1634
   33DOPE   C26 4173   3.697   2.604   4.104 -0.7769  0.4361  0.0642
   33DOPE   H6R 4174   3.771   2.526   4.076  0.1710  2.1390 -2.4747
   33DOPE   H6S 4175   3.600   2.557   4.133  0.3444 -1.6062  0.7561
   33DOPE   C27 4176   3.751   2.663   4.233 -0.8778  0.6343  0.0439
   33DOPE   H7R 4177   3.852   2.708   4.215  0.2552 -1.0741  1.7803
   33DOPE   H7S 4178   3.769   2.571   4.293 -1.1406  1.3595  1.2673
   33DOPE   C28 4179   3.660   2.756   4.304  0.4528 -0.3340  0.8581
   33DOPE   H8R 4180   3.556   2.716   4.314 -0.2485  1.1493 -0.1226
   33DOPE   H8S 4181   3.642   2.845   4.240  2.8682  0.3143  0.9841
   33DOPE   C29 4182   3.727   2.807   4.425 -0.2206  0.0003  0.1400
   33DOPE   H9R 4183   3.791   2.894   4.404  0.9177 -0.5382  1.2372
   33DOPE  C210 4184   3.740   2.744   4.543 -0.2814  0.0940 -0.0330
   33DOPE  H10R 4185   3.792   2.790   4.628 -1.0311 -0.9758  1.0477
   33DOPE  C211 4186   3.689   2.605   4.571  0.5839  0.1200  0.0561
   33DOPE  H11R 4187   3.767   2.526   4.560 -1.3584 -1.8782 -0.0637
   33DOPE  H11S 4188   3.608   2.579   4.499  0.2933 -1.0207  0.7684
   33DOPE  C212 4189   3.646   2.597   4.719  0.0070  0.1693  0.1887
   33DOPE  H12R 4190   3.737   2.625   4.777 -0.2248  1.9156 -0.2287
   33DOPE  H12S 4191   3.633   2.490   4.747  1.2979 -0.7485 -2.3920
   33DOPE  C213 4192   3.518   2.681   4.747 -0.5737 -0.6594  0.2213
   33DOPE  H13R 4193   3.423   2.643   4.704 -0.9456 -0.1394  0.5504
   33DOPE  H13S 4194   3.531   2.789   4.723 -1.2324 -0.5028  0.5330
   33DOPE  C214 4195   3.507   2.674   4.903  0.1960  0.4999  1.0142
   33DOPE  H14R 4196   3.509   2.569   4.939 -0.9481 -0.0448 -0.3952
   33DOPE  H14S 4197   3.404   2.702   4.933  0.1073  1.4149 -0.0840
   33DOPE  C215 4198   3.607   2.757   4.991  0.0007  0.0033  0.6635
   33DOPE  H15R 4199   3.713   2.731   4.975  0.3642  1.5358  0.3557
   33DOPE  H15S 4200   3.579   2.745   5.098 -1.0989 -1.5642  0.2295
   33DOPE  C216 4201   3.604   2.909   4.939 -0.1962 -1.2106  0.0518
   33DOPE  H16R 4202   3.498   2.930   4.916  0.3765 -1.7322 -3.6592
   33DOPE  H16S 4203   3.656   2.914   4.841  1.5630  0.0600  0.9891
   33DOPE  C217 4204   3.679   3.012   5.030  0.3655 -0.2117 -1.0595
   33DOPE  H17R 4205   3.787   2.988   5.037  0.6230  1.1343  0.1182
   33DOPE  H17S 4206   3.651   3.000   5.137 -1.5655 -2.1047 -1.7173
   33DOPE  C218 4207   3.657   3.156   4.996  0.5054  0.0080 -0.1704
   33DOPE  H18R 4208   3.670   3.171   4.887 -1.9913  0.4812 -0.4718
   33DOPE  H18S 4209   3.727   3.213   5.061  0.7436 -0.2070 -0.2378
   33DOPE  H18T 4210   3.553   3.190   5.019  0.1869  0.1252 -1.6955
   33DOPE   C33 4211   3.117   2.429   3.719 -0.2934  0.4123 -0.0228
   33DOPE   H3X 4212   3.023   2.488   3.725 -0.2621  0.4668 -0.0759
   33DOPE   H3Y 4213   3.198   2.498   3.750 -1.5769  1.6837  0.5866
   33DOPE   C34 4214   3.110   2.317   3.824  0.5894  0.4827 -0.2681
   33DOPE   H4X 4215   3.019   2.259   3.799 -0.3307  2.1656 -1.0036
   33DOPE   H4Y 4216   3.200   2.253   3.813  0.4387  0.2630 -0.2198
   33DOPE   C35 4217   3.094   2.364   3.966 -0.4586 -0.5538 -0.1118
   33DOPE   H5X 4218   3.174   2.436   3.995 -0.0483 -1.1251  0.1896
   33DOPE   H5Y 4219   3.128   2.272   4.018  1.4255 -0.3005 -0.8089
   33DOPE   C36 4220   2.954   2.405   4.013 -0.6153 -0.0374  0.7939
   33DOPE   H6X 4221   2.901   2.307   4.011  1.5730 -1.2691 -0.9123
   33DOPE   H6Y 4222   2.903   2.467   3.937 -1.4288 -1.3033  0.2605
   33DOPE   C37 4223   2.954   2.465   4.153 -0.5608  0.0438  0.1554
   33DOPE   H7X 4224   3.009   2.562   4.150  3.2174 -1.8894 -3.2657
   33DOPE   H7Y 4225   2.850   2.481   4.188 -0.3675  2.3957 -0.1946
   33DOPE   C38 4226   3.026   2.390   4.268  0.5373  0.7310 -0.7269
   33DOPE   H8X 4227   3.040   2.462   4.352  1.9705  0.4109 -0.6614
   33DOPE   H8Y 4228   3.132   2.376   4.236 -0.3058  0.9877 -4.0535
   33DOPE   C39 4229   2.962   2.264   4.309  0.3560  0.0479 -0.1946
   33DOPE   H9X 4230   2.947   2.193   4.226 -0.7989 -0.6449  0.5842
   33DOPE  C310 4231   2.920   2.225   4.432  0.0389 -0.2803 -0.4795
   33DOPE  H10X 4232   2.865   2.131   4.445  0.3611 -0.5139 -0.7820
   33DOPE  C311 4233   2.924   2.300   4.561  0.3667  0.0369  0.8120
   33DOPE  H11X 4234   2.880   2.402   4.561  0.4540  0.0759  0.5263
   33DOPE  H11Y 4235   2.878   2.242   4.644  2.8166 -1.0283  1.5528
   33DOPE  C312 4236   3.076   2.304   4.606 -0.1995 -0.3443  1.4089
   33DOPE  H12X 4237   3.135   2.330   4.515 -1.2147 -1.8283  0.2802
   33DOPE  H12Y 4238   3.111   2.206   4.643  2.0531 -0.2778 -0.2529
   33DOPE  C313 4239   3.105   2.423   4.705  0.3374 -0.0886  0.0224
   33DOPE  H13X 4240   3.205   2.466   4.687 -0.7606  1.9805 -1.5214
   33DOPE  H13Y 4241   3.037   2.507   4.678  1.0326  1.4938  2.8091
   33DOPE  C314 4242   3.104   2.388   4.849  0.3075  0.9537 -0.0962
   33DOPE  H14X 4243   3.174   2.305   4.876  0.0265 -0.1665 -2.5518
   33DOPE  H14Y 4244   3.006   2.343   4.878  0.5843 -0.9452 -1.8226
   33DOPE  C315 4245   3.143   2.498   4.943  0.7981  0.0757 -0.5802
   33DOPE  H15X 4246   3.079   2.588   4.931  1.0447  0.5984  1.6119
   33DOPE  H15Y 4247   3.248   2.531   4.928  0.2503  2.9793  1.1821
   33DOPE  C316 4248   3.149   2.469   5.100  0.4000  0.0148  0.2794
   33DOPE  H16X 4249   3.046   2.441   5.132  0.5647 -0.1546  0.6705
   33DOPE  H16Y 4250   3.168   2.562   5.158  1.3398  1.5462 -2.3070
   33DOPE  C317 4251   3.260   2.360   5.129 -0.2493  0.1205  0.1541
   33DOPE  H17X 4252   3.239   2.266   5.073  0.1232  0.6843 -0.9658
   33DOPE  H17Y 4253   3.357   2.406   5.102 -0.3836  0.8820  0.9204
   33DOPE  C318 4254   3.257   2.341   5.277 -0.0459  0.5783 -0.2288
   33DOPE  H18X 4255   3.321   2.253   5.300  1.5378  1.0810 -2.3695
   33DOPE  H18Y 4256   3.294   2.431   5.330  0.5345  1.1249 -1.5135
   33DOPE  H18Z 4257   3.155   2.311   5.307  0.0150  0.1745 -0.4137
   34DOPE     N 4258   2.722   4.337   2.810  0.3868 -0.4207  0.1851
   34DOPE   HN1 4259   2.621   4.325   2.787  0.1158  0.6949  0.6977
   34DOPE   HN2 4260   2.750   4.405   2.736 -2.2210  0.2048 -0.3180
   34DOPE   HN3 4261   2.777   4.249   2.805 -0.8560 -1.1339 -1.5690
   34DOPE   C12 4262   2.737   4.401   2.942  0.7561 -0.6124  0.9534
   34DOPE  H12A 4263   2.787   4.499   2.926 -1.5404  0.5861  0.7163
   34DOPE  H12B 4264   2.800   4.328   2.997 -1.1521 -4.7127 -1.7614
   34DOPE   C11 4265   2.594   4.436   3.002 -0.9736  0.6509  0.1390
   34DOPE  H11A 4266   2.564   4.534   2.959  1.0134  1.6699  0.9617
   34DOPE  H11B 4267   2.605   4.454   3.111 -2.3050 -0.4033  0.4853
   34DOPE     P 4268   2.353   4.343   2.995 -0.1420 -0.0499 -0.0697
   34DOPE   O13 4269   2.293   4.205   2.982 -0.2519  0.2716 -0.3200
   34DOPE   O14 4270   2.293   4.456   2.918  0.8412  0.7900  0.2394
   34DOPE   O11 4271   2.365   4.374   3.157  0.1007 -0.0347 -0.3717
   34DOPE   O12 4272   2.508   4.322   2.971  0.0958  0.8048  0.4914
   34DOPE    C1 4273   2.408   4.264   3.238 -0.0299  0.0404 -0.5469
   34DOPE    HA 4274   2.509   4.229   3.208  0.1314 -0.0195  0.0511
   34DOPE    HB 4275   2.338   4.178   3.227 -0.1823  0.1253 -0.2514
   34DOPE    C2 4276   2.407   4.316   3.388  0.0911  0.3135  0.0759
   34DOPE    HS 4277   2.309   4.353   3.424  1.0044  1.6489  1.3105
   34DOPE   O21 4278   2.514   4.414   3.409  0.2453  0.8947  0.4897
   34DOPE   C21 4279   2.476   4.522   3.479 -0.5149 -0.9670  0.0142
   34DOPE   O22 4280   2.363   4.549   3.515  0.4173  0.0893 -0.1080
   34DOPE   C22 4281   2.601   4.607   3.505  0.3100  0.9701  0.2217
   34DOPE   H2R 4282   2.565   4.710   3.529 -1.3128  0.4975 -0.0228
   34DOPE   H2S 4283   2.665   4.603   3.414 -1.1890 -4.5140 -0.9777
   34DOPE    C3 4284   2.441   4.193   3.471 -0.3135 -0.5232 -0.3401
   34DOPE    HX 4285   2.536   4.155   3.426  0.2712  1.0350 -0.5049
   34DOPE    HY 4286   2.368   4.111   3.456 -0.2038 -0.5927 -0.5035
   34DOPE   O31 4287   2.460   4.220   3.615 -0.8868 -0.0435  0.7205
   34DOPE   C31 4288   2.348   4.206   3.686  0.3759  0.0317 -0.4966
   34DOPE   O32 4289   2.244   4.153   3.643  0.3973 -0.0946  0.7024
   34DOPE   C32 4290   2.367   4.265   3.830 -0.3334  0.0700  0.0448
   34DOPE   H2X 4291   2.473   4.288   3.855 -0.7777  0.7956  1.3721
   34DOPE   H2Y 4292   2.317   4.364   3.835 -0.4513  0.0510 -0.6784
   34DOPE   C23 4293   2.692   4.558   3.619  0.0430  0.4753 -0.1622
   34DOPE   H3R 4294   2.783   4.622   3.620  0.2630  0.1699  0.9964
   34DOPE   H3S 4295   2.716   4.450   3.605 -0.3012  0.1656  1.4281
   34DOPE   C24 4296   2.629   4.565   3.753  0.5603 -0.1135  0.2402
   34DOPE   H4R 4297   2.546   4.491   3.760 -0.7363  1.1149 -1.2479
   34DOPE   H4S 4298   2.583   4.665   3.763 -0.7278 -0.7686  1.3742
   34DOPE   C25 4299   2.732   4.554   3.867  0.5479  0.2409 -0.1435
   34DOPE   H5R 4300   2.809   4.630   3.842 -2.1761  2.0410 -3.9916
   34DOPE   H5S 4301   2.776   4.452   3.861  1.3776  0.6416 -1.1812
   34DOPE   C26 4302   2.693   4.583   4.011  0.3496 -0.2534  0.7249
   34DOPE   H6R 4303   2.697   4.693   4.022 -1.0020 -0.1033 -0.0809
   34DOPE   H6S 4304   2.770   4.547   4.083  1.0267 -0.6519 -0.1753
   34DOPE   C27 4305   2.555   4.539   4.056  0.2188  0.3162  0.3833
   34DOPE   H7R 4306   2.538   4.430   4.044  2.2367  0.2190 -2.7557
   34DOPE   H7S 4307   2.475   4.589   3.998  0.6846  1.4434  0.6816
   34DOPE   C28 4308   2.528   4.579   4.206 -0.1347  0.8975  0.5160
   34DOPE   H8R 4309   2.418   4.562   4.210  0.0931 -0.5583  1.3907
   34DOPE   H8S 4310   2.549   4.688   4.209  2.2735  0.4524  1.5988
   34DOPE   C29 4311   2.599   4.489   4.309 -0.6242 -0.1810  0.0121
   34DOPE   H9R 4312   2.614   4.381   4.291  0.9191  0.1297 -0.7765
   34DOPE  C210 4313   2.634   4.540   4.430  0.2339  0.0612  0.2024
   34DOPE  H10R 4314   2.678   4.471   4.503 -0.5647 -1.4312 -0.6770
   34DOPE  C211 4315   2.609   4.678   4.486 -0.3148  0.4959  0.0690
   34DOPE  H11R 4316   2.517   4.672   4.548 -0.5958 -1.6219 -0.4586
   34DOPE  H11S 4317   2.598   4.754   4.406  1.8618 -0.5770 -1.3702
   34DOPE  C212 4318   2.730   4.722   4.572  0.1453 -1.1322 -0.1549
   34DOPE  H12R 4319   2.809   4.738   4.496 -1.5737  1.1829 -1.5859
   34DOPE  H12S 4320   2.761   4.644   4.645  0.8950 -1.5607 -0.9099
   34DOPE  C213 4321   2.704   4.851   4.643 -0.0118  0.3368  0.3176
   34DOPE  H13R 4322   2.660   4.926   4.575  1.1699 -0.1370 -1.0302
   34DOPE  H13S 4323   2.800   4.899   4.672  0.3200  0.3647 -0.8000
   34DOPE  C214 4324   2.631   4.840   4.782  1.0713 -1.0964 -0.3670
   34DOPE  H14R 4325   2.670   4.758   4.846  1.7359 -0.1941  0.4142
   34DOPE  H14S 4326   2.528   4.800   4.769  1.0569 -1.7593  1.5834
   34DOPE  C215 4327   2.616   4.975   4.855 -0.3317  0.2220  0.0603
   34DOPE  H15R 4328   2.555   5.045   4.793  0.0823  2.0521  1.6226
   34DOPE  H15S 4329   2.716   5.018   4.877  0.2324 -0.3610 -1.2411
   34DOPE  C216 4330   2.552   4.962   4.995  0.3010  0.3079  1.2408
   34DOPE  H16R 4331   2.601   4.876   5.046  1.2145 -0.0075 -0.1113
   34DOPE  H16S 4332   2.446   4.935   4.976  0.0565  1.4711  0.9036
   34DOPE  C217 4333   2.560   5.090   5.078  0.5228 -0.0223  0.0140
   34DOPE  H17R 4334   2.505   5.174   5.031 -0.4313 -2.0753 -2.8199
   34DOPE  H17S 4335   2.662   5.118   5.112  0.2822  0.3833  0.4120
   34DOPE  C218 4336   2.478   5.062   5.201 -0.1854  0.1444 -0.6703
   34DOPE  H18R 4337   2.551   5.017   5.272 -1.3184  1.0631  1.1875
   34DOPE  H18S 4338   2.383   5.005   5.190  0.1981 -0.9877  1.3247
   34DOPE  H18T 4339   2.445   5.158   5.248  1.4260 -0.7636  2.6786
   34DOPE   C33 4340   2.316   4.162   3.925 -0.3358  0.3954  0.1780
   34DOPE   H3X 4341   2.376   4.070   3.908  0.5628  1.2124 -1.4080
   34DOPE   H3Y 4342   2.212   4.130   3.902  0.9307 -3.7531 -0.4531
   34DOPE   C34 4343   2.334   4.202   4.066  1.6498 -0.2473 -0.6086
   34DOPE   H4X 4344   2.442   4.214   4.089  1.3238  0.3919  0.7231
   34DOPE   H4Y 4345   2.282   4.299   4.082 -0.3907 -1.5634  1.4066
   34DOPE   C35 4346   2.262   4.115   4.174  0.0628 -0.1452 -0.3120
   34DOPE   H5X 4347   2.304   4.012   4.171  1.1898  0.3352 -1.6555
   34DOPE   H5Y 4348   2.152   4.114   4.153 -0.2532 -2.3084  1.1161
   34DOPE   C36 4349   2.281   4.166   4.318  0.1889  0.0426 -0.1195
   34DOPE   H6X 4350   2.242   4.270   4.325 -2.3950 -0.8144 -0.6999
   34DOPE   H6Y 4351   2.389   4.163   4.344  0.5737 -0.6965 -1.6636
   34DOPE   C37 4352   2.198   4.080   4.413  0.0467 -0.0215  0.1782
   34DOPE   H7X 4353   2.092   4.114   4.409  0.6272  1.7787 -1.6247
   34DOPE   H7Y 4354   2.194   3.974   4.383  2.0136  0.2777 -1.2701
   34DOPE   C38 4355   2.245   4.099   4.561 -0.2478  0.8352  0.3500
   34DOPE   H8X 4356   2.356   4.093   4.555 -0.1480  2.5664 -0.0549
   34DOPE   H8Y 4357   2.224   4.006   4.617  3.5384  0.7354  1.9152
   34DOPE   C39 4358   2.189   4.226   4.624  0.3151 -0.0105  0.1734
   34DOPE   H9X 4359   2.099   4.262   4.572  0.1454  0.2390  0.6326
   34DOPE  C310 4360   2.252   4.301   4.712 -0.0311 -0.1550 -0.1366
   34DOPE  H10X 4361   2.211   4.391   4.761  0.9081  0.5380 -0.5733
   34DOPE  C311 4362   2.393   4.281   4.770 -1.0769  0.2018 -0.0722
   34DOPE  H11X 4363   2.406   4.236   4.871  0.1767  3.0262  1.1341
   34DOPE  H11Y 4364   2.456   4.211   4.710 -0.4016  0.0712  0.7746
   34DOPE  C312 4365   2.461   4.418   4.773  0.6139  0.1872 -0.6233
   34DOPE  H12X 4366   2.405   4.473   4.851  0.4793 -1.1345  0.2304
   34DOPE  H12Y 4367   2.454   4.464   4.672 -1.2212  1.1392 -0.1043
   34DOPE  C313 4368   2.605   4.423   4.824 -0.1964 -0.5912  0.5074
   34DOPE  H13X 4369   2.639   4.522   4.786 -2.2049 -0.3891 -0.9318
   34DOPE  H13Y 4370   2.613   4.412   4.934 -0.4464 -0.3409  0.5526
   34DOPE  C314 4371   2.705   4.318   4.773 -0.4734 -0.3587  0.4429
   34DOPE  H14X 4372   2.687   4.301   4.665 -0.1042  0.6224  0.2103
   34DOPE  H14Y 4373   2.689   4.227   4.834  1.2114 -0.2949  1.0476
   34DOPE  C315 4374   2.846   4.368   4.806 -0.4183  0.8663 -0.0248
   34DOPE  H15X 4375   2.866   4.472   4.772  3.1784  1.3115  2.8514
   34DOPE  H15Y 4376   2.920   4.303   4.754 -3.2967 -1.3742 -1.6760
   34DOPE  C316 4377   2.880   4.358   4.957  0.5163 -0.3245  0.2854
   34DOPE  H16X 4378   2.853   4.256   4.994 -0.9309 -1.2183 -2.8391
   34DOPE  H16Y 4379   2.831   4.441   5.011  2.7613  2.0833 -1.1555
   34DOPE  C317 4380   3.030   4.388   4.986 -0.5552  0.3785 -0.7365
   34DOPE  H17X 4381   3.097   4.307   4.948  0.4483  0.6514  0.4013
   34DOPE  H17Y 4382   3.062   4.478   4.930 -1.8867  1.0532 -0.4495
   34DOPE  C318 4383   3.075   4.393   5.130 -0.2735  0.4134 -0.3645
   34DOPE  H18X 4384   3.013   4.467   5.185 -1.3643 -1.2310  0.7264
   34DOPE  H18Y 4385   3.073   4.291   5.173  2.0066  1.1817  1.8303
   34DOPE  H18Z 4386   3.181   4.424   5.141  0.0249 -0.5276 -0.5000
   35DOPE     N 4387   6.680   1.778   2.955 -0.2914 -0.0138  0.0351
   35DOPE   HN1 4388   6.762   1.731   3.000  0.7594  0.6264 -1.1367
   35DOPE   HN2 4389   6.604   1.708   2.943  0.7541 -0.8011 -2.8576
   35DOPE   HN3 4390   6.723   1.795   2.862 -1.1069 -2.4503 -0.8589
   35DOPE   C12 4391   6.634   1.903   3.028  0.2361  0.5061  0.0662
   35DOPE  H12A 4392   6.692   1.988   2.987 -1.6005  1.7184 -0.1194
   35DOPE  H12B 4393   6.665   1.875   3.131 -2.0083 -0.9208  0.4315
   35DOPE   C11 4394   6.481   1.905   3.027  0.3659  0.6150 -0.5123
   35DOPE  H11A 4395   6.433   1.976   3.098  0.1613  1.7198 -1.7135
   35DOPE  H11B 4396   6.452   1.799   3.043  0.6156  0.5878 -0.2399
   35DOPE     P 4397   6.382   2.085   2.865 -0.1984  0.1899 -0.2617
   35DOPE   O13 4398   6.239   2.091   2.902  0.0871  0.2193 -0.0059
   35DOPE   O14 4399   6.422   2.113   2.719 -0.5694 -0.2506  0.5123
   35DOPE   O11 4400   6.473   2.178   2.961  1.2322 -0.4559 -0.0643
   35DOPE   O12 4401   6.439   1.939   2.897 -0.0325 -0.2746 -0.6578
   35DOPE    C1 4402   6.464   2.323   2.965  0.3231  0.3725 -0.4596
   35DOPE    HA 4403   6.375   2.358   2.909  0.2103  0.9463  0.0675
   35DOPE    HB 4404   6.558   2.360   2.918  1.9921 -1.0533  1.5815
   35DOPE    C2 4405   6.439   2.376   3.105  0.3547 -0.4820  0.4570
   35DOPE    HS 4406   6.447   2.487   3.098 -0.6332 -0.5042 -1.7032
   35DOPE   O21 4407   6.524   2.316   3.198  0.1964 -0.4058  0.2904
   35DOPE   C21 4408   6.657   2.310   3.180 -0.7142 -0.4546 -0.1107
   35DOPE   O22 4409   6.725   2.371   3.097  0.4729  0.1499 -0.3209
   35DOPE   C22 4410   6.719   2.198   3.261 -0.2387 -0.1925 -0.2224
   35DOPE   H2R 4411   6.826   2.221   3.276 -1.1300  3.0172  2.4033
   35DOPE   H2S 4412   6.699   2.104   3.205 -0.2731  0.2851 -1.0197
   35DOPE    C3 4413   6.293   2.339   3.152 -1.4350 -0.2956  0.9781
   35DOPE    HX 4414   6.287   2.229   3.133  2.4792 -0.0074 -4.5102
   35DOPE    HY 4415   6.231   2.383   3.071  1.5122 -0.3191 -1.4681
   35DOPE   O31 4416   6.258   2.397   3.272 -0.6304 -0.1711 -0.7711
   35DOPE   C31 4417   6.143   2.334   3.322 -0.1655 -0.2848 -0.0083
   35DOPE   O32 4418   6.084   2.244   3.263 -0.7237  0.1009  0.0217
   35DOPE   C32 4419   6.088   2.397   3.450  0.0470 -0.5116 -0.7144
   35DOPE   H2X 4420   6.175   2.399   3.520  1.6072  2.3845 -2.5450
   35DOPE   H2Y 4421   6.049   2.498   3.425 -0.3503 -0.4098  0.2475
   35DOPE   C23 4422   6.643   2.193   3.400 -0.3132  0.7606  1.4764
   35DOPE   H3R 4423   6.544   2.143   3.397  1.0591 -2.1671  0.2185
   35DOPE   H3S 4424   6.638   2.296   3.440  2.0909  1.0566  1.1593
   35DOPE   C24 4425   6.725   2.120   3.500 -0.2280  0.5261  0.3274
   35DOPE   H4R 4426   6.827   2.161   3.519 -0.5316  0.1889  3.2196
   35DOPE   H4S 4427   6.740   2.014   3.471 -0.1858  0.6580 -0.1296
   35DOPE   C25 4428   6.650   2.119   3.636  0.1372  0.9598 -0.7232
   35DOPE   H5R 4429   6.548   2.077   3.621  0.6629 -1.2413  1.1577
   35DOPE   H5S 4430   6.636   2.219   3.683 -3.1911 -0.1398  1.0350
   35DOPE   C26 4431   6.720   2.032   3.743 -0.4047  0.9162 -0.3526
   35DOPE   H6R 4432   6.824   2.071   3.744  1.2348 -3.0490 -1.2356
   35DOPE   H6S 4433   6.729   1.926   3.714 -0.2770  1.3134 -1.8634
   35DOPE   C27 4434   6.643   2.039   3.876  0.2296 -0.1563 -0.0018
   35DOPE   H7R 4435   6.536   2.015   3.857  0.5301 -2.4053  0.8538
   35DOPE   H7S 4436   6.633   2.143   3.913  1.0252  0.5316 -1.6209
   35DOPE   C28 4437   6.705   1.950   3.984  0.2210 -0.1846 -0.2685
   35DOPE   H8R 4438   6.710   1.841   3.964 -0.7861 -0.7094  1.9807
   35DOPE   H8S 4439   6.628   1.944   4.064  0.6288  0.5678  0.1949
   35DOPE   C29 4440   6.840   2.004   4.039 -0.1306  0.1504 -0.1164
   35DOPE   H9R 4441   6.921   2.000   3.965  1.1088  2.1814  1.0305
   35DOPE  C210 4442   6.877   2.038   4.162  0.0141 -0.1268  0.0263
   35DOPE  H10R 4443   6.978   2.080   4.173  0.0116 -0.6417  3.2564
   35DOPE  C211 4444   6.803   2.032   4.290  0.2003 -0.2710  0.3374
   35DOPE  H11R 4445   6.825   1.937   4.343  1.2365 -2.0162 -2.9036
   35DOPE  H11S 4446   6.694   2.023   4.269 -0.2953 -2.0783  3.1213
   35DOPE  C212 4447   6.834   2.156   4.379  0.8495 -0.5278 -0.3919
   35DOPE  H12R 4448   6.817   2.251   4.322 -1.2515 -1.0353 -0.7149
   35DOPE  H12S 4449   6.940   2.149   4.412  0.7922  0.4342  0.0405
   35DOPE  C213 4450   6.759   2.165   4.517 -0.0232 -1.1331 -0.6467
   35DOPE  H13R 4451   6.784   2.069   4.567  1.9115 -0.5535 -0.4210
   35DOPE  H13S 4452   6.652   2.158   4.489  0.0706 -0.2816 -1.2453
   35DOPE  C214 4453   6.801   2.292   4.602 -0.1158 -0.1642 -0.0110
   35DOPE  H14R 4454   6.776   2.385   4.547  0.8025 -0.6441 -1.2864
   35DOPE  H14S 4455   6.912   2.291   4.604 -0.1184  0.2139  0.8776
   35DOPE  C215 4456   6.760   2.294   4.747  1.2937 -0.1412  0.1216
   35DOPE  H15R 4457   6.785   2.202   4.803 -0.0272 -0.2263  0.6000
   35DOPE  H15S 4458   6.652   2.317   4.754  1.6116  1.2536  0.7343
   35DOPE  C216 4459   6.820   2.415   4.826 -0.2662  0.6502  0.5881
   35DOPE  H16R 4460   6.806   2.509   4.769  1.9783  0.8743  0.2986
   35DOPE  H16S 4461   6.930   2.401   4.837 -0.3273 -1.4677 -1.0481
   35DOPE  C217 4462   6.765   2.437   4.963  0.1693 -0.1249 -0.2018
   35DOPE  H17R 4463   6.821   2.516   5.018  0.0816  0.6272 -1.1619
   35DOPE  H17S 4464   6.780   2.341   5.017  0.2421  0.1970  0.3591
   35DOPE  C218 4465   6.617   2.476   4.979 -0.2244 -0.6187  0.4342
   35DOPE  H18R 4466   6.555   2.385   4.961 -1.8094  0.8018 -1.7608
   35DOPE  H18S 4467   6.564   2.547   4.912 -1.3939 -0.8531  1.0684
   35DOPE  H18T 4468   6.590   2.513   5.080 -0.0943  0.2931  0.1444
   35DOPE   C33 4469   5.980   2.312   3.514  0.2143 -0.4411  0.0394
   35DOPE   H3X 4470   6.030   2.215   3.534 -1.3693 -1.8114 -2.2458
   35DOPE   H3Y 4471   5.901   2.281   3.442 -0.7504 -0.1502  0.9505
   35DOPE   C34 4472   5.912   2.374   3.634 -0.0208  0.1935 -0.0404
   35DOPE   H4X 4473   5.905   2.484   3.621 -0.0202  0.4577  1.9852
   35DOPE   H4Y 4474   5.811   2.333   3.654 -0.1783  0.5217 -0.1517
   35DOPE   C35 4475   5.995   2.360   3.763 -0.2919  0.8444 -0.3559
   35DOPE   H5X 4476   6.097   2.399   3.743 -0.0568  0.7814  0.6459
   35DOPE   H5Y 4477   6.006   2.251   3.782 -1.7647  1.0698  2.2720
   35DOPE   C36 4478   5.934   2.429   3.881  0.0843  0.0280 -0.3885
   35DOPE   H6X 4479   5.833   2.388   3.902  1.0531 -1.4399  1.7795
   35DOPE   H6Y 4480   5.944   2.538   3.866  0.0385  0.1584  0.4622
   35DOPE   C37 4481   6.013   2.407   4.007  0.0804 -0.3861 -0.2287
   35DOPE   H7X 4482   6.013   2.299   4.033 -1.2330 -1.1651 -3.0793
   35DOPE   H7Y 4483   6.115   2.440   3.980  0.7864 -0.3156  2.2693
   35DOPE   C38 4484   5.969   2.509   4.121  0.4033  0.0764  0.0241
   35DOPE   H8X 4485   5.957   2.610   4.076 -1.2597  0.0697  0.3878
   35DOPE   H8Y 4486   6.052   2.514   4.194 -0.6702 -0.6834  1.3337
   35DOPE   C39 4487   5.836   2.472   4.190  0.0026  0.3838 -0.0726
   35DOPE   H9X 4488   5.761   2.426   4.124 -3.0091  1.9659  1.9909
   35DOPE  C310 4489   5.810   2.479   4.325  0.1117 -0.0296  0.2333
   35DOPE  H10X 4490   5.713   2.441   4.360  1.2119 -2.0309  1.2747
   35DOPE  C311 4491   5.912   2.529   4.430  0.5067 -0.5729  0.1290
   35DOPE  H11X 4492   6.016   2.498   4.409  0.4790 -0.2732 -0.4843
   35DOPE  H11Y 4493   5.916   2.639   4.417  0.1278 -0.6101 -0.3573
   35DOPE  C312 4494   5.882   2.494   4.570  0.8280 -0.1413  0.1468
   35DOPE  H12X 4495   5.876   2.384   4.584 -1.2161 -0.0272  0.5855
   35DOPE  H12Y 4496   5.779   2.511   4.608  0.8903 -4.6360  3.0639
   35DOPE  C313 4497   5.971   2.549   4.675 -0.2714 -0.0823  0.6922
   35DOPE  H13X 4498   6.065   2.490   4.682  0.9061  1.7183  0.6071
   35DOPE  H13Y 4499   5.989   2.655   4.648 -1.9273 -0.4122 -2.1049
   35DOPE  C314 4500   5.926   2.537   4.820 -0.1209  0.2162  0.0830
   35DOPE  H14X 4501   5.920   2.429   4.848 -0.4730 -0.3551 -2.0083
   35DOPE  H14Y 4502   5.822   2.573   4.834 -0.4033 -0.7645  0.5744
   35DOPE  C315 4503   6.016   2.613   4.920  1.2254  0.3348  0.0050
   35DOPE  H15X 4504   6.120   2.576   4.913  1.1656  0.0083  0.7086
   35DOPE  H15Y 4505   5.987   2.589   5.025 -0.0604 -0.4583 -0.5045
   35DOPE  C316 4506   5.993   2.765   4.901  0.2758 -0.0109 -0.5119
   35DOPE  H16X 4507   5.888   2.793   4.924  0.6883 -0.3861  2.2236
   35DOPE  H16Y 4508   6.011   2.808   4.800  1.4524  0.9511  0.0732
   35DOPE  C317 4509   6.069   2.842   5.005  0.2483 -0.3673  0.4655
   35DOPE  H17X 4510   6.066   2.792   5.104  1.0959 -1.1101  0.1270
   35DOPE  H17Y 4511   6.176   2.835   4.978  0.2909  0.3520  0.4182
   35DOPE  C318 4512   6.038   2.992   5.030  0.2832 -0.1205  0.6485
   35DOPE  H18X 4513   6.017   3.033   4.929  2.0497 -1.1303 -0.1788
   35DOPE  H18Y 4514   5.954   3.014   5.099 -0.5954 -0.1639 -0.3718
   35DOPE  H18Z 4515   6.129   3.039   5.072  0.3278  0.2561  0.1392
   36DOPE     N 4516   7.435   5.760   2.862  0.2675 -0.3533 -0.3503
   36DOPE   HN1 4517   7.415   5.839   2.798 -0.3585 -0.6591 -0.5451
   36DOPE   HN2 4518   7.401   5.793   2.954  3.2515 -0.8239  1.0104
   36DOPE   HN3 4519   7.534   5.729   2.862 -0.4209 -2.7859 -1.3068
   36DOPE   C12 4520   7.356   5.645   2.797  0.7401 -0.3751 -0.1885
   36DOPE  H12A 4521   7.323   5.568   2.870 -3.3461  1.0184 -0.3193
   36DOPE  H12B 4522   7.414   5.600   2.713  0.2242 -2.0253  0.2934
   36DOPE   C11 4523   7.221   5.694   2.743 -0.1787  0.4641  0.1112
   36DOPE  H11A 4524   7.170   5.617   2.683 -1.3101  2.4369 -1.6064
   36DOPE  H11B 4525   7.231   5.781   2.674  0.1686  1.3849  1.2801
   36DOPE     P 4526   7.024   5.855   2.828 -0.0180  0.2849  0.0661
   36DOPE   O13 4527   7.088   5.967   2.757 -0.2229  0.1282  0.0127
   36DOPE   O14 4528   6.954   5.884   2.957 -0.1224  0.0981  0.5269
   36DOPE   O11 4529   6.926   5.783   2.730  0.1090  0.3398  0.4070
   36DOPE   O12 4530   7.139   5.742   2.855  0.3265 -0.3082  0.2566
   36DOPE    C1 4531   6.845   5.665   2.773 -0.0651 -0.0603 -0.4108
   36DOPE    HA 4532   6.899   5.597   2.841 -0.2168 -0.7365 -0.9605
   36DOPE    HB 4533   6.837   5.605   2.680  0.8483 -3.3268  1.4574
   36DOPE    C2 4534   6.712   5.698   2.837  0.7744 -0.2242  0.6538
   36DOPE    HS 4535   6.722   5.777   2.915 -0.1579  0.6529 -0.0779
   36DOPE   O21 4536   6.646   5.579   2.887 -0.7499 -0.6505  0.5662
   36DOPE   C21 4537   6.695   5.541   3.005 -0.2320 -0.6843 -0.2061
   36DOPE   O22 4538   6.774   5.602   3.079 -0.2719  0.2846 -0.0199
   36DOPE   C22 4539   6.622   5.403   3.031 -0.2774 -0.5641  0.0780
   36DOPE   H2R 4540   6.630   5.331   2.946  2.3300  1.2505 -1.3456
   36DOPE   H2S 4541   6.514   5.424   3.025 -0.3845 -1.4428 -1.8807
   36DOPE    C3 4542   6.617   5.763   2.739 -0.0285 -0.1067 -0.1797
   36DOPE    HX 4543   6.609   5.687   2.659 -1.8597  0.6341 -0.7472
   36DOPE    HY 4544   6.662   5.856   2.698 -0.6542  0.5719  0.6260
   36DOPE   O31 4545   6.494   5.793   2.803  0.1283 -0.3974 -0.0272
   36DOPE   C31 4546   6.414   5.861   2.717  0.1324 -1.1219 -0.0169
   36DOPE   O32 4547   6.438   5.891   2.601  0.2626 -0.2769 -0.1851
   36DOPE   C32 4548   6.288   5.893   2.800  0.1081 -0.2101  0.2078
   36DOPE   H2X 4549   6.217   5.951   2.737  0.1552  2.2199  2.2061
   36DOPE   H2Y 4550   6.242   5.799   2.838  0.3422 -0.3472  0.1506
   36DOPE   C23 4551   6.675   5.326   3.154  0.6498 -0.4264 -0.2638
   36DOPE   H3R 4552   6.644   5.374   3.249 -1.5029 -3.3656  0.6388
   36DOPE   H3S 4553   6.786   5.326   3.151  0.7136  2.0920 -0.1520
   36DOPE   C24 4554   6.622   5.183   3.151  0.7698  0.3159 -0.6132
   36DOPE   H4R 4555   6.683   5.142   3.067  1.6900  1.6445 -0.6341
   36DOPE   H4S 4556   6.515   5.190   3.125  0.0048  0.5110  2.2299
   36DOPE   C25 4557   6.639   5.100   3.278  0.0766  0.7857  0.1277
   36DOPE   H5R 4558   6.591   5.001   3.268 -1.3518  1.4179  0.4575
   36DOPE   H5S 4559   6.590   5.143   3.368 -0.2252 -2.0891  1.4408
   36DOPE   C26 4560   6.782   5.055   3.322 -0.1797 -0.2402 -0.6386
   36DOPE   H6R 4561   6.789   5.023   3.428 -0.3155  0.1258 -0.5140
   36DOPE   H6S 4562   6.860   5.133   3.311 -1.1596  0.6555 -1.5480
   36DOPE   C27 4563   6.837   4.945   3.233 -0.0118 -0.6516 -0.5258
   36DOPE   H7R 4564   6.855   4.985   3.131 -1.2054 -1.9504 -1.2853
   36DOPE   H7S 4565   6.755   4.871   3.220 -0.5086 -0.2464  0.2281
   36DOPE   C28 4566   6.965   4.870   3.284  1.0672 -0.4124  0.2505
   36DOPE   H8R 4567   6.971   4.775   3.227 -0.2110 -0.3273 -0.0601
   36DOPE   H8S 4568   6.950   4.835   3.389 -0.5524 -1.1459 -0.1814
   36DOPE   C29 4569   7.091   4.950   3.264  0.6410 -0.4721  0.5768
   36DOPE   H9R 4570   7.120   4.959   3.158  2.2206 -2.6529  0.7446
   36DOPE  C210 4571   7.159   5.027   3.355  0.4365 -0.9461 -0.2207
   36DOPE  H10R 4572   7.251   5.077   3.322  0.9138 -1.1549  0.7628
   36DOPE  C211 4573   7.119   5.042   3.500  0.6819 -0.2240  0.8416
   36DOPE  H11R 4574   7.009   5.047   3.516  0.5174  0.4496 -0.3308
   36DOPE  H11S 4575   7.155   5.138   3.544 -2.2534  1.8616 -0.8852
   36DOPE  C212 4576   7.159   4.922   3.588  0.7858 -0.0457  0.4402
   36DOPE  H12R 4577   7.266   4.916   3.614  0.7858  0.2877  0.5279
   36DOPE  H12S 4578   7.134   4.824   3.542  2.4523 -0.4895  0.4233
   36DOPE  C213 4579   7.079   4.902   3.719  0.4035 -0.0404  0.2872
   36DOPE  H13R 4580   7.077   4.795   3.747  1.4391 -0.1845 -0.1373
   36DOPE  H13S 4581   6.974   4.930   3.695  1.1384  0.8841 -2.1556
   36DOPE  C214 4582   7.137   4.978   3.835  0.2847  0.3420 -0.4853
   36DOPE  H14R 4583   7.225   4.921   3.872  0.9964  2.0883  0.6488
   36DOPE  H14S 4584   7.068   4.965   3.920  1.0248 -3.3802 -0.2941
   36DOPE  C215 4585   7.179   5.125   3.820  0.1580 -0.6220  0.4455
   36DOPE  H15R 4586   7.087   5.180   3.788  2.2279  2.5504 -0.4915
   36DOPE  H15S 4587   7.259   5.137   3.744  1.4074 -2.6549  1.3586
   36DOPE  C216 4588   7.223   5.177   3.964  0.0298 -0.2077  0.4149
   36DOPE  H16R 4589   7.312   5.118   3.992  0.4533 -0.0680 -0.6135
   36DOPE  H16S 4590   7.136   5.158   4.031 -0.5176 -0.9603 -0.4809
   36DOPE  C217 4591   7.260   5.329   3.962  0.6030  0.0118 -0.3745
   36DOPE  H17R 4592   7.184   5.374   3.895  2.2319  1.6605 -1.2251
   36DOPE  H17S 4593   7.358   5.334   3.909  2.0595  0.4365  2.2017
   36DOPE  C218 4594   7.276   5.395   4.098  0.5740  0.0834  0.5387
   36DOPE  H18R 4595   7.179   5.390   4.153  1.0112  0.0243  1.3134
   36DOPE  H18S 4596   7.297   5.504   4.092  0.7968  0.0760  1.1564
   36DOPE  H18T 4597   7.359   5.355   4.160 -0.1178 -4.3147 -0.9748
   36DOPE   C33 4598   6.315   5.987   2.925  0.1868  0.0278 -0.1571
   36DOPE   H3X 4599   6.245   6.073   2.919  0.2423  0.0181 -1.0597
   36DOPE   H3Y 4600   6.420   6.022   2.915  1.0451 -2.0158  1.1357
   36DOPE   C34 4601   6.293   5.923   3.060 -0.3383 -0.3538  0.0873
   36DOPE   H4X 4602   6.349   5.997   3.121  0.6590  1.5085 -2.8603
   36DOPE   H4Y 4603   6.192   5.900   3.100 -0.9384  0.2494 -1.0221
   36DOPE   C35 4604   6.380   5.798   3.079 -0.5727 -0.5064  0.3735
   36DOPE   H5X 4605   6.478   5.842   3.052 -1.5745  1.4535 -0.2690
   36DOPE   H5Y 4606   6.349   5.722   3.004 -0.7260 -0.0359 -0.0473
   36DOPE   C36 4607   6.363   5.759   3.221 -0.2918 -0.2274 -0.6033
   36DOPE   H6X 4608   6.257   5.744   3.251  0.1669  1.1814  1.9605
   36DOPE   H6Y 4609   6.399   5.846   3.280 -1.9105  0.2679 -0.2866
   36DOPE   C37 4610   6.446   5.635   3.254  0.9189 -0.3650 -0.3996
   36DOPE   H7X 4611   6.386   5.560   3.198 -1.9827  2.5159 -1.5372
   36DOPE   H7Y 4612   6.546   5.647   3.209  0.6606 -1.5343 -1.3299
   36DOPE   C38 4613   6.452   5.599   3.406  0.1936 -0.5222 -1.3752
   36DOPE   H8X 4614   6.493   5.681   3.469 -0.1661 -1.9889  0.8886
   36DOPE   H8Y 4615   6.525   5.515   3.408  1.2148  0.2922  1.6224
   36DOPE   C39 4616   6.321   5.551   3.469 -0.1085 -0.1910 -0.8353
   36DOPE   H9X 4617   6.241   5.620   3.498 -0.6227 -0.6319 -1.1890
   36DOPE  C310 4618   6.280   5.425   3.474  1.2769  0.5884  0.4066
   36DOPE  H10X 4619   6.183   5.412   3.524  1.4343 -1.3969  0.2630
   36DOPE  C311 4620   6.344   5.298   3.429  0.3468 -0.4675  0.1040
   36DOPE  H11X 4621   6.285   5.258   3.343 -1.5227  0.8668  0.7213
   36DOPE  H11Y 4622   6.451   5.309   3.399  0.1583  1.4363  0.0342
   36DOPE  C312 4623   6.347   5.181   3.527 -0.4924 -0.3334 -0.2197
   36DOPE  H12X 4624   6.374   5.090   3.468  0.8108  0.1525 -0.4201
   36DOPE  H12Y 4625   6.250   5.169   3.580 -0.5267 -2.6198 -0.6878
   36DOPE  C313 4626   6.471   5.195   3.622 -0.0354 -0.2962 -0.3059
   36DOPE  H13X 4627   6.557   5.250   3.577 -2.0733  2.3328 -1.2603
   36DOPE  H13Y 4628   6.433   5.254   3.708 -0.4195  2.3559 -2.1744
   36DOPE  C314 4629   6.530   5.059   3.667  0.8697 -0.0365 -0.3523
   36DOPE  H14X 4630   6.562   5.000   3.578 -1.5619  1.1504 -2.1452
   36DOPE  H14Y 4631   6.444   5.010   3.717  1.2775  1.3289  1.8075
   36DOPE  C315 4632   6.638   5.081   3.768 -0.0099  0.0771 -0.1058
   36DOPE  H15X 4633   6.599   5.166   3.827 -0.1666  0.1600 -0.3278
   36DOPE  H15Y 4634   6.730   5.130   3.728 -1.1942  1.2978 -1.4987
   36DOPE  C316 4635   6.660   4.949   3.846 -0.2981  0.8635 -0.6674
   36DOPE  H16X 4636   6.706   4.873   3.781 -1.0012 -1.0941  1.0185
   36DOPE  H16Y 4637   6.560   4.907   3.872  0.8830 -2.5418 -1.2930
   36DOPE  C317 4638   6.747   4.960   3.970  1.1006  0.3037 -0.5546
   36DOPE  H17X 4639   6.772   4.860   4.012 -1.0435 -0.8343 -1.8125
   36DOPE  H17Y 4640   6.838   5.017   3.942  0.4007  1.6101 -0.2163
   36DOPE  C318 4641   6.666   5.025   4.081  0.2091 -0.2554  0.6238
   36DOPE  H18X 4642   6.585   4.954   4.111 -0.0755  0.1788  0.8879
   36DOPE  H18Y 4643   6.737   5.036   4.166  2.2829  0.8513 -1.1732
   36DOPE  H18Z 4644   6.635   5.129   4.060 -0.7546 -0.7381 -0.4134
   37DOPE     N 4645   2.537   2.159   3.028 -0.3730 -0.4298 -0.0804
   37DOPE   HN1 4646   2.462   2.144   3.099 -1.1743  1.1091 -0.5680
   37DOPE   HN2 4647   2.486   2.140   2.939 -0.9957 -3.8036  0.8329
   37DOPE   HN3 4648   2.605   2.082   3.043  0.8570 -0.3209 -3.9310
   37DOPE   C12 4649   2.598   2.295   3.036  0.1902 -0.0642 -0.2666
   37DOPE  H12A 4650   2.636   2.311   2.932  1.7780  0.1373  0.3086
   37DOPE  H12B 4651   2.680   2.290   3.111  0.6216 -1.3314 -0.7891
   37DOPE   C11 4652   2.494   2.405   3.067 -0.3387  0.5417 -0.5694
   37DOPE  H11A 4653   2.536   2.508   3.074  1.2285 -0.1694  1.3095
   37DOPE  H11B 4654   2.447   2.379   3.164 -2.2034 -0.8519 -1.7830
   37DOPE     P 4655   2.244   2.441   2.988  0.2158  0.1265  0.2488
   37DOPE   O13 4656   2.181   2.310   2.976  0.2846  0.0167  0.2060
   37DOPE   O14 4657   2.213   2.547   2.887 -0.1967 -0.4710  0.1764
   37DOPE   O11 4658   2.243   2.497   3.139 -0.2365 -0.5019  0.5542
   37DOPE   O12 4659   2.390   2.404   2.969  0.3223  0.0072  0.2765
   37DOPE    C1 4660   2.248   2.636   3.162  0.2978 -0.1442 -1.3578
   37DOPE    HA 4661   2.164   2.679   3.103  0.4988 -0.4412 -1.8775
   37DOPE    HB 4662   2.344   2.679   3.128  1.2579 -1.4031 -0.3268
   37DOPE    C2 4663   2.210   2.665   3.315 -0.1541 -0.3794 -0.0679
   37DOPE    HS 4664   2.189   2.774   3.326 -2.0445 -0.7921  0.7702
   37DOPE   O21 4665   2.312   2.622   3.410  0.1886 -0.2576 -0.4542
   37DOPE   C21 4666   2.422   2.696   3.394 -0.6373  0.3363  0.0356
   37DOPE   O22 4667   2.440   2.796   3.321  0.0790 -0.7235  0.3192
   37DOPE   C22 4668   2.534   2.639   3.480 -0.0584 -0.6030 -0.3198
   37DOPE   H2R 4669   2.619   2.631   3.410  0.4554 -1.7648  0.4013
   37DOPE   H2S 4670   2.507   2.540   3.524  1.3123 -1.0668 -0.4664
   37DOPE    C3 4671   2.083   2.592   3.358  0.2618 -0.4978  0.1279
   37DOPE    HX 4672   2.103   2.484   3.342 -0.7222 -0.9716  1.8887
   37DOPE    HY 4673   2.001   2.636   3.297  1.2703  1.7748  0.2776
   37DOPE   O31 4674   2.046   2.630   3.491  0.0168  0.1471 -0.2047
   37DOPE   C31 4675   2.113   2.570   3.590  0.7078 -0.5639 -0.4408
   37DOPE   O32 4676   2.176   2.465   3.583 -0.2649 -0.4214 -0.6723
   37DOPE   C32 4677   2.080   2.651   3.714  0.3673 -0.2000  0.3067
   37DOPE   H2X 4678   2.063   2.756   3.681  0.7438  0.1514  1.1908
   37DOPE   H2Y 4679   1.984   2.623   3.761 -1.2319 -0.6312 -2.9167
   37DOPE   C23 4680   2.564   2.732   3.598 -0.7838  0.4752 -0.6341
   37DOPE   H3R 4681   2.488   2.728   3.679 -1.1213 -0.5877 -0.9938
   37DOPE   H3S 4682   2.559   2.836   3.560 -0.1709 -0.3423 -3.1144
   37DOPE   C24 4683   2.704   2.707   3.675  0.1901 -0.8578 -0.0712
   37DOPE   H4R 4684   2.782   2.720   3.597  1.3089 -0.6145  1.0518
   37DOPE   H4S 4685   2.703   2.610   3.728  2.9840  0.0252  1.8701
   37DOPE   C25 4686   2.719   2.817   3.784 -0.5756 -0.1010  0.1078
   37DOPE   H5R 4687   2.633   2.809   3.855  1.5015  0.1452  2.7983
   37DOPE   H5S 4688   2.706   2.911   3.726  1.2182 -0.7853 -1.4713
   37DOPE   C26 4689   2.850   2.807   3.870 -0.2886 -0.2101 -0.3275
   37DOPE   H6R 4690   2.830   2.722   3.939  3.5747  0.0417  1.3517
   37DOPE   H6S 4691   2.869   2.903   3.921  1.2730 -0.1764 -0.9239
   37DOPE   C27 4692   2.979   2.769   3.801 -0.3526 -0.4007  0.8623
   37DOPE   H7R 4693   2.950   2.691   3.727  0.4234 -2.7068  2.8551
   37DOPE   H7S 4694   3.039   2.712   3.875  0.7647  0.8965  0.9907
   37DOPE   C28 4695   3.072   2.879   3.737 -0.1338  0.4444 -0.0266
   37DOPE   H8R 4696   3.029   2.933   3.650 -1.5304 -1.0160 -0.2815
   37DOPE   H8S 4697   3.156   2.821   3.692  0.6286  1.3154  0.2404
   37DOPE   C29 4698   3.135   2.980   3.827 -0.5154 -0.0561  0.3618
   37DOPE   H9R 4699   3.095   3.083   3.819  2.5819  1.1715 -1.2315
   37DOPE  C210 4700   3.246   2.960   3.902  0.3357 -0.6473  0.4486
   37DOPE  H10R 4701   3.272   3.043   3.969 -1.2157  0.5432 -0.3726
   37DOPE  C211 4702   3.327   2.831   3.922 -0.0243  0.3533  0.2230
   37DOPE  H11R 4703   3.433   2.860   3.934 -0.2682  2.2301 -1.4746
   37DOPE  H11S 4704   3.322   2.765   3.834  2.5716 -1.6625  1.4624
   37DOPE  C212 4705   3.286   2.747   4.048 -0.4002  0.0517 -0.0794
   37DOPE  H12R 4706   3.370   2.675   4.060 -1.5417 -1.3616 -0.3247
   37DOPE  H12S 4707   3.189   2.694   4.040  0.6096 -1.8773 -0.1937
   37DOPE  C213 4708   3.288   2.834   4.176  0.1533 -0.4370 -0.0085
   37DOPE  H13R 4709   3.218   2.919   4.161 -1.7337 -1.7395  0.8960
   37DOPE  H13S 4710   3.393   2.869   4.188 -0.0633  0.1271  0.2937
   37DOPE  C214 4711   3.247   2.766   4.304  0.0597 -0.3972 -0.0965
   37DOPE  H14R 4712   3.339   2.718   4.344 -0.6612 -2.4400 -0.7503
   37DOPE  H14S 4713   3.174   2.683   4.293  0.5992 -0.9526  0.3967
   37DOPE  C215 4714   3.178   2.856   4.409  0.3820 -0.2622  0.2187
   37DOPE  H15R 4715   3.070   2.866   4.387  0.6030 -1.9904 -1.8864
   37DOPE  H15S 4716   3.219   2.958   4.390 -0.9658  0.5979  1.7515
   37DOPE  C216 4717   3.198   2.805   4.559 -0.2836  0.3538 -0.4187
   37DOPE  H16R 4718   3.300   2.764   4.566 -0.0132  1.0604 -0.1782
   37DOPE  H16S 4719   3.130   2.724   4.593  0.7878 -0.1392  0.5753
   37DOPE  C217 4720   3.174   2.920   4.665  0.2810  0.1995 -0.2375
   37DOPE  H17R 4721   3.075   2.959   4.633  1.3396  1.3249 -2.3568
   37DOPE  H17S 4722   3.246   3.002   4.647  1.8361 -1.1668 -0.4449
   37DOPE  C218 4723   3.172   2.875   4.813  0.0382 -0.2464 -0.7075
   37DOPE  H18R 4724   3.207   2.958   4.878 -0.9070  0.4088 -1.0125
   37DOPE  H18S 4725   3.239   2.791   4.840  1.3349  0.8840 -0.2965
   37DOPE  H18T 4726   3.070   2.851   4.848 -0.0209 -0.3638 -0.9550
   37DOPE   C33 4727   2.195   2.660   3.819 -0.4870  0.0482  0.0405
   37DOPE   H3X 4728   2.275   2.710   3.761 -0.2957  0.7087  0.8388
   37DOPE   H3Y 4729   2.228   2.560   3.854 -0.9039 -0.4222 -0.9082
   37DOPE   C34 4730   2.164   2.752   3.934  0.8588  0.4282  0.0755
   37DOPE   H4X 4731   2.259   2.788   3.978  0.8960 -0.2747  0.5790
   37DOPE   H4Y 4732   2.107   2.838   3.893 -2.2523 -1.5083  0.0042
   37DOPE   C35 4733   2.068   2.680   4.039 -1.0315 -0.2207  0.0202
   37DOPE   H5X 4734   2.068   2.571   4.015  0.1296 -0.0875 -0.6677
   37DOPE   H5Y 4735   1.961   2.705   4.024 -1.0897 -0.5152 -0.0583
   37DOPE   C36 4736   2.117   2.693   4.181  0.4504  0.6153 -0.5384
   37DOPE   H6X 4737   2.222   2.657   4.186 -0.2799 -1.4540  2.2321
   37DOPE   H6Y 4738   2.061   2.616   4.239  1.8116  1.4011  1.9615
   37DOPE   C37 4739   2.109   2.833   4.245  0.1086 -0.1607 -0.2859
   37DOPE   H7X 4740   2.093   2.915   4.172  0.4086 -0.1020 -0.2839
   37DOPE   H7Y 4741   2.012   2.837   4.299 -0.2276 -0.0467 -0.8870
   37DOPE   C38 4742   2.225   2.847   4.349  0.0220  0.4005  0.7750
   37DOPE   H8X 4743   2.321   2.828   4.296 -1.3433  2.0496 -2.6020
   37DOPE   H8Y 4744   2.199   2.762   4.416 -2.0290 -0.4335 -0.9399
   37DOPE   C39 4745   2.231   2.973   4.431 -0.7121  0.1268  1.0661
   37DOPE   H9X 4746   2.213   3.064   4.373  0.3279 -0.1713  0.2290
   37DOPE  C310 4747   2.239   2.981   4.565  0.4948  0.2921 -0.5094
   37DOPE  H10X 4748   2.220   3.074   4.621  1.0624 -0.0704  0.3051
   37DOPE  C311 4749   2.241   2.861   4.657 -0.4772 -0.7922 -0.7890
   37DOPE  H11X 4750   2.303   2.784   4.607  2.9371  1.3530 -0.1320
   37DOPE  H11Y 4751   2.281   2.891   4.756 -0.6556 -1.3326 -0.5465
   37DOPE  C312 4752   2.101   2.788   4.678 -0.3904  0.2980 -0.3085
   37DOPE  H12X 4753   2.110   2.680   4.700 -0.6756  0.8530  2.9778
   37DOPE  H12Y 4754   2.041   2.796   4.585 -1.4358  0.1601  0.3390
   37DOPE  C313 4755   2.030   2.867   4.784 -0.2414  0.1887  0.2991
   37DOPE  H13X 4756   2.028   2.976   4.760  1.2693  0.7360  2.3606
   37DOPE  H13Y 4757   1.928   2.824   4.779  0.9037 -2.7595  0.2266
   37DOPE  C314 4758   2.073   2.841   4.933  0.6805  0.0836  0.2203
   37DOPE  H14X 4759   1.989   2.866   5.002 -0.0080 -0.8833 -0.2505
   37DOPE  H14Y 4760   2.150   2.916   4.964  0.7812 -0.5123  1.4836
   37DOPE  C315 4761   2.112   2.694   4.968 -0.0616 -0.0212 -0.0452
   37DOPE  H15X 4762   2.194   2.673   4.895 -0.0341 -1.4141  0.3799
   37DOPE  H15Y 4763   2.025   2.627   4.955 -0.4677 -0.2007  2.9846
   37DOPE  C316 4764   2.168   2.690   5.115  0.1782 -0.0478  0.4173
   37DOPE  H16X 4765   2.095   2.724   5.192  0.3741  0.0690  0.5523
   37DOPE  H16Y 4766   2.261   2.750   5.129 -0.6217  1.2129  0.4823
   37DOPE  C317 4767   2.213   2.550   5.161  0.3303  0.3229  0.2326
   37DOPE  H17X 4768   2.243   2.553   5.269 -1.4353  1.6561  0.7233
   37DOPE  H17Y 4769   2.127   2.480   5.166 -0.0790  0.6946 -1.3020
   37DOPE  C318 4770   2.334   2.503   5.081 -0.1217 -0.4659 -0.0732
   37DOPE  H18X 4771   2.304   2.463   4.981  1.0971 -1.4809 -0.0640
   37DOPE  H18Y 4772   2.402   2.590   5.071 -1.3767  0.6575  0.7796
   37DOPE  H18Z 4773   2.387   2.413   5.119 -0.5798 -1.1335 -0.9642
   38DOPE     N 4774   6.806   6.053   3.096 -0.3240  0.3130 -0.1777
   38DOPE   HN1 4775   6.840   5.957   3.073 -2.2181 -0.0284 -1.8463
   38DOPE   HN2 4776   6.871   6.122   3.052 -2.2364  0.8780 -2.3078
   38DOPE   HN3 4777   6.810   6.048   3.199  0.8907 -1.5659 -0.2615
   38DOPE   C12 4778   6.672   6.074   3.042 -0.6295  0.5052 -0.2411
   38DOPE  H12A 4779   6.605   6.000   3.091 -0.6960  0.7691  0.0638
   38DOPE  H12B 4780   6.682   6.048   2.935 -0.1596 -0.5927  0.0528
   38DOPE   C11 4781   6.613   6.212   3.073 -0.1406 -0.2736  0.0201
   38DOPE  H11A 4782   6.585   6.213   3.181  0.4056 -0.2328  0.1638
   38DOPE  H11B 4783   6.517   6.236   3.023 -0.8057 -0.8900  0.9612
   38DOPE     P 4784   6.718   6.439   3.125  0.1327  0.1963 -0.0515
   38DOPE   O13 4785   6.788   6.538   3.041  0.1066  0.3661  1.1011
   38DOPE   O14 4786   6.787   6.394   3.254  0.3205  0.3515  0.1087
   38DOPE   O11 4787   6.572   6.486   3.146 -0.4501  0.0125 -0.0809
   38DOPE   O12 4788   6.707   6.311   3.034 -0.4331  0.1259 -0.0625
   38DOPE    C1 4789   6.520   6.518   3.275 -0.7046 -0.2577  0.1230
   38DOPE    HA 4790   6.514   6.629   3.276  1.5417 -0.0568 -1.0826
   38DOPE    HB 4791   6.593   6.488   3.353 -0.9754  0.5908  0.7108
   38DOPE    C2 4792   6.383   6.444   3.295 -0.0291 -0.1119  0.3186
   38DOPE    HS 4793   6.318   6.492   3.371 -0.6424  0.2227 -0.4045
   38DOPE   O21 4794   6.405   6.306   3.325  0.2198 -0.0177 -0.4012
   38DOPE   C21 4795   6.446   6.288   3.453 -0.0065 -0.0040  0.3849
   38DOPE   O22 4796   6.446   6.372   3.545 -0.3627 -0.1029  1.0372
   38DOPE   C22 4797   6.465   6.132   3.476 -0.0283 -0.4675 -0.7440
   38DOPE   H2R 4798   6.491   6.124   3.584  1.5417  1.9786 -0.8518
   38DOPE   H2S 4799   6.546   6.076   3.424 -0.9361 -1.7288 -0.8489
   38DOPE    C3 4800   6.302   6.465   3.166 -0.6079  0.6882 -0.5506
   38DOPE    HX 4801   6.363   6.413   3.088  0.7389 -0.1630  1.0056
   38DOPE    HY 4802   6.295   6.572   3.138 -1.8379 -0.0741 -3.7043
   38DOPE   O31 4803   6.170   6.411   3.176  0.5027 -0.1920 -0.5076
   38DOPE   C31 4804   6.112   6.380   3.057 -1.1910 -0.0624  0.2807
   38DOPE   O32 4805   6.169   6.393   2.948 -0.5704 -0.3460 -0.2093
   38DOPE   C32 4806   5.972   6.315   3.073 -0.1654 -0.5516  0.8253
   38DOPE   H2X 4807   5.897   6.396   3.082 -0.4457 -0.1879 -2.9884
   38DOPE   H2Y 4808   5.950   6.278   2.971 -0.8827  0.6772  0.5205
   38DOPE   C23 4809   6.336   6.048   3.461 -0.0005  0.0299  0.2519
   38DOPE   H3R 4810   6.368   5.945   3.484 -1.6414 -1.0658 -1.9238
   38DOPE   H3S 4811   6.304   6.045   3.354  1.9973  0.5187 -0.3919
   38DOPE   C24 4812   6.220   6.103   3.543  0.5676  0.1285 -0.0948
   38DOPE   H4R 4813   6.167   6.195   3.511  0.7650  0.0465 -0.6817
   38DOPE   H4S 4814   6.249   6.124   3.648 -1.5575 -1.8794  0.9967
   38DOPE   C25 4815   6.124   5.979   3.563 -0.6366 -0.4526 -0.6030
   38DOPE   H5R 4816   6.174   5.890   3.606 -3.0891 -1.1360  1.0464
   38DOPE   H5S 4817   6.092   5.948   3.461 -0.5600  2.2690 -1.5426
   38DOPE   C26 4818   6.004   6.021   3.648  0.0046  0.2614 -0.0359
   38DOPE   H6R 4819   5.942   6.094   3.592 -0.8871 -0.5498 -0.1289
   38DOPE   H6S 4820   6.034   6.074   3.740 -0.6379  0.1995  0.2159
   38DOPE   C27 4821   5.908   5.903   3.684  0.3701  0.0442 -0.6778
   38DOPE   H7R 4822   5.969   5.816   3.715 -0.6989 -2.1304 -4.0670
   38DOPE   H7S 4823   5.871   5.866   3.586 -2.4588  1.4837 -0.2485
   38DOPE   C28 4824   5.804   5.923   3.796 -0.6358 -0.2201 -0.0044
   38DOPE   H8R 4825   5.865   5.982   3.868  0.3716 -1.2621  0.0216
   38DOPE   H8S 4826   5.777   5.828   3.848 -0.4517 -0.2577  0.0239
   38DOPE   C29 4827   5.688   6.002   3.757  0.4899  0.1290  0.7954
   38DOPE   H9R 4828   5.682   6.031   3.652 -0.1997  0.4046  0.9065
   38DOPE  C210 4829   5.583   6.047   3.829 -0.4299  0.6709  0.7810
   38DOPE  H10R 4830   5.498   6.089   3.775 -0.5305 -0.8108 -0.2579
   38DOPE  C211 4831   5.564   6.017   3.975  0.0837  1.1220 -0.0855
   38DOPE  H11R 4832   5.524   6.108   4.024 -2.0499  0.8544 -1.2017
   38DOPE  H11S 4833   5.663   5.998   4.021 -0.2274  0.3330  0.2869
   38DOPE  C212 4834   5.477   5.888   4.002  0.9477 -0.4123 -0.9852
   38DOPE  H12R 4835   5.524   5.794   3.965 -1.3793 -0.8988 -2.9842
   38DOPE  H12S 4836   5.378   5.898   3.952  0.4204  0.9183  0.2420
   38DOPE  C213 4837   5.451   5.862   4.159 -0.1261  0.7318 -0.2321
   38DOPE  H13R 4838   5.376   5.781   4.168 -0.6741  1.3957  1.5149
   38DOPE  H13S 4839   5.411   5.955   4.204  0.5750  0.6096  0.6920
   38DOPE  C214 4840   5.591   5.822   4.220  0.2934 -0.6702 -1.2147
   38DOPE  H14R 4841   5.669   5.900   4.210 -0.9212  0.7517 -0.0664
   38DOPE  H14S 4842   5.624   5.728   4.171 -0.2917 -0.9674 -1.0476
   38DOPE  C215 4843   5.583   5.792   4.373  0.4127  0.1666 -0.2101
   38DOPE  H15R 4844   5.499   5.721   4.387  1.2913 -0.5534  1.8464
   38DOPE  H15S 4845   5.546   5.881   4.428  1.2106  1.3205 -1.4731
   38DOPE  C216 4846   5.716   5.744   4.436  0.6819  0.7909  0.1820
   38DOPE  H16R 4847   5.755   5.672   4.361 -0.7880  1.7214 -1.5503
   38DOPE  H16S 4848   5.676   5.692   4.526 -4.6234 -0.0215 -2.2333
   38DOPE  C217 4849   5.816   5.857   4.451 -0.1533  0.6835  0.2029
   38DOPE  H17R 4850   5.773   5.929   4.523 -4.3912 -1.1419 -0.2377
   38DOPE  H17S 4851   5.838   5.909   4.355  3.3713  2.2695  1.6789
   38DOPE  C218 4852   5.950   5.796   4.504  0.3728 -0.1030  0.0826
   38DOPE  H18R 4853   6.040   5.853   4.471 -2.1691  2.3045 -3.2651
   38DOPE  H18S 4854   5.963   5.694   4.460  1.8491  0.3152 -0.5327
   38DOPE  H18T 4855   5.949   5.797   4.615  2.1865  0.8034  0.1354
   38DOPE   C33 4856   5.960   6.194   3.169  0.0147 -0.5046  0.1075
   38DOPE   H3X 4857   5.982   6.225   3.273 -1.6231  1.1269  0.0079
   38DOPE   H3Y 4858   6.047   6.128   3.146  0.3302 -0.6435  1.6151
   38DOPE   C34 4859   5.823   6.131   3.165 -0.3318  0.0568  0.5004
   38DOPE   H4X 4860   5.740   6.199   3.196 -0.2419  0.4717 -0.1562
   38DOPE   H4Y 4861   5.808   6.099   3.060 -0.1229  2.0565 -0.1834
   38DOPE   C35 4862   5.831   6.013   3.263 -0.5809  0.2583 -0.1334
   38DOPE   H5X 4863   5.884   6.048   3.354  2.4105 -1.0706 -1.2234
   38DOPE   H5Y 4864   5.893   5.931   3.221  0.8717  2.0943 -1.7191
   38DOPE   C36 4865   5.694   5.955   3.316  0.0475 -0.0102  0.4632
   38DOPE   H6X 4866   5.705   5.884   3.401 -2.4473 -0.3637  0.5810
   38DOPE   H6Y 4867   5.663   5.888   3.232  1.6502 -1.7242  1.1694
   38DOPE   C37 4868   5.574   6.040   3.365  0.4069 -0.2456  0.1364
   38DOPE   H7X 4869   5.622   6.108   3.438  1.6305 -1.3841  0.4338
   38DOPE   H7Y 4870   5.535   6.096   3.278  0.3308 -0.4325  0.0481
   38DOPE   C38 4871   5.471   5.950   3.432  0.9214  0.5804 -0.0756
   38DOPE   H8X 4872   5.510   5.915   3.530  0.8776 -0.8404 -0.5552
   38DOPE   H8Y 4873   5.454   5.862   3.367 -1.3191 -1.1418  2.6280
   38DOPE   C39 4874   5.341   6.027   3.454  0.3309 -0.6318 -0.0939
   38DOPE   H9X 4875   5.343   6.102   3.534 -0.1139 -0.2965 -0.3935
   38DOPE  C310 4876   5.226   6.000   3.390  0.8523 -0.1035  0.1659
   38DOPE  H10X 4877   5.140   6.066   3.411 -0.2015 -0.8764 -1.4925
   38DOPE  C311 4878   5.205   5.893   3.288  0.4625  0.2264  0.2442
   38DOPE  H11X 4879   5.239   5.793   3.324  0.5767  0.1839  0.0194
   38DOPE  H11Y 4880   5.098   5.877   3.261  0.6103  1.5294 -1.2505
   38DOPE  C312 4881   5.271   5.916   3.151  0.3208 -0.5429  0.5920
   38DOPE  H12X 4882   5.252   5.829   3.084 -1.7892 -0.6769  1.2748
   38DOPE  H12Y 4883   5.382   5.917   3.158  0.5047  1.7803 -1.3707
   38DOPE  C313 4884   5.218   6.052   3.087  0.5861 -0.1750 -0.3878
   38DOPE  H13X 4885   5.107   6.044   3.083  0.7053 -1.8925 -1.2153
   38DOPE  H13Y 4886   5.239   6.148   3.138  1.2150 -1.0166  1.0114
   38DOPE  C314 4887   5.253   6.059   2.942 -0.0503  0.4749  0.4408
   38DOPE  H14X 4888   5.182   6.132   2.896 -1.8483  0.2553  2.6838
   38DOPE  H14Y 4889   5.237   5.964   2.886 -0.7767  0.4393  0.7079
   38DOPE  C315 4890   5.397   6.106   2.927 -0.5160 -0.0148  0.8436
   38DOPE  H15X 4891   5.466   6.041   2.985  0.6014  0.6690  0.3299
   38DOPE  H15Y 4892   5.399   6.208   2.971  1.4336  1.4426 -2.2416
   38DOPE  C316 4893   5.445   6.113   2.779 -0.1462 -0.5816  0.5174
   38DOPE  H16X 4894   5.361   6.111   2.706  1.2438  2.0374 -1.3590
   38DOPE  H16Y 4895   5.507   6.023   2.758 -2.1727 -1.2552 -3.5902
   38DOPE  C317 4896   5.540   6.227   2.756 -0.3777  0.6314 -0.1733
   38DOPE  H17X 4897   5.496   6.325   2.785  1.4155  1.1884  0.8659
   38DOPE  H17Y 4898   5.633   6.215   2.816 -0.8764 -0.7377  0.3538
   38DOPE  C318 4899   5.591   6.257   2.615  0.5888  0.5478  0.4301
   38DOPE  H18X 4900   5.499   6.296   2.567 -0.2227 -1.0710  0.6102
   38DOPE  H18Y 4901   5.664   6.340   2.623 -0.5889  1.7769 -0.9029
   38DOPE  H18Z 4902   5.640   6.167   2.574 -0.8918 -0.1686  0.1783
   39DOPE     N 4903   1.769   3.522   2.862 -0.3515  0.4006 -0.0861
   39DOPE   HN1 4904   1.748   3.622   2.877 -0.6635  0.3011  0.1377
   39DOPE   HN2 4905   1.682   3.472   2.837 -0.2561 -0.0456  0.4491
   39DOPE   HN3 4906   1.810   3.469   2.941  0.0801 -0.2071 -0.6990
   39DOPE   C12 4907   1.861   3.489   2.743  0.0626  0.3971  0.5638
   39DOPE  H12A 4908   1.828   3.549   2.655 -0.1518  2.0530  1.7350
   39DOPE  H12B 4909   1.849   3.381   2.717  3.4266  0.4447 -1.8170
   39DOPE   C11 4910   1.998   3.524   2.792  0.1515 -0.3383  0.6078
   39DOPE  H11A 4911   2.067   3.494   2.710 -0.9203 -1.6882  0.1546
   39DOPE  H11B 4912   2.032   3.461   2.877 -1.1634 -1.3481  0.4158
   39DOPE     P 4913   2.136   3.724   2.880 -0.0458  0.1816 -0.3129
   39DOPE   O13 4914   2.137   3.873   2.884  0.0335  0.0817 -0.2554
   39DOPE   O14 4915   2.255   3.663   2.821 -0.3780  0.1161  0.5773
   39DOPE   O11 4916   2.125   3.679   3.034  0.0711  0.5519 -0.8545
   39DOPE   O12 4917   2.009   3.667   2.810 -0.3015  0.2575 -0.8633
   39DOPE    C1 4918   2.002   3.659   3.101  0.3056  0.3844 -0.0838
   39DOPE    HA 4919   1.969   3.554   3.085  0.0789  0.4421  0.0073
   39DOPE    HB 4920   1.920   3.726   3.065 -0.4098  0.0880  0.9461
   39DOPE    C2 4921   2.019   3.680   3.253  0.2354 -0.0527 -0.2989
   39DOPE    HS 4922   2.060   3.782   3.269  0.4790 -0.3129  0.8313
   39DOPE   O21 4923   2.119   3.583   3.296  0.2662 -0.3006 -0.5614
   39DOPE   C21 4924   2.183   3.611   3.410 -0.6221 -0.3520 -0.3866
   39DOPE   O22 4925   2.165   3.715   3.468  0.2885  0.3524 -1.1737
   39DOPE   C22 4926   2.276   3.494   3.450  0.2334  0.5594 -0.2583
   39DOPE   H2R 4927   2.360   3.485   3.378  0.8807 -3.2067  0.7214
   39DOPE   H2S 4928   2.208   3.407   3.440  0.6727  0.1799  0.0130
   39DOPE    C3 4929   1.879   3.657   3.318 -0.0662 -0.5361 -0.9945
   39DOPE    HX 4930   1.860   3.549   3.301  0.4748 -0.6754 -0.7277
   39DOPE    HY 4931   1.815   3.714   3.248  3.4770  0.4610 -3.7504
   39DOPE   O31 4932   1.874   3.698   3.455  0.2344 -0.2197 -0.7693
   39DOPE   C31 4933   1.838   3.826   3.486 -0.2046 -0.5739  0.2108
   39DOPE   O32 4934   1.824   3.919   3.410 -0.0587  0.0387  0.3892
   39DOPE   C32 4935   1.828   3.853   3.636 -0.2813 -0.8225 -0.0925
   39DOPE   H2X 4936   1.753   3.779   3.670 -0.1559 -0.5155  0.8804
   39DOPE   H2Y 4937   1.926   3.818   3.675  1.5346  0.0979 -3.4808
   39DOPE   C23 4938   2.317   3.503   3.599 -0.1549  0.1623 -0.0528
   39DOPE   H3R 4939   2.228   3.516   3.664  0.9880  1.8625  1.2550
   39DOPE   H3S 4940   2.372   3.599   3.609  0.8841 -0.6381  3.1222
   39DOPE   C24 4941   2.409   3.393   3.645 -0.5778 -0.3419  0.0153
   39DOPE   H4R 4942   2.471   3.433   3.728  0.3097 -2.2373  0.3255
   39DOPE   H4S 4943   2.480   3.363   3.565  1.3698  4.1575 -0.2441
   39DOPE   C25 4944   2.322   3.280   3.696 -0.7625  0.2015  0.0376
   39DOPE   H5R 4945   2.256   3.242   3.615 -1.3469  1.9316 -0.3467
   39DOPE   H5S 4946   2.252   3.335   3.762  0.8872  1.9259  0.4444
   39DOPE   C26 4947   2.409   3.170   3.762 -0.8870 -0.0992  0.2369
   39DOPE   H6R 4948   2.490   3.214   3.824  0.8466 -2.3191 -0.3119
   39DOPE   H6S 4949   2.446   3.115   3.672  0.5663  0.3604  0.5315
   39DOPE   C27 4950   2.326   3.068   3.835 -0.3894 -0.1186  0.2990
   39DOPE   H7R 4951   2.387   2.976   3.845 -1.0498 -0.6700 -0.6301
   39DOPE   H7S 4952   2.235   3.045   3.775 -1.0036  0.2728  1.0486
   39DOPE   C28 4953   2.275   3.102   3.976 -0.1471  0.1274 -0.0659
   39DOPE   H8R 4954   2.217   3.018   4.020 -2.6913 -0.1347 -3.5037
   39DOPE   H8S 4955   2.200   3.182   3.962 -0.2397 -0.0497 -0.6105
   39DOPE   C29 4956   2.385   3.139   4.066 -0.4519  0.0629  0.2489
   39DOPE   H9R 4957   2.434   3.050   4.107 -0.2521 -0.8814 -1.8729
   39DOPE  C210 4958   2.444   3.259   4.101 -0.1485 -0.2998 -0.5419
   39DOPE  H10R 4959   2.519   3.269   4.181 -0.9476 -0.8155  0.3021
   39DOPE  C211 4960   2.412   3.400   4.051 -0.1611  0.1556 -0.3391
   39DOPE  H11R 4961   2.341   3.402   3.965  0.1388  2.0781 -0.6029
   39DOPE  H11S 4962   2.507   3.449   4.022  0.6075  0.3564  2.2741
   39DOPE  C212 4963   2.368   3.498   4.169  0.1253  0.0976 -0.1417
   39DOPE  H12R 4964   2.344   3.598   4.128  1.9209  0.3853 -0.5795
   39DOPE  H12S 4965   2.440   3.500   4.254 -0.4206  3.3358  0.3512
   39DOPE  C213 4966   2.233   3.453   4.226 -0.9777 -0.2939  0.2456
   39DOPE  H13R 4967   2.232   3.343   4.244  0.7566 -0.3464  0.1664
   39DOPE  H13S 4968   2.162   3.493   4.150  1.3131  3.8547  0.0120
   39DOPE  C214 4969   2.209   3.534   4.353 -0.8317  0.7400  0.2172
   39DOPE  H14R 4970   2.179   3.637   4.324  1.2541  1.4174  0.3017
   39DOPE  H14S 4971   2.301   3.534   4.415 -0.7657 -2.6358  0.2810
   39DOPE  C215 4972   2.094   3.478   4.436  0.0766  0.7587 -0.3372
   39DOPE  H15R 4973   2.023   3.425   4.369 -1.5071  0.4236  1.5090
   39DOPE  H15S 4974   2.029   3.560   4.473 -0.7633  0.2281 -0.5983
   39DOPE  C216 4975   2.128   3.388   4.564  0.6902 -1.0469 -0.3314
   39DOPE  H16R 4976   2.207   3.447   4.616  0.8847 -1.4377 -0.1721
   39DOPE  H16S 4977   2.171   3.292   4.525  0.0224 -1.0798 -0.9990
   39DOPE  C217 4978   2.000   3.371   4.656  0.4530  0.3169 -0.3456
   39DOPE  H17R 4979   1.954   3.468   4.683 -3.2230 -1.4654  0.4989
   39DOPE  H17S 4980   2.032   3.323   4.751  1.4646  4.7224  1.7722
   39DOPE  C218 4981   1.891   3.289   4.590  0.3110  0.1496 -0.8680
   39DOPE  H18R 4982   1.802   3.272   4.655 -0.7829  1.2925 -2.0041
   39DOPE  H18S 4983   1.944   3.195   4.564  3.0851  0.8127  1.8235
   39DOPE  H18T 4984   1.869   3.330   4.488  1.3067 -0.0777 -1.1797
   39DOPE   C33 4985   1.801   3.996   3.676 -1.1178 -0.4432  0.7171
   39DOPE   H3X 4986   1.709   4.041   3.632 -0.8098  0.2990  0.8189
   39DOPE   H3Y 4987   1.878   4.062   3.632 -0.7708 -0.6229  1.0479
   39DOPE   C34 4988   1.806   4.019   3.824  0.5257  0.6206 -0.5224
   39DOPE   H4X 4989   1.730   3.956   3.875  2.2579 -1.4293 -0.3122
   39DOPE   H4Y 4990   1.902   3.967   3.846  0.7709  1.7060  1.2466
   39DOPE   C35 4991   1.796   4.167   3.873  0.6159  0.7477 -0.4980
   39DOPE   H5X 4992   1.707   4.210   3.823 -0.7511 -2.5971 -1.2544
   39DOPE   H5Y 4993   1.894   4.216   3.854  0.2853  0.9070 -1.9142
   39DOPE   C36 4994   1.790   4.181   4.023  0.3220 -0.4056 -0.4726
   39DOPE   H6X 4995   1.780   4.291   4.035 -2.3765 -0.2223 -3.0660
   39DOPE   H6Y 4996   1.885   4.150   4.070  0.0487 -0.2258  0.2093
   39DOPE   C37 4997   1.661   4.138   4.097 -0.5305 -0.8173  0.0898
   39DOPE   H7X 4998   1.565   4.171   4.052 -1.1581 -0.3593  1.6936
   39DOPE   H7Y 4999   1.662   4.027   4.101 -3.8040 -1.0172 -1.1569
   39DOPE   C38 5000   1.673   4.199   4.238 -0.0529  0.3603  0.4023
   39DOPE   H8X 5001   1.653   4.309   4.238 -0.0060  0.3784  1.9219
   39DOPE   H8Y 5002   1.780   4.204   4.266 -0.0874  1.5542  0.3858
   39DOPE   C39 5003   1.582   4.144   4.350 -0.5838  0.6779  0.3243
   39DOPE   H9X 5004   1.474   4.162   4.349 -1.1492 -2.0565  2.2811
   39DOPE  C310 5005   1.625   4.072   4.463  0.1188  0.3326  0.3216
   39DOPE  H10X 5006   1.549   4.041   4.536  0.4978 -2.4989 -0.3801
   39DOPE  C311 5007   1.765   4.042   4.502  0.1524 -0.3932  0.4238
   39DOPE  H11X 5008   1.837   4.093   4.434  2.4963 -2.2615  1.3197
   39DOPE  H11Y 5009   1.781   4.077   4.606  0.6233 -1.3410  0.6829
   39DOPE  C312 5010   1.800   3.897   4.491 -0.0253  0.1022 -0.1393
   39DOPE  H12X 5011   1.721   3.840   4.545  1.0943  0.7667  2.3293
   39DOPE  H12Y 5012   1.896   3.868   4.540  1.6517  3.6588 -1.0347
   39DOPE  C313 5013   1.811   3.842   4.349  0.5760  0.2367  0.1864
   39DOPE  H13X 5014   1.810   3.732   4.365 -0.8651  0.4551  1.9490
   39DOPE  H13Y 5015   1.721   3.877   4.293 -0.3027 -1.1496  0.6954
   39DOPE  C314 5016   1.947   3.865   4.285  0.1681  0.0579 -0.4918
   39DOPE  H14X 5017   2.033   3.853   4.354  1.2228  2.2311 -1.3372
   39DOPE  H14Y 5018   1.957   3.971   4.255 -0.7767  0.8744  1.8577
   39DOPE  C315 5019   1.973   3.775   4.160  0.5115  0.2662  0.3585
   39DOPE  H15X 5020   1.873   3.767   4.111  0.3559  0.9726  0.5463
   39DOPE  H15Y 5021   1.997   3.674   4.198 -1.4258 -0.1774  0.5325
   39DOPE  C316 5022   2.080   3.821   4.061  0.7253 -0.6598 -0.0255
   39DOPE  H16X 5023   2.178   3.837   4.111 -0.0063  2.0516  0.6730
   39DOPE  H16Y 5024   2.059   3.927   4.037  1.7472 -0.2688  0.7415
   39DOPE  C317 5025   2.096   3.732   3.937  0.8656  0.3550  0.0741
   39DOPE  H17X 5026   2.132   3.633   3.971  1.2466 -0.5130 -2.6203
   39DOPE  H17Y 5027   1.996   3.725   3.888  0.1228  0.4059  1.5340
   39DOPE  C318 5028   2.196   3.785   3.837 -0.4528  0.2285 -0.5200
   39DOPE  H18X 5029   2.166   3.888   3.807  2.2516  0.8560 -1.3668
   39DOPE  H18Y 5030   2.300   3.801   3.874 -0.6183 -0.2457  0.1617
   39DOPE  H18Z 5031   2.200   3.719   3.748 -1.3074 -0.2063 -0.2408
   40DOPE     N 5032   3.235   6.240   2.865 -0.1189 -0.0686  0.5500
   40DOPE   HN1 5033   3.170   6.198   2.935 -0.7370 -1.6690 -0.9202
   40DOPE   HN2 5034   3.250   6.340   2.888  0.1601 -0.1607  0.7797
   40DOPE   HN3 5035   3.210   6.235   2.764  2.7260  0.1895 -0.2492
   40DOPE   C12 5036   3.363   6.163   2.885  0.5082 -0.1306 -0.3054
   40DOPE  H12A 5037   3.426   6.187   2.797 -0.7408 -0.9479 -1.4442
   40DOPE  H12B 5038   3.339   6.054   2.881  0.1443 -0.0370 -0.6515
   40DOPE   C11 5039   3.416   6.196   3.027  0.6370  0.8883  0.1310
   40DOPE  H11A 5040   3.515   6.146   3.035  0.5215  0.6451  0.0467
   40DOPE  H11B 5041   3.345   6.152   3.100  0.5257  2.1186  0.7820
   40DOPE     P 5042   3.559   6.405   3.022 -0.2515  0.0320 -0.3197
   40DOPE   O13 5043   3.549   6.553   3.003  0.1997  0.3861 -0.3363
   40DOPE   O14 5044   3.628   6.335   2.913 -0.8786 -0.8642  1.0236
   40DOPE   O11 5045   3.641   6.385   3.154  0.0930  0.6110 -0.0959
   40DOPE   O12 5046   3.424   6.340   3.042 -0.2519  0.3413 -0.2174
   40DOPE    C1 5047   3.593   6.453   3.273  0.1413 -0.0726  0.4143
   40DOPE    HA 5048   3.486   6.482   3.278  0.9165  2.9434  1.2310
   40DOPE    HB 5049   3.658   6.542   3.286 -0.6356  0.5090  0.3932
   40DOPE    C2 5050   3.614   6.367   3.399  0.0018 -0.5197 -0.5218
   40DOPE    HS 5051   3.577   6.428   3.485 -0.6660  0.3115 -1.3853
   40DOPE   O21 5052   3.754   6.342   3.409 -0.2433  0.7090  0.6266
   40DOPE   C21 5053   3.809   6.343   3.528 -0.2456 -0.8906 -0.5245
   40DOPE   O22 5054   3.755   6.379   3.630  0.1585 -0.2387  0.1097
   40DOPE   C22 5055   3.963   6.315   3.508 -0.2267  0.0120  0.2067
   40DOPE   H2R 5056   4.004   6.390   3.437 -0.7879 -1.0676 -1.3130
   40DOPE   H2S 5057   3.977   6.223   3.449  0.8284 -0.1898  0.7478
   40DOPE    C3 5058   3.534   6.236   3.415 -0.4476  0.2108  0.4101
   40DOPE    HX 5059   3.552   6.184   3.319 -0.4830 -0.2549  0.6566
   40DOPE    HY 5060   3.432   6.280   3.414 -0.0651  1.1214 -0.7961
   40DOPE   O31 5061   3.572   6.161   3.532 -0.0317  0.3772 -0.1043
   40DOPE   C31 5062   3.503   6.190   3.647 -0.1867 -0.6741  0.2669
   40DOPE   O32 5063   3.406   6.263   3.649 -0.1620 -0.3443 -0.4565
   40DOPE   C32 5064   3.569   6.129   3.774  0.2793  0.2651  0.7071
   40DOPE   H2X 5065   3.550   6.020   3.766  0.1987  0.3530 -0.4664
   40DOPE   H2Y 5066   3.675   6.156   3.757  0.4003 -0.1195  0.8360
   40DOPE   C23 5067   4.044   6.311   3.642  0.4818 -0.9656 -0.2604
   40DOPE   H3R 5068   4.018   6.392   3.714  0.0073 -1.9840  0.7479
   40DOPE   H3S 5069   4.149   6.321   3.608  0.9394  0.3042  1.4123
   40DOPE   C24 5070   4.031   6.179   3.711  0.5390 -0.2731 -0.0506
   40DOPE   H4R 5071   4.071   6.110   3.634  1.3808  0.2024 -0.0504
   40DOPE   H4S 5072   3.924   6.151   3.707  0.3813  0.3341 -3.1242
   40DOPE   C25 5073   4.086   6.160   3.855  0.1156  0.2977 -0.1398
   40DOPE   H5R 5074   4.044   6.070   3.906  0.8193  0.7682  1.3325
   40DOPE   H5S 5075   4.046   6.249   3.907 -2.1284 -0.0916 -1.0771
   40DOPE   C26 5076   4.243   6.162   3.874 -0.0639 -0.3123  0.2242
   40DOPE   H6R 5077   4.259   6.185   3.981 -0.0548  1.0142 -0.0451
   40DOPE   H6S 5078   4.288   6.236   3.805 -0.9002  1.0486  1.1056
   40DOPE   C27 5079   4.300   6.018   3.850  0.4675 -0.0978  0.4541
   40DOPE   H7R 5080   4.281   5.998   3.743  0.5751  0.9762  0.2255
   40DOPE   H7S 5081   4.253   5.943   3.918 -0.6988  0.9643  0.8545
   40DOPE   C28 5082   4.451   6.007   3.864  0.1609  0.0123  0.4308
   40DOPE   H8R 5083   4.485   6.027   3.968  0.3510  0.9133  0.2067
   40DOPE   H8S 5084   4.499   6.080   3.795  0.6788 -1.3883 -0.7410
   40DOPE   C29 5085   4.506   5.869   3.832  0.5885  0.2924  0.1433
   40DOPE   H9R 5086   4.500   5.845   3.724 -0.1088  1.8668 -0.2049
   40DOPE  C210 5087   4.552   5.766   3.906 -0.0793 -0.2475  1.2658
   40DOPE  H10R 5088   4.559   5.666   3.860 -3.1190 -0.2826  0.6327
   40DOPE  C211 5089   4.562   5.760   4.051  0.3752 -0.8971 -0.6758
   40DOPE  H11R 5090   4.606   5.855   4.087  0.0413 -0.6439 -0.9218
   40DOPE  H11S 5091   4.635   5.682   4.083  0.1313 -1.0609 -0.5148
   40DOPE  C212 5092   4.424   5.740   4.114 -0.3513 -0.4766 -0.6060
   40DOPE  H12R 5093   4.393   5.634   4.099 -1.4101 -0.0663 -1.4684
   40DOPE  H12S 5094   4.349   5.815   4.081  2.1500  2.4345 -0.1575
   40DOPE  C213 5095   4.433   5.743   4.271  0.0773  0.0980  0.3601
   40DOPE  H13R 5096   4.483   5.837   4.306 -0.9217 -0.0724  2.4425
   40DOPE  H13S 5097   4.492   5.652   4.293 -0.8792 -0.8138 -0.7583
   40DOPE  C214 5098   4.302   5.723   4.352 -0.1542  1.1278 -0.7736
   40DOPE  H14R 5099   4.277   5.615   4.339  0.4403  0.8909 -0.0518
   40DOPE  H14S 5100   4.220   5.789   4.319 -1.4888 -0.7128 -1.3165
   40DOPE  C215 5101   4.309   5.730   4.502 -0.1100 -0.1514 -0.6232
   40DOPE  H15R 5102   4.210   5.697   4.541  0.5581  0.5511  1.8208
   40DOPE  H15S 5103   4.329   5.837   4.523 -0.4435  0.1797 -1.9084
   40DOPE  C216 5104   4.426   5.654   4.573 -0.0071  0.1076  0.5784
   40DOPE  H16R 5105   4.411   5.683   4.680  0.2050 -0.9261  0.8973
   40DOPE  H16S 5106   4.523   5.699   4.542  0.2402 -1.7660 -1.5723
   40DOPE  C217 5107   4.428   5.506   4.553 -0.0146  0.2510 -0.5400
   40DOPE  H17R 5108   4.522   5.462   4.593 -1.1042  0.3707  2.4148
   40DOPE  H17S 5109   4.433   5.475   4.446 -1.6852 -0.3602 -0.4834
   40DOPE  C218 5110   4.306   5.440   4.626 -0.4556 -0.3608  0.5180
   40DOPE  H18R 5111   4.312   5.330   4.632  1.0115 -0.3393 -0.0368
   40DOPE  H18S 5112   4.216   5.469   4.568 -1.2479  0.7963  2.2309
   40DOPE  H18T 5113   4.301   5.482   4.729 -0.3536  2.1591 -0.4249
   40DOPE   C33 5114   3.521   6.190   3.904  0.2197 -0.3532  0.0240
   40DOPE   H3X 5115   3.410   6.191   3.904  0.2103  1.1736 -0.1500
   40DOPE   H3Y 5116   3.538   6.300   3.911  2.2876 -0.5511 -1.1163
   40DOPE   C34 5117   3.579   6.102   4.012 -0.3517 -0.5544 -1.0213
   40DOPE   H4X 5118   3.517   6.104   4.104 -0.3581  1.1957 -1.0224
   40DOPE   H4Y 5119   3.570   5.997   3.977  0.6005 -0.3019 -2.0941
   40DOPE   C35 5120   3.720   6.131   4.069 -1.0015 -1.0486  0.3313
   40DOPE   H5X 5121   3.809   6.098   4.011  0.3455 -1.6568  2.6232
   40DOPE   H5Y 5122   3.734   6.061   4.155  1.0188 -2.1706 -0.8219
   40DOPE   C36 5123   3.744   6.269   4.116 -0.4642  0.2078  0.7165
   40DOPE   H6X 5124   3.655   6.304   4.172 -0.1400  1.0293  0.7263
   40DOPE   H6Y 5125   3.732   6.329   4.023 -0.0579 -1.2176 -0.2966
   40DOPE   C37 5126   3.880   6.298   4.185 -0.9768 -0.4599 -0.3922
   40DOPE   H7X 5127   3.959   6.254   4.121  1.0098  1.8424  0.3064
   40DOPE   H7Y 5128   3.894   6.408   4.173  1.6990 -0.6592  0.2874
   40DOPE   C38 5129   3.905   6.238   4.319  0.2366  0.1485  0.5890
   40DOPE   H8X 5130   3.889   6.128   4.319 -1.3912  0.3466  1.3667
   40DOPE   H8Y 5131   3.832   6.275   4.394 -0.9576  1.6261 -1.1945
   40DOPE   C39 5132   4.044   6.273   4.371  0.3747 -0.4566  0.1537
   40DOPE   H9X 5133   4.071   6.370   4.327 -0.6913 -1.1261 -2.1481
   40DOPE  C310 5134   4.127   6.195   4.443  0.4744  0.3287  0.3273
   40DOPE  H10X 5135   4.218   6.243   4.480  0.5945  1.6078 -1.4908
   40DOPE  C311 5136   4.093   6.055   4.494 -0.7407 -0.1427  0.5698
   40DOPE  H11X 5137   3.986   6.031   4.476 -1.4968  2.8218  0.5216
   40DOPE  H11Y 5138   4.154   5.979   4.441 -2.3670 -0.7390 -0.5159
   40DOPE  C312 5139   4.106   6.052   4.644  0.0649  0.3357 -0.4922
   40DOPE  H12X 5140   4.061   6.147   4.678  0.7968  1.0259 -1.4194
   40DOPE  H12Y 5141   4.215   6.056   4.664  0.0154 -3.5983  1.5733
   40DOPE  C313 5142   4.031   5.931   4.703  0.2485 -0.0481 -0.2563
   40DOPE  H13X 5143   3.920   5.937   4.700  0.1918  0.1060  1.1656
   40DOPE  H13Y 5144   4.050   5.840   4.643  0.6909 -0.8349  1.0229
   40DOPE  C314 5145   4.085   5.895   4.841 -0.2191 -0.0168 -0.1215
   40DOPE  H14X 5146   4.010   5.842   4.902  1.1344 -1.0942  0.6744
   40DOPE  H14Y 5147   4.108   5.991   4.890 -1.4594  0.6435 -0.7749
   40DOPE  C315 5148   4.215   5.810   4.825  0.3965  0.5930 -0.2886
   40DOPE  H15X 5149   4.288   5.856   4.755  2.2514  0.5331  1.5190
   40DOPE  H15Y 5150   4.200   5.705   4.791  3.0522 -1.1154  3.1741
   40DOPE  C316 5151   4.296   5.798   4.958  0.6368 -0.6081 -0.2501
   40DOPE  H16X 5152   4.374   5.720   4.954  0.7840 -0.4804  0.0961
   40DOPE  H16Y 5153   4.219   5.780   5.037  1.2384  0.6580  0.6758
   40DOPE  C317 5154   4.369   5.924   4.998 -0.0266 -0.0115  0.5884
   40DOPE  H17X 5155   4.438   5.961   4.920 -0.4681  0.1530  0.2662
   40DOPE  H17Y 5156   4.285   5.996   5.010 -0.9172 -0.8299 -0.4287
   40DOPE  C318 5157   4.450   5.913   5.122 -0.2763  0.0624  0.2868
   40DOPE  H18X 5158   4.491   6.012   5.153  1.6576 -0.0080 -1.7569
   40DOPE  H18Y 5159   4.400   5.866   5.209  1.0545 -0.8432  0.5926
   40DOPE  H18Z 5160   4.541   5.855   5.097 -1.2920 -0.2179 -3.2899
   41DOPE     N 5161   2.177   4.746   3.256  0.2986 -0.0186 -0.1419
   41DOPE   HN1 5162   2.272   4.786   3.271  2.1046 -3.7277 -0.4827
   41DOPE   HN2 5163   2.103   4.818   3.241  1.1219  0.6632 -0.9994
   41DOPE   HN3 5164   2.146   4.683   3.334  0.3295 -2.1294 -1.7325
   41DOPE   C12 5165   2.191   4.668   3.125  0.2221 -0.1467 -0.4736
   41DOPE  H12A 5166   2.280   4.602   3.140 -0.6192 -1.2950 -0.3426
   41DOPE  H12B 5167   2.214   4.747   3.051  0.2600  0.1157 -0.1830
   41DOPE   C11 5168   2.062   4.584   3.082 -0.2543  0.5434 -0.2732
   41DOPE  H11A 5169   2.057   4.493   3.146 -1.9882  2.0277  1.8657
   41DOPE  H11B 5170   2.080   4.543   2.981 -2.5593 -0.5033 -0.3324
   41DOPE     P 5171   1.907   4.793   3.041  0.5677 -0.0820 -0.4968
   41DOPE   O13 5172   1.896   4.774   2.895  0.3182 -0.1031 -0.3244
   41DOPE   O14 5173   2.004   4.894   3.094  0.1055  0.5793  0.8162
   41DOPE   O11 5174   1.761   4.821   3.108 -0.3755 -0.0609  0.0183
   41DOPE   O12 5175   1.936   4.655   3.101 -0.1781 -0.1079 -0.3795
   41DOPE    C1 5176   1.695   4.729   3.202  0.3439  0.2793  0.1293
   41DOPE    HA 5177   1.757   4.638   3.217 -0.4283 -0.1273  0.9351
   41DOPE    HB 5178   1.589   4.707   3.177 -0.1693 -1.5886  3.3187
   41DOPE    C2 5179   1.678   4.783   3.341 -0.0857 -0.2400  0.2347
   41DOPE    HS 5180   1.602   4.864   3.332  0.3029 -0.0696 -2.1369
   41DOPE   O21 5181   1.803   4.830   3.383 -0.7348  0.0466 -0.1060
   41DOPE   C21 5182   1.817   4.957   3.396  0.0120 -0.0206 -0.3226
   41DOPE   O22 5183   1.737   5.046   3.358 -0.2958 -0.5491 -0.4398
   41DOPE   C22 5184   1.942   4.980   3.486  0.0359 -0.2265 -0.8399
   41DOPE   H2R 5185   2.032   5.025   3.437 -0.2545  0.9730 -0.3206
   41DOPE   H2S 5186   1.984   4.883   3.520  0.2884 -0.1543 -0.9448
   41DOPE    C3 5187   1.625   4.672   3.438 -0.1285 -0.5521  0.0978
   41DOPE    HX 5188   1.703   4.598   3.467 -1.0765 -2.6065 -2.2332
   41DOPE    HY 5189   1.541   4.628   3.380 -0.8396  3.0361 -1.9028
   41DOPE   O31 5190   1.588   4.737   3.563 -0.2430  0.3335  0.0807
   41DOPE   C31 5191   1.537   4.645   3.648 -0.1196  0.4065  0.5933
   41DOPE   O32 5192   1.515   4.524   3.627  0.2413 -0.8927 -0.5269
   41DOPE   C32 5193   1.523   4.715   3.786 -0.0336  0.2266 -0.3595
   41DOPE   H2X 5194   1.627   4.716   3.825 -1.5559  1.2372  4.3979
   41DOPE   H2Y 5195   1.483   4.818   3.776 -1.9921 -0.3149  1.0804
   41DOPE   C23 5196   1.900   5.075   3.601  0.9059  0.5470 -0.7761
   41DOPE   H3R 5197   1.855   5.164   3.554 -1.2766 -0.0430  0.0928
   41DOPE   H3S 5198   1.982   5.118   3.662 -2.2861  2.3922  2.6108
   41DOPE   C24 5199   1.796   5.016   3.704  0.6367 -0.4902 -0.0744
   41DOPE   H4R 5200   1.711   4.970   3.649 -0.9659  0.4240  1.5295
   41DOPE   H4S 5201   1.738   5.095   3.757 -2.0234 -0.8378 -2.2241
   41DOPE   C25 5202   1.854   4.911   3.790  0.9747  0.0634 -0.0796
   41DOPE   H5R 5203   1.964   4.917   3.806  0.6373  1.0946  2.2955
   41DOPE   H5S 5204   1.834   4.816   3.736 -1.1753  0.0035  0.7089
   41DOPE   C26 5205   1.794   4.906   3.933 -0.9224 -0.0928 -0.3912
   41DOPE   H6R 5206   1.825   4.813   3.984 -1.7728 -0.3891 -0.3954
   41DOPE   H6S 5207   1.683   4.897   3.936 -1.2074  1.7196 -2.5924
   41DOPE   C27 5208   1.833   5.032   4.015 -0.2854 -0.4468  0.1048
   41DOPE   H7R 5209   1.796   5.008   4.118 -0.3974 -2.2642 -0.3140
   41DOPE   H7S 5210   1.786   5.126   3.981  0.1173  0.1652  1.1909
   41DOPE   C28 5211   1.987   5.056   4.019 -0.4882  0.2267  0.2140
   41DOPE   H8R 5212   2.034   5.077   3.921 -0.6003  0.8973  0.2977
   41DOPE   H8S 5213   2.032   4.962   4.057 -1.6690 -0.3077  0.3408
   41DOPE   C29 5214   2.016   5.179   4.106  0.9249  0.1398  0.2162
   41DOPE   H9R 5215   2.058   5.262   4.047 -0.9350 -0.0305 -1.4342
   41DOPE  C210 5216   2.016   5.193   4.238 -0.7928 -1.6025  0.3416
   41DOPE  H10R 5217   2.060   5.280   4.287  0.3435 -1.8204 -0.2673
   41DOPE  C211 5218   1.989   5.089   4.339  0.0794  0.2781 -0.2433
   41DOPE  H11R 5219   2.073   5.081   4.412 -0.5373  2.3211  0.7608
   41DOPE  H11S 5220   1.978   4.987   4.298 -0.2714  0.5650 -0.8644
   41DOPE  C212 5221   1.858   5.118   4.413 -0.5764  0.2107  0.0198
   41DOPE  H12R 5222   1.773   5.101   4.344  0.6000  2.0409 -2.0315
   41DOPE  H12S 5223   1.870   5.224   4.443  2.5041  0.2337 -0.9512
   41DOPE  C213 5224   1.853   5.018   4.533  0.2595 -0.1266  0.6693
   41DOPE  H13R 5225   1.955   5.007   4.577 -0.0824 -1.6583  1.1382
   41DOPE  H13S 5226   1.829   4.916   4.495  0.7431 -0.8603  2.2533
   41DOPE  C214 5227   1.766   5.064   4.641 -0.3414 -0.0471 -0.5324
   41DOPE  H14R 5228   1.662   5.083   4.607  0.0423  2.0839 -0.6824
   41DOPE  H14S 5229   1.812   5.161   4.669 -0.8855  0.3292 -0.8991
   41DOPE  C215 5230   1.745   4.976   4.763 -0.7989  0.0206  0.2387
   41DOPE  H15R 5231   1.849   4.972   4.801 -0.0815  0.1771 -1.6154
   41DOPE  H15S 5232   1.709   4.875   4.733  0.5664 -0.6103  0.6292
   41DOPE  C216 5233   1.659   5.038   4.877  0.3163  0.7694  1.1023
   41DOPE  H16R 5234   1.708   5.130   4.915 -0.7636  0.4944  3.3735
   41DOPE  H16S 5235   1.668   4.970   4.965 -0.6394 -2.2429 -0.9748
   41DOPE  C217 5236   1.504   5.056   4.856  0.4518 -0.3961 -0.2625
   41DOPE  H17R 5237   1.488   5.117   4.764  0.4191  0.8406  0.5327
   41DOPE  H17S 5238   1.457   5.116   4.937 -2.1184 -1.3199 -0.9817
   41DOPE  C218 5239   1.428   4.931   4.862  0.1071 -0.2452 -0.2034
   41DOPE  H18R 5240   1.451   4.871   4.771  0.0573  1.2453 -1.2393
   41DOPE  H18S 5241   1.318   4.926   4.875  0.1241 -1.1468 -0.3022
   41DOPE  H18T 5242   1.473   4.864   4.939  1.2041  0.0988 -0.5171
   41DOPE   C33 5243   1.418   4.631   3.867 -0.6698  0.6667  0.2296
   41DOPE   H3X 5244   1.444   4.523   3.865 -1.4853  0.4663 -0.1479
   41DOPE   H3Y 5245   1.323   4.637   3.809 -0.5214  1.1095  0.0319
   41DOPE   C34 5246   1.392   4.682   4.009  0.1485 -0.5191  0.5501
   41DOPE   H4X 5247   1.369   4.790   4.019 -0.2895 -0.7968  3.1475
   41DOPE   H4Y 5248   1.306   4.623   4.046  0.4504 -1.2566  0.0904
   41DOPE   C35 5249   1.512   4.660   4.103 -0.4606 -0.6986 -0.2143
   41DOPE   H5X 5250   1.605   4.711   4.071 -0.9033  0.1884 -0.1253
   41DOPE   H5Y 5251   1.540   4.553   4.112 -1.1779 -0.7087  3.0133
   41DOPE   C36 5252   1.493   4.723   4.247  0.1102 -0.3945 -0.4286
   41DOPE   H6X 5253   1.410   4.676   4.303  1.6039 -2.0602  0.4768
   41DOPE   H6Y 5254   1.442   4.822   4.243  0.4830 -0.0520  2.0131
   41DOPE   C37 5255   1.626   4.727   4.321 -0.5353 -1.1061 -0.1725
   41DOPE   H7X 5256   1.703   4.671   4.263  2.6840  1.1453  1.6499
   41DOPE   H7Y 5257   1.655   4.834   4.326 -0.5746 -1.0944 -0.1896
   41DOPE   C38 5258   1.609   4.678   4.466 -0.0739 -0.1470  0.1764
   41DOPE   H8X 5259   1.522   4.733   4.509  0.1735 -0.0461  0.5491
   41DOPE   H8Y 5260   1.692   4.715   4.529  0.1291 -0.1356 -0.0959
   41DOPE   C39 5261   1.601   4.532   4.471  0.2441  0.3595 -0.3431
   41DOPE   H9X 5262   1.537   4.481   4.399 -0.3499  0.7298 -0.0815
   41DOPE  C310 5263   1.664   4.459   4.564  0.1864 -0.2160  0.4562
   41DOPE  H10X 5264   1.655   4.349   4.561  1.0607 -0.3819  2.5350
   41DOPE  C311 5265   1.750   4.498   4.686 -0.2181 -0.4578  0.4908
   41DOPE  H11X 5266   1.815   4.411   4.710 -1.3224 -2.1483 -2.1604
   41DOPE  H11Y 5267   1.813   4.586   4.660 -3.5972  2.5391  1.7282
   41DOPE  C312 5268   1.670   4.528   4.808  0.6912  0.0987  0.3465
   41DOPE  H12X 5269   1.596   4.453   4.843 -4.2540  5.2082  2.2198
   41DOPE  H12Y 5270   1.599   4.609   4.783  0.7111 -0.2688 -0.9997
   41DOPE  C313 5271   1.754   4.578   4.927  0.5304  0.2954 -0.1401
   41DOPE  H13X 5272   1.861   4.550   4.926  0.0358 -1.9521  1.4939
   41DOPE  H13Y 5273   1.747   4.688   4.909  1.1621  0.1713 -1.2364
   41DOPE  C314 5274   1.689   4.538   5.062 -0.3954  0.4272 -0.2392
   41DOPE  H14X 5275   1.759   4.464   5.105 -2.1069 -0.9402  0.2847
   41DOPE  H14Y 5276   1.588   4.493   5.053  0.0483 -0.3700 -1.6909
   41DOPE  C315 5277   1.673   4.659   5.161 -0.0513  0.3739 -0.3189
   41DOPE  H15X 5278   1.625   4.619   5.253 -0.6132  0.3853 -0.5995
   41DOPE  H15Y 5279   1.596   4.728   5.121  2.6923  4.0846  0.3436
   41DOPE  C316 5280   1.807   4.722   5.206 -0.0310 -0.4643 -0.0599
   41DOPE  H16X 5281   1.780   4.825   5.241 -2.4357 -0.8148 -0.6926
   41DOPE  H16Y 5282   1.874   4.721   5.118  0.9452 -0.7366  0.6756
   41DOPE  C317 5283   1.888   4.654   5.317 -0.3079 -0.2454  0.1886
   41DOPE  H17X 5284   1.825   4.668   5.408  0.2361 -0.4035  0.5940
   41DOPE  H17Y 5285   1.908   4.545   5.311 -2.6926 -0.8966  2.4742
   41DOPE  C318 5286   2.021   4.731   5.338 -0.1006  0.4748  0.4069
   41DOPE  H18X 5287   2.059   4.690   5.434 -2.2067  0.5517  1.3440
   41DOPE  H18Y 5288   2.097   4.709   5.261  0.1557 -1.5009  1.1721
   41DOPE  H18Z 5289   1.997   4.840   5.341  1.5536  0.9791 -2.0013
   42DOPE     N 5290   2.067   4.093   3.024 -0.1780 -0.4600 -0.2195
   42DOPE   HN1 5291   2.165   4.129   3.026 -0.7101  1.0624 -0.7398
   42DOPE   HN2 5292   2.031   4.111   3.120  1.1014  0.6519  0.0841
   42DOPE   HN3 5293   2.063   3.991   3.004  0.9984 -0.2315 -1.8345
   42DOPE   C12 5294   1.977   4.161   2.925  0.1431  0.4599  0.1487
   42DOPE  H12A 5295   2.043   4.212   2.852 -1.8717  3.3453  0.2151
   42DOPE  H12B 5296   1.920   4.234   2.985  3.2188  2.6422  0.6734
   42DOPE   C11 5297   1.889   4.063   2.854  0.6138 -0.3646 -0.5721
   42DOPE  H11A 5298   1.947   4.001   2.782 -1.8519 -2.3366 -1.0112
   42DOPE  H11B 5299   1.825   4.132   2.794 -0.4393  0.6237  1.5928
   42DOPE     P 5300   1.679   3.920   2.924 -0.5796 -0.0602  0.1018
   42DOPE   O13 5301   1.670   3.774   2.951 -0.3562 -0.0584 -0.8425
   42DOPE   O14 5302   1.640   3.944   2.783  0.0197  0.3654 -0.3620
   42DOPE   O11 5303   1.588   4.004   3.021 -0.4424 -0.2736  0.5678
   42DOPE   O12 5304   1.828   3.980   2.945  0.3038  0.5415 -0.0009
   42DOPE    C1 5305   1.651   4.073   3.133  0.5048 -0.2648  0.1232
   42DOPE    HA 5306   1.678   4.172   3.091  2.0135 -1.1161 -1.0442
   42DOPE    HB 5307   1.742   4.020   3.168 -0.1908 -1.3237  0.3947
   42DOPE    C2 5308   1.554   4.092   3.254 -0.1418  0.2049  0.0081
   42DOPE    HS 5309   1.474   4.162   3.223  0.0172  0.0626 -0.7670
   42DOPE   O21 5310   1.623   4.158   3.357 -0.5982 -0.6803  0.8254
   42DOPE   C21 5311   1.672   4.281   3.337 -0.3294 -0.4723 -0.6055
   42DOPE   O22 5312   1.651   4.355   3.245  0.2411 -0.6481  0.3248
   42DOPE   C22 5313   1.767   4.318   3.450  0.6508 -0.1930 -0.4012
   42DOPE   H2R 5314   1.797   4.224   3.501  1.0236  0.7306  1.1441
   42DOPE   H2S 5315   1.707   4.367   3.530  0.0148  0.0741 -1.0346
   42DOPE    C3 5316   1.507   3.957   3.305  0.2925  0.3886  0.2944
   42DOPE    HX 5317   1.607   3.907   3.305 -0.2039 -0.6391  1.1566
   42DOPE    HY 5318   1.454   3.903   3.224 -0.9345 -0.3491  1.5599
   42DOPE   O31 5319   1.428   3.952   3.425  0.5511  0.6097 -0.7263
   42DOPE   C31 5320   1.426   3.830   3.485 -0.5479 -0.5305 -0.0565
   42DOPE   O32 5321   1.485   3.733   3.438 -0.1430  0.4337  0.0722
   42DOPE   C32 5322   1.326   3.826   3.606  0.1423 -0.5792  0.5723
   42DOPE   H2X 5323   1.357   3.912   3.668 -0.8761  0.8920 -0.8846
   42DOPE   H2Y 5324   1.225   3.848   3.566  0.1092 -1.5086  0.1020
   42DOPE   C23 5325   1.894   4.404   3.411  0.1763  0.1426 -0.1713
   42DOPE   H3R 5326   1.869   4.511   3.398  1.5959  0.5874  0.4989
   42DOPE   H3S 5327   1.941   4.366   3.317  3.7322  0.2849  1.3783
   42DOPE   C24 5328   2.006   4.396   3.519  0.1757  0.1556  0.6160
   42DOPE   H4R 5329   2.103   4.435   3.481 -0.2848 -0.4015 -1.2570
   42DOPE   H4S 5330   2.019   4.291   3.551  1.5649 -0.1343 -0.8046
   42DOPE   C25 5331   1.965   4.466   3.649 -1.2358  0.3282 -0.3251
   42DOPE   H5R 5332   1.874   4.423   3.697  0.0707 -0.3453  1.6749
   42DOPE   H5S 5333   1.936   4.571   3.628 -0.3415  1.0389  1.7463
   42DOPE   C26 5334   2.075   4.460   3.753  0.0992 -0.6691 -0.4465
   42DOPE   H6R 5335   2.174   4.492   3.713  0.2540 -0.8474 -0.2116
   42DOPE   H6S 5336   2.089   4.362   3.804  0.1252 -0.1577  0.5723
   42DOPE   C27 5337   2.042   4.552   3.871 -0.3858 -0.4366 -0.5390
   42DOPE   H7R 5338   1.956   4.504   3.921 -1.0512  0.7653 -0.5026
   42DOPE   H7S 5339   2.008   4.650   3.832 -0.3861 -0.4656 -0.6133
   42DOPE   C28 5340   2.158   4.577   3.970  0.5821 -0.0076  0.6147
   42DOPE   H8R 5341   2.249   4.603   3.913  0.9065 -0.5536  0.8732
   42DOPE   H8S 5342   2.193   4.483   4.019 -3.0263 -1.0795  1.4976
   42DOPE   C29 5343   2.128   4.690   4.062 -0.5049  0.1129 -0.3146
   42DOPE   H9R 5344   2.108   4.787   4.015 -0.3559 -0.4233 -1.5031
   42DOPE  C210 5345   2.097   4.680   4.194  0.9915 -0.2631  0.6418
   42DOPE  H10R 5346   2.068   4.775   4.241 -1.2022  0.0661 -1.2300
   42DOPE  C211 5347   2.083   4.564   4.287 -0.2865 -0.6035  0.1778
   42DOPE  H11R 5348   2.147   4.478   4.261  0.2639 -0.2488  0.3570
   42DOPE  H11S 5349   1.983   4.517   4.300  0.0359 -1.4683 -0.3596
   42DOPE  C212 5350   2.130   4.593   4.433 -0.4346 -0.0130  0.2912
   42DOPE  H12R 5351   2.237   4.618   4.442 -0.5526  0.8860 -0.6229
   42DOPE  H12S 5352   2.108   4.500   4.490 -0.6686  0.7139  1.3989
   42DOPE  C213 5353   2.059   4.715   4.503 -0.8415 -0.2732 -1.5280
   42DOPE  H13R 5354   1.949   4.695   4.503 -1.3892  1.7710  2.2779
   42DOPE  H13S 5355   2.079   4.810   4.450  2.2932 -1.0340 -1.8819
   42DOPE  C214 5356   2.074   4.724   4.655  0.2186 -0.0660 -0.4160
   42DOPE  H14R 5357   2.014   4.644   4.703  1.6625 -1.2567 -0.5165
   42DOPE  H14S 5358   2.019   4.816   4.683 -1.8195 -1.3708  0.1063
   42DOPE  C215 5359   2.217   4.727   4.720  0.6469  0.2092  0.1224
   42DOPE  H15R 5360   2.287   4.780   4.653  2.8037  0.2796  2.2916
   42DOPE  H15S 5361   2.269   4.629   4.713  0.0019 -0.0124 -2.3538
   42DOPE  C216 5362   2.220   4.792   4.865  0.3279  0.8327  0.8901
   42DOPE  H16R 5363   2.189   4.898   4.850 -2.0458 -0.1664 -2.5794
   42DOPE  H16S 5364   2.330   4.796   4.877  0.3750 -1.2428  1.6118
   42DOPE  C217 5365   2.152   4.726   4.980  0.3772  0.6527 -0.5271
   42DOPE  H17R 5366   2.044   4.736   4.955  0.4393  1.2297 -0.5736
   42DOPE  H17S 5367   2.174   4.797   5.062  3.5254  0.3253 -0.9611
   42DOPE  C218 5368   2.188   4.584   5.021 -0.1736  0.0692  0.0033
   42DOPE  H18R 5369   2.133   4.553   5.112 -0.6163  2.7960  0.7613
   42DOPE  H18S 5370   2.296   4.571   5.046 -1.0303  0.0532  4.5581
   42DOPE  H18T 5371   2.149   4.513   4.946 -1.9688 -0.1157  1.0547
   42DOPE   C33 5372   1.340   3.689   3.674 -0.0249 -0.8894  0.1564
   42DOPE   H3X 5373   1.441   3.651   3.701 -0.9231 -2.0478  2.1663
   42DOPE   H3Y 5374   1.276   3.610   3.629 -0.2583  0.8883 -2.8657
   42DOPE   C34 5375   1.301   3.693   3.822 -0.3830  0.6348  0.5566
   42DOPE   H4X 5376   1.388   3.723   3.885  0.8163 -1.0547 -0.2264
   42DOPE   H4Y 5377   1.223   3.771   3.839  0.6865  1.4410  1.9603
   42DOPE   C35 5378   1.245   3.565   3.882  0.1572 -0.0851  0.1032
   42DOPE   H5X 5379   1.308   3.475   3.868 -0.9331 -0.6838 -1.1458
   42DOPE   H5Y 5380   1.144   3.532   3.849  0.5414 -2.3055  1.0204
   42DOPE   C36 5381   1.222   3.576   4.036 -0.6261  0.5916  0.0389
   42DOPE   H6X 5382   1.318   3.600   4.087  0.2022 -1.6327 -0.3968
   42DOPE   H6Y 5383   1.190   3.476   4.072  0.2940 -0.7276 -2.5757
   42DOPE   C37 5384   1.123   3.683   4.076 -0.0277 -0.0596  0.0934
   42DOPE   H7X 5385   1.177   3.776   4.046 -1.5322  0.4550 -1.1441
   42DOPE   H7Y 5386   1.022   3.677   4.031  0.6133 -0.8372 -1.2933
   42DOPE   C38 5387   1.106   3.683   4.232  0.2084  0.3988 -0.2023
   42DOPE   H8X 5388   1.209   3.666   4.269  0.7525  0.0234 -1.8062
   42DOPE   H8Y 5389   1.044   3.595   4.259 -0.4328  1.2787  1.3246
   42DOPE   C39 5390   1.047   3.807   4.290  0.4143  0.3329 -0.0439
   42DOPE   H9X 5391   0.950   3.831   4.243  0.1796  0.6235  0.5705
   42DOPE  C310 5392   1.104   3.889   4.383 -0.0059 -0.3658  0.3866
   42DOPE  H10X 5393   1.049   3.979   4.417  1.4049  0.2438  1.1474
   42DOPE  C311 5394   1.244   3.875   4.448  1.6248 -0.6303 -0.5979
   42DOPE  H11X 5395   1.284   3.774   4.427 -0.3079 -0.7000 -5.0106
   42DOPE  H11Y 5396   1.312   3.956   4.412  1.5635 -0.4334 -0.2689
   42DOPE  C312 5397   1.227   3.899   4.600 -0.7421  0.0482  0.1412
   42DOPE  H12X 5398   1.331   3.886   4.636 -1.2152 -1.5836  1.0557
   42DOPE  H12Y 5399   1.170   3.811   4.638 -1.5737 -0.0598 -1.2768
   42DOPE  C313 5400   1.165   4.028   4.642  0.1372  0.2639 -0.8216
   42DOPE  H13X 5401   1.056   4.042   4.627  0.0627  2.1649  1.0436
   42DOPE  H13Y 5402   1.162   4.026   4.753 -0.8616 -1.5634 -0.8365
   42DOPE  C314 5403   1.234   4.156   4.605 -0.0701 -0.2801 -0.4021
   42DOPE  H14X 5404   1.220   4.178   4.497  0.0807  0.6239 -0.2419
   42DOPE  H14Y 5405   1.343   4.149   4.626 -0.0615 -0.3168 -0.4595
   42DOPE  C315 5406   1.184   4.278   4.680 -0.0239 -0.2965 -0.4685
   42DOPE  H15X 5407   1.179   4.274   4.791 -1.2690  1.5648 -0.4101
   42DOPE  H15Y 5408   1.080   4.306   4.653 -0.4342 -2.5889 -1.5146
   42DOPE  C316 5409   1.267   4.403   4.632 -0.0275 -0.2191 -1.1094
   42DOPE  H16X 5410   1.267   4.411   4.521 -0.2799 -1.3180 -1.1941
   42DOPE  H16Y 5411   1.370   4.400   4.674 -0.5871 -1.6449  0.2236
   42DOPE  C317 5412   1.198   4.527   4.685  0.6044 -0.2285 -0.1665
   42DOPE  H17X 5413   1.088   4.522   4.666  0.5836 -0.7327  0.1008
   42DOPE  H17Y 5414   1.200   4.540   4.795 -0.3737  0.0054 -0.1585
   42DOPE  C318 5415   1.258   4.645   4.615 -0.5856 -1.1935  0.0851
   42DOPE  H18X 5416   1.300   4.600   4.522 -2.3733 -2.8851  0.0404
   42DOPE  H18Y 5417   1.200   4.730   4.573  0.2570 -1.2732 -1.3177
   42DOPE  H18Z 5418   1.345   4.678   4.677 -0.8639 -0.2397 -0.0259
   43DOPE     N 5419   1.471   3.473   3.366  0.6803 -0.5814 -0.8072
   43DOPE   HN1 5420   1.534   3.420   3.303 -2.2635 -3.5668 -1.4796
   43DOPE   HN2 5421   1.487   3.576   3.360  0.2577 -0.5164 -0.8119
   43DOPE   HN3 5422   1.504   3.438   3.458  0.4203 -1.1610 -0.9327
   43DOPE   C12 5423   1.330   3.450   3.336  0.6006  0.1148  0.3733
   43DOPE  H12A 5424   1.301   3.524   3.259  0.6694  0.3565  0.5807
   43DOPE  H12B 5425   1.273   3.473   3.428 -1.3050 -1.6504 -0.2948
   43DOPE   C11 5426   1.302   3.305   3.284  0.8597  0.2272  0.0338
   43DOPE  H11A 5427   1.192   3.288   3.290  0.9140 -1.1432 -1.9939
   43DOPE  H11B 5428   1.341   3.233   3.359 -0.5929 -0.2921  0.3332
   43DOPE     P 5429   1.477   3.214   3.117 -0.2670  0.2434 -0.1546
   43DOPE   O13 5430   1.590   3.270   3.196  0.6354  0.0556  0.8935
   43DOPE   O14 5431   1.502   3.203   2.972 -0.6011  0.4264 -0.0273
   43DOPE   O11 5432   1.457   3.075   3.182 -0.0051 -0.2171  0.0401
   43DOPE   O12 5433   1.337   3.287   3.150 -0.6872 -0.2881  0.6207
   43DOPE    C1 5434   1.348   2.991   3.135  0.2145 -0.0715 -0.0302
   43DOPE    HA 5435   1.391   2.896   3.098 -0.4779 -0.8638  1.1225
   43DOPE    HB 5436   1.292   3.037   3.051 -0.5247  0.8884  0.9566
   43DOPE    C2 5437   1.234   2.960   3.236 -0.5732 -0.4071  0.1644
   43DOPE    HS 5438   1.167   3.049   3.240 -2.2678 -1.5543 -1.0134
   43DOPE   O21 5439   1.296   2.935   3.360  0.2575 -0.3442 -0.2036
   43DOPE   C21 5440   1.248   2.989   3.476  0.4583 -0.3865  0.6393
   43DOPE   O22 5441   1.182   3.089   3.487  0.6980 -0.5644 -0.4170
   43DOPE   C22 5442   1.295   2.903   3.596 -0.3300 -0.1391 -0.6702
   43DOPE   H2R 5443   1.395   2.861   3.573  0.3363  1.3766 -0.6356
   43DOPE   H2S 5444   1.220   2.822   3.606  0.2489 -0.9650 -2.5816
   43DOPE    C3 5445   1.139   2.841   3.188 -0.2317 -0.4389  0.6001
   43DOPE    HX 5446   1.206   2.752   3.186  1.8286  1.0285  1.0190
   43DOPE    HY 5447   1.115   2.863   3.081  5.1511  0.7256 -0.6893
   43DOPE   O31 5448   1.035   2.806   3.279  0.7349 -0.4091  0.3751
   43DOPE   C31 5449   0.936   2.883   3.293  0.2619 -0.4637  0.5034
   43DOPE   O32 5450   0.916   2.997   3.251  0.0073 -0.4014  0.2735
   43DOPE   C32 5451   0.843   2.827   3.402  0.3962  0.0002 -0.4830
   43DOPE   H2X 5452   0.740   2.868   3.389  0.6845  0.9496  0.1358
   43DOPE   H2Y 5453   0.840   2.716   3.398  1.4596 -0.1421  1.4577
   43DOPE   C23 5454   1.295   2.980   3.732  0.3785  0.2293 -0.0251
   43DOPE   H3R 5455   1.203   3.041   3.737  0.4007  0.2198  3.7321
   43DOPE   H3S 5456   1.379   3.052   3.727  2.9731 -2.5880 -4.8020
   43DOPE   C24 5457   1.306   2.893   3.858  0.3217 -0.0943 -0.5157
   43DOPE   H4R 5458   1.400   2.834   3.857  0.2118 -0.3490  1.2224
   43DOPE   H4S 5459   1.217   2.826   3.865  1.0590 -0.9982  0.5392
   43DOPE   C25 5460   1.317   2.968   3.991  0.7818  0.0389 -0.0309
   43DOPE   H5R 5461   1.407   3.034   3.991  0.3110  0.6948 -0.2275
   43DOPE   H5S 5462   1.334   2.892   4.070 -0.3571 -0.8805 -0.6513
   43DOPE   C26 5463   1.195   3.047   4.036 -0.5402  0.5949  0.4832
   43DOPE   H6R 5464   1.105   2.982   4.034 -0.1099  0.0123 -0.5340
   43DOPE   H6S 5465   1.177   3.128   3.961  0.9174 -0.1018 -0.6710
   43DOPE   C27 5466   1.220   3.096   4.176 -0.5532  0.2901 -0.4089
   43DOPE   H7R 5467   1.285   3.184   4.159 -2.9724  2.6230  1.5522
   43DOPE   H7S 5468   1.272   3.024   4.242  1.2500  2.1334  0.2902
   43DOPE   C28 5469   1.099   3.151   4.256  0.0573 -0.1490  0.2429
   43DOPE   H8R 5470   1.046   3.226   4.194 -0.4102 -0.6779 -0.0077
   43DOPE   H8S 5471   1.129   3.196   4.353 -0.2970  0.1240  0.2281
   43DOPE   C29 5472   1.006   3.039   4.294 -0.4444 -0.3187 -0.6659
   43DOPE   H9R 5473   0.974   2.969   4.216 -0.2560 -1.7573  0.5042
   43DOPE  C210 5474   0.963   3.011   4.417 -0.1146 -0.1865 -0.4164
   43DOPE  H10R 5475   0.887   2.932   4.426 -0.0159 -0.3689 -1.1346
   43DOPE  C211 5476   0.999   3.078   4.545  0.3926  0.3543  0.2622
   43DOPE  H11R 5477   1.050   3.176   4.533  0.6684  0.2459  0.5358
   43DOPE  H11S 5478   1.065   3.009   4.602 -1.2131 -2.4924 -1.1224
   43DOPE  C212 5479   0.882   3.119   4.638  0.0873 -0.4450 -0.6889
   43DOPE  H12R 5480   0.927   3.184   4.717 -0.3918  1.7435 -2.1242
   43DOPE  H12S 5481   0.838   3.024   4.676  0.0703 -0.1701 -0.0037
   43DOPE  C213 5482   0.765   3.208   4.582  0.4164  0.2691 -0.1658
   43DOPE  H13R 5483   0.727   3.150   4.496  1.6890  0.7754 -1.1027
   43DOPE  H13S 5484   0.810   3.296   4.530  1.0837 -0.8824 -1.6033
   43DOPE  C214 5485   0.656   3.243   4.690  0.0996 -0.0697  0.1977
   43DOPE  H14R 5486   0.710   3.306   4.764 -0.1288  1.0617 -0.5765
   43DOPE  H14S 5487   0.614   3.152   4.739 -2.9129  1.0035 -0.1799
   43DOPE  C215 5488   0.533   3.323   4.630  0.6409  0.5646 -0.2540
   43DOPE  H15R 5489   0.486   3.250   4.562  2.5265  0.8777 -2.0125
   43DOPE  H15S 5490   0.557   3.417   4.576  0.8559  0.2462 -0.7150
   43DOPE  C216 5491   0.418   3.363   4.728 -0.3815  0.1590  0.6558
   43DOPE  H16R 5492   0.413   3.287   4.810  3.0391  0.8406  1.6453
   43DOPE  H16S 5493   0.321   3.353   4.675 -0.5187 -0.0978  0.9476
   43DOPE  C217 5494   0.429   3.503   4.783 -0.5704 -0.0866  0.9532
   43DOPE  H17R 5495   0.536   3.512   4.810 -0.8810  1.9961  1.6660
   43DOPE  H17S 5496   0.360   3.511   4.869 -1.1650  1.2246  0.3967
   43DOPE  C218 5497   0.386   3.609   4.685 -0.5308 -0.9762  0.2473
   43DOPE  H18R 5498   0.285   3.598   4.641 -0.1946  1.7474 -1.4891
   43DOPE  H18S 5499   0.457   3.607   4.600 -0.5183 -0.1016  0.2237
   43DOPE  H18T 5500   0.396   3.707   4.737  0.4825 -1.0003  0.1083
   43DOPE   C33 5501   0.892   2.852   3.544 -0.3340 -0.4810 -0.9895
   43DOPE   H3X 5502   0.904   2.962   3.554 -0.8944 -0.5959  1.5405
   43DOPE   H3Y 5503   0.984   2.797   3.572 -0.1385  0.3262  0.0079
   43DOPE   C34 5504   0.797   2.794   3.655 -0.3852 -0.3878  0.4391
   43DOPE   H4X 5505   0.689   2.809   3.634  0.1537 -0.9269 -3.3690
   43DOPE   H4Y 5506   0.811   2.685   3.667  1.8294 -0.4037 -1.4706
   43DOPE   C35 5507   0.832   2.846   3.792 -0.1858 -0.1686  0.2527
   43DOPE   H5X 5508   0.805   2.953   3.803  3.2898  0.9679 -1.0575
   43DOPE   H5Y 5509   0.941   2.841   3.810 -0.0424 -1.4335 -0.7741
   43DOPE   C36 5510   0.773   2.756   3.899  0.3039  0.4816 -0.5497
   43DOPE   H6X 5511   0.817   2.654   3.904 -0.7113 -0.1797 -3.2221
   43DOPE   H6Y 5512   0.662   2.745   3.894  0.3600 -0.5832  0.1175
   43DOPE   C37 5513   0.806   2.818   4.033 -0.5071 -0.3547 -0.1040
   43DOPE   H7X 5514   0.914   2.803   4.051 -0.1506  0.1798 -1.6384
   43DOPE   H7Y 5515   0.784   2.926   4.018 -0.2277  0.0488  2.0646
   43DOPE   C38 5516   0.712   2.784   4.150 -0.4495  0.5052  0.3311
   43DOPE   H8X 5517   0.609   2.805   4.116 -0.9002  0.2051  1.4652
   43DOPE   H8Y 5518   0.734   2.859   4.229  1.7104  1.5665 -1.1655
   43DOPE   C39 5519   0.729   2.639   4.195  0.1517  0.2590  0.5689
   43DOPE   H9X 5520   0.747   2.567   4.114  1.3343  1.1832 -0.0380
   43DOPE  C310 5521   0.726   2.602   4.325  0.1933  0.6603  0.2610
   43DOPE  H10X 5522   0.740   2.498   4.358  0.2523  1.3289  2.4886
   43DOPE  C311 5523   0.709   2.695   4.439  0.2946 -0.5174 -0.6686
   43DOPE  H11X 5524   0.789   2.672   4.512 -1.5004 -1.6805  1.0316
   43DOPE  H11Y 5525   0.721   2.802   4.409  1.2441  0.6255  3.1935
   43DOPE  C312 5526   0.579   2.694   4.522  0.0810 -0.3485 -0.0189
   43DOPE  H12X 5527   0.571   2.591   4.562  0.8718 -0.3040  0.2798
   43DOPE  H12Y 5528   0.499   2.712   4.447  0.2549 -0.2557 -0.1827
   43DOPE  C313 5529   0.572   2.805   4.629  0.2386  0.5764 -0.7195
   43DOPE  H13X 5530   0.662   2.813   4.694 -0.2301  0.6942 -0.0704
   43DOPE  H13Y 5531   0.568   2.902   4.576 -0.4444  1.7495  1.3603
   43DOPE  C314 5532   0.445   2.791   4.721 -0.4630 -0.1690 -0.7469
   43DOPE  H14X 5533   0.410   2.688   4.745 -4.2134  0.5271 -2.4082
   43DOPE  H14Y 5534   0.352   2.832   4.676 -1.5321 -1.7631 -0.0853
   43DOPE  C315 5535   0.452   2.866   4.856  0.9356 -0.1834  0.1197
   43DOPE  H15X 5536   0.474   2.973   4.837  2.0023 -0.6827 -1.7535
   43DOPE  H15Y 5537   0.538   2.818   4.909  1.0661  0.0466  0.1185
   43DOPE  C316 5538   0.340   2.843   4.957  0.5769  0.6464 -0.4499
   43DOPE  H16X 5539   0.336   2.734   4.976  0.3797  0.3803 -1.8934
   43DOPE  H16Y 5540   0.245   2.884   4.916  1.6442  1.3269 -2.3352
   43DOPE  C317 5541   0.373   2.882   5.101  0.5159 -0.5715 -0.2800
   43DOPE  H17X 5542   0.455   2.819   5.141  0.7582 -0.1204 -0.0586
   43DOPE  H17Y 5543   0.404   2.988   5.103 -2.2242  0.2976  1.0882
   43DOPE  C318 5544   0.257   2.855   5.201 -0.2658 -0.2310  0.0212
   43DOPE  H18X 5545   0.288   2.878   5.305  3.0989  1.2530 -1.1720
   43DOPE  H18Y 5546   0.172   2.923   5.175 -0.0720 -0.0229 -0.0775
   43DOPE  H18Z 5547   0.223   2.750   5.194  2.0805 -1.0096 -0.4053
   44DOPE     N 5548   2.862   1.441   2.714  0.0705  0.2828  0.2932
   44DOPE   HN1 5549   2.841   1.422   2.614  3.2519 -0.7386 -0.2896
   44DOPE   HN2 5550   2.922   1.364   2.750  0.2668 -0.7330 -2.0151
   44DOPE   HN3 5551   2.773   1.437   2.768  0.5955 -2.1208  1.0727
   44DOPE   C12 5552   2.918   1.573   2.724  1.0068  0.4386 -0.3798
   44DOPE  H12A 5553   2.836   1.648   2.723  0.3698 -0.2474  0.1270
   44DOPE  H12B 5554   2.987   1.591   2.638 -0.1924 -0.0156 -1.4648
   44DOPE   C11 5555   2.989   1.568   2.861  0.4167 -0.5866 -0.4276
   44DOPE  H11A 5556   3.069   1.645   2.868 -0.8894  0.8830 -0.8750
   44DOPE  H11B 5557   3.048   1.475   2.873  1.1046 -0.0030  0.8700
   44DOPE     P 5558   2.955   1.645   3.108 -0.5473 -0.1558 -0.4027
   44DOPE   O13 5559   2.954   1.793   3.094 -0.2225 -0.2024  0.3835
   44DOPE   O14 5560   3.070   1.573   3.156 -0.6931 -0.0132 -0.2320
   44DOPE   O11 5561   2.832   1.605   3.197  0.3758  0.6024  0.7155
   44DOPE   O12 5562   2.897   1.582   2.966 -0.0478 -0.3866 -0.0707
   44DOPE    C1 5563   2.780   1.471   3.209 -0.5116 -0.1600 -0.4475
   44DOPE    HA 5564   2.796   1.399   3.126  1.1424  1.1719 -1.3284
   44DOPE    HB 5565   2.671   1.479   3.228 -0.7244  0.0521 -1.6932
   44DOPE    C2 5566   2.848   1.411   3.330  0.1985  0.1518 -1.0173
   44DOPE    HS 5567   2.958   1.415   3.339  0.0826  1.7967  0.1349
   44DOPE   O21 5568   2.787   1.276   3.357  0.2478 -0.6497 -0.4040
   44DOPE   C21 5569   2.836   1.181   3.270 -0.6130  0.0027 -0.6527
   44DOPE   O22 5570   2.925   1.199   3.190 -0.3864 -0.1567  0.5338
   44DOPE   C22 5571   2.760   1.049   3.280  0.0979 -0.2047 -0.4200
   44DOPE   H2R 5572   2.753   1.016   3.175 -0.9115 -1.1469 -0.0685
   44DOPE   H2S 5573   2.660   1.057   3.327  1.2260 -0.0251  2.1220
   44DOPE    C3 5574   2.796   1.501   3.451 -0.7688 -1.0623 -0.5953
   44DOPE    HX 5575   2.685   1.503   3.447 -0.8095  0.9747  0.3452
   44DOPE    HY 5576   2.834   1.604   3.434  1.0703 -1.4864  0.7132
   44DOPE   O31 5577   2.830   1.441   3.579 -0.3217 -0.4683 -0.0697
   44DOPE   C31 5578   2.953   1.456   3.607 -0.4123  0.3607 -0.3345
   44DOPE   O32 5579   3.033   1.535   3.560  0.3387  0.6158  0.5481
   44DOPE   C32 5580   2.990   1.343   3.698  0.0101 -0.9382  0.4460
   44DOPE   H2X 5581   2.899   1.306   3.751 -0.7756 -0.2102 -0.3450
   44DOPE   H2Y 5582   3.028   1.258   3.636  0.6540  0.2008 -0.7629
   44DOPE   C23 5583   2.841   0.953   3.369  0.4060  0.2676  0.1384
   44DOPE   H3R 5584   2.948   0.965   3.341  0.1103  0.6584 -0.8613
   44DOPE   H3S 5585   2.819   0.846   3.350  2.1958 -0.3660  1.2771
   44DOPE   C24 5586   2.836   0.983   3.523  0.2866 -0.4050 -0.6662
   44DOPE   H4R 5587   2.733   0.962   3.558  0.5890  0.1137  0.6262
   44DOPE   H4S 5588   2.863   1.088   3.548 -0.9423  0.1108 -1.4526
   44DOPE   C25 5589   2.928   0.900   3.612  0.2535  0.2140 -0.3302
   44DOPE   H5R 5590   3.037   0.916   3.596  0.0306  1.4850 -0.6625
   44DOPE   H5S 5591   2.896   0.799   3.579 -0.4805  0.4453 -0.3472
   44DOPE   C26 5592   2.907   0.919   3.756 -0.2322  0.2325 -0.4408
   44DOPE   H6R 5593   2.796   0.927   3.764 -0.1315 -0.0975  1.6828
   44DOPE   H6S 5594   2.938   1.019   3.791  1.2867 -0.6977  0.9987
   44DOPE   C27 5595   2.983   0.812   3.844  0.2762 -0.3127  0.1950
   44DOPE   H7R 5596   3.090   0.803   3.816  0.2388 -1.3727  0.3460
   44DOPE   H7S 5597   2.941   0.713   3.814  0.4271  0.9475 -5.2033
   44DOPE   C28 5598   2.983   0.828   4.002 -0.0760 -0.3381 -0.2289
   44DOPE   H8R 5599   2.876   0.824   4.028  0.4060 -0.0895  1.9203
   44DOPE   H8S 5600   3.013   0.934   4.017 -2.4313  0.3023  0.3541
   44DOPE   C29 5601   3.057   0.730   4.088 -0.1475 -0.2189 -0.8046
   44DOPE   H9R 5602   2.999   0.653   4.141  2.6905 -1.3622  0.8442
   44DOPE  C210 5603   3.192   0.741   4.111  0.7768  0.3340  0.2486
   44DOPE  H10R 5604   3.241   0.660   4.165 -1.7249 -1.4781 -0.0203
   44DOPE  C211 5605   3.277   0.847   4.053  0.0435 -0.8175 -0.5811
   44DOPE  H11R 5606   3.228   0.910   3.975  0.1413 -0.2448 -0.1865
   44DOPE  H11S 5607   3.363   0.798   4.002  2.5337  2.3654  0.2355
   44DOPE  C212 5608   3.317   0.940   4.176  1.2432  0.3979  0.0792
   44DOPE  H12R 5609   3.221   0.980   4.217  0.6753  1.3666 -2.0027
   44DOPE  H12S 5610   3.367   1.026   4.126  1.7324 -1.1952 -2.3733
   44DOPE  C213 5611   3.406   0.871   4.277  0.3461  0.2254  0.1966
   44DOPE  H13R 5612   3.499   0.831   4.231  0.0589 -0.8948  0.5704
   44DOPE  H13S 5613   3.359   0.782   4.324 -2.0947  1.1290 -0.3469
   44DOPE  C214 5614   3.437   0.972   4.395 -0.6132 -0.3069  0.0359
   44DOPE  H14R 5615   3.341   0.979   4.450  0.4846 -1.5248  2.2414
   44DOPE  H14S 5616   3.483   1.064   4.355  1.4991  0.6090  4.0749
   44DOPE  C215 5617   3.543   0.908   4.483  0.1243  0.2893 -0.0920
   44DOPE  H15R 5618   3.633   0.886   4.421  0.7624  2.4257 -0.0134
   44DOPE  H15S 5619   3.507   0.812   4.526  2.6204 -0.7685 -0.1707
   44DOPE  C216 5620   3.594   0.994   4.598 -0.1656  0.0894 -0.1839
   44DOPE  H16R 5621   3.539   0.982   4.693  1.9033  2.2418  1.3908
   44DOPE  H16S 5622   3.607   1.099   4.564  3.1506 -0.3566 -0.5541
   44DOPE  C217 5623   3.737   0.958   4.636 -0.0471  0.0329  0.6368
   44DOPE  H17R 5624   3.774   1.000   4.732  3.0184 -1.3519  0.1601
   44DOPE  H17S 5625   3.803   0.979   4.550 -0.9087 -4.1413 -1.3020
   44DOPE  C218 5626   3.757   0.804   4.652  0.9809 -0.9124  0.1262
   44DOPE  H18R 5627   3.769   0.751   4.556  2.3592 -1.3156  0.4929
   44DOPE  H18S 5628   3.672   0.758   4.707  1.8729 -1.1081  1.4054
   44DOPE  H18T 5629   3.842   0.770   4.715 -0.9031 -0.4305  3.1481
   44DOPE   C33 5630   3.093   1.394   3.794  0.5854 -0.0633 -0.4602
   44DOPE   H3X 5631   3.181   1.437   3.742  0.7868 -0.7932 -0.7351
   44DOPE   H3Y 5632   3.124   1.304   3.852 -1.6649 -0.0356  0.9051
   44DOPE   C34 5633   3.032   1.493   3.889  0.4643 -0.0452 -0.3887
   44DOPE   H4X 5634   3.019   1.594   3.845  0.4694  0.1166 -0.0212
   44DOPE   H4Y 5635   2.931   1.455   3.915 -0.0761  1.1006 -0.7548
   44DOPE   C35 5636   3.119   1.525   4.013  0.5085  0.0739 -0.3152
   44DOPE   H5X 5637   3.071   1.595   4.085  1.1212 -0.9589  1.1654
   44DOPE   H5Y 5638   3.219   1.562   3.982  1.1998 -0.9127  0.6437
   44DOPE   C36 5639   3.147   1.404   4.102 -0.1660  0.4582 -0.9593
   44DOPE   H6X 5640   3.199   1.323   4.047 -0.3404 -0.3207 -0.0209
   44DOPE   H6Y 5641   3.047   1.374   4.141 -0.1844  1.7699  0.0953
   44DOPE   C37 5642   3.249   1.440   4.216  0.0363  0.0038 -0.5515
   44DOPE   H7X 5643   3.334   1.490   4.164  0.2540 -0.1872 -0.3823
   44DOPE   H7Y 5644   3.201   1.510   4.287  0.0759 -0.8959  0.3771
   44DOPE   C38 5645   3.301   1.313   4.288 -0.1551  0.1258 -0.4094
   44DOPE   H8X 5646   3.378   1.335   4.365 -0.1173  1.0913 -0.7087
   44DOPE   H8Y 5647   3.349   1.243   4.216  0.1643 -1.0886  0.9347
   44DOPE   C39 5648   3.189   1.242   4.357  0.2806 -0.1711  0.1502
   44DOPE   H9X 5649   3.132   1.170   4.296 -0.1843  1.1073 -0.9858
   44DOPE  C310 5650   3.155   1.252   4.492  0.6538  0.5463  0.2191
   44DOPE  H10X 5651   3.071   1.189   4.525  2.0923 -0.2613  2.6289
   44DOPE  C311 5652   3.228   1.335   4.597  0.2854  0.0779 -0.5378
   44DOPE  H11X 5653   3.305   1.404   4.557 -0.2987 -0.1426 -2.1059
   44DOPE  H11Y 5654   3.160   1.411   4.642 -2.5551 -2.4817 -0.1830
   44DOPE  C312 5655   3.295   1.255   4.712 -0.1398  0.6437  0.0404
   44DOPE  H12X 5656   3.332   1.161   4.666 -1.6566  0.2333 -0.4163
   44DOPE  H12Y 5657   3.231   1.244   4.802  0.4738 -1.7190  0.2695
   44DOPE  C313 5658   3.418   1.327   4.768 -0.5173  0.0148  0.0058
   44DOPE  H13X 5659   3.489   1.355   4.687  0.6762  0.1676  1.0727
   44DOPE  H13Y 5660   3.397   1.423   4.820  2.5816 -0.5326  2.5863
   44DOPE  C314 5661   3.475   1.244   4.882 -0.1887  0.4920 -0.8208
   44DOPE  H14X 5662   3.499   1.144   4.841  0.2120 -0.1151  0.8143
   44DOPE  H14Y 5663   3.396   1.239   4.960 -0.1509  2.9998 -0.5247
   44DOPE  C315 5664   3.598   1.304   4.934 -0.2947 -0.3338  0.6111
   44DOPE  H15X 5665   3.631   1.244   5.021  0.3349 -0.6872  0.1435
   44DOPE  H15Y 5666   3.574   1.401   4.982 -1.0052 -1.1365  1.9422
   44DOPE  C316 5667   3.714   1.320   4.834 -0.0147  0.2593 -0.9720
   44DOPE  H16X 5668   3.692   1.391   4.753  0.5329  1.1155 -0.3881
   44DOPE  H16Y 5669   3.717   1.218   4.789 -0.7216 -0.1338 -0.1553
   44DOPE  C317 5670   3.840   1.343   4.911  0.0541 -0.2454 -0.4820
   44DOPE  H17X 5671   3.834   1.446   4.953 -1.5886 -1.0408  1.4040
   44DOPE  H17Y 5672   3.858   1.257   4.978 -1.0182  0.9882  1.4981
   44DOPE  C318 5673   3.962   1.331   4.818  0.4462  0.1773 -0.1177
   44DOPE  H18X 5674   3.981   1.224   4.792 -0.7922  0.4309 -2.3252
   44DOPE  H18Y 5675   3.933   1.380   4.722  0.6500  1.6718  0.5697
   44DOPE  H18Z 5676   4.050   1.381   4.864 -0.6611  0.4492  1.7766
   45DOPE     N 5677   4.479   1.369   2.693 -0.3244  0.6276 -0.2289
   45DOPE   HN1 5678   4.537   1.284   2.677 -1.3998  0.0710 -1.3356
   45DOPE   HN2 5679   4.405   1.359   2.620  1.5059 -1.9640 -1.9224
   45DOPE   HN3 5680   4.535   1.452   2.662 -0.0674  0.4081 -0.3550
   45DOPE   C12 5681   4.428   1.408   2.829 -0.3046  0.6672 -0.1378
   45DOPE  H12A 5682   4.401   1.515   2.832 -0.2706  0.6985 -0.8626
   45DOPE  H12B 5683   4.511   1.401   2.903  1.0494  0.6691 -1.6094
   45DOPE   C11 5684   4.311   1.319   2.866  0.8769  0.3650 -0.8976
   45DOPE  H11A 5685   4.227   1.344   2.797  2.6348  1.7104 -2.6750
   45DOPE  H11B 5686   4.293   1.361   2.967  2.6138  0.6282 -0.6781
   45DOPE     P 5687   4.261   1.056   2.895 -0.0193 -0.2374  0.3552
   45DOPE   O13 5688   4.346   0.947   2.940 -0.1205  0.5596  0.1700
   45DOPE   O14 5689   4.169   1.032   2.782 -0.0873  0.0184 -0.0081
   45DOPE   O11 5690   4.164   1.103   3.011  0.0744  0.2448  0.5105
   45DOPE   O12 5691   4.349   1.187   2.859 -0.3796  0.3454  0.4032
   45DOPE    C1 5692   4.190   1.165   3.138  0.4189  1.0417  0.4228
   45DOPE    HA 5693   4.195   1.276   3.135 -0.5076  1.0981  0.3842
   45DOPE    HB 5694   4.284   1.118   3.173  0.6381  1.8896  1.0219
   45DOPE    C2 5695   4.076   1.129   3.236  0.2261 -0.3590 -0.0601
   45DOPE    HS 5696   3.979   1.174   3.207  0.5021  0.1346 -0.2301
   45DOPE   O21 5697   4.106   1.197   3.361 -0.0694  0.2006  0.3903
   45DOPE   C21 5698   4.012   1.207   3.447 -0.4347  0.1323  0.6391
   45DOPE   O22 5699   3.897   1.162   3.441 -0.4863 -0.3523  0.1790
   45DOPE   C22 5700   4.045   1.311   3.551 -1.1623  0.0918  0.8042
   45DOPE   H2R 5701   4.027   1.411   3.505  1.9725  1.0407  1.4287
   45DOPE   H2S 5702   4.154   1.304   3.569 -0.9804 -1.4334 -0.6078
   45DOPE    C3 5703   4.079   0.974   3.263 -0.8329  0.1338 -0.4213
   45DOPE    HX 5704   4.051   0.921   3.170  0.5216 -2.3621  0.4959
   45DOPE    HY 5705   3.990   0.940   3.320  0.5743 -0.3026  1.6380
   45DOPE   O31 5706   4.204   0.924   3.323 -0.0331  0.3046 -0.7053
   45DOPE   C31 5707   4.245   0.805   3.278 -0.1670  0.1258  0.1681
   45DOPE   O32 5708   4.189   0.730   3.203 -0.1821 -0.0156 -0.2908
   45DOPE   C32 5709   4.374   0.774   3.355  0.3654  0.3709  0.1767
   45DOPE   H2X 5710   4.443   0.714   3.292  2.7125  1.1669  1.8380
   45DOPE   H2Y 5711   4.422   0.872   3.374 -0.7639  1.0055 -0.1529
   45DOPE   C23 5712   3.977   1.287   3.691 -0.7626  0.2652  0.5304
   45DOPE   H3R 5713   4.007   1.187   3.728  0.1580  0.4767  0.3743
   45DOPE   H3S 5714   3.867   1.301   3.683 -0.4346  2.9299 -0.7868
   45DOPE   C24 5715   4.038   1.382   3.797 -0.4786 -0.0366 -0.0364
   45DOPE   H4R 5716   4.027   1.488   3.763 -0.8327  0.1380  0.6018
   45DOPE   H4S 5717   4.149   1.375   3.806 -0.4352 -0.3941 -0.8600
   45DOPE   C25 5718   3.981   1.369   3.940  0.4449  0.5670 -0.1919
   45DOPE   H5R 5719   3.991   1.261   3.960  0.8466  0.4156 -1.1667
   45DOPE   H5S 5720   3.871   1.389   3.943  0.5479  1.0181  0.8117
   45DOPE   C26 5721   4.048   1.460   4.042 -0.7071 -0.5773 -0.2933
   45DOPE   H6R 5722   4.041   1.565   4.005  1.1716 -1.0351 -2.1521
   45DOPE   H6S 5723   4.155   1.434   4.051  0.0193  1.8884 -1.0679
   45DOPE   C27 5724   3.984   1.451   4.180  0.3108 -0.4519  0.4179
   45DOPE   H7R 5725   3.999   1.350   4.224  3.1616 -1.2337 -2.0427
   45DOPE   H7S 5726   3.876   1.473   4.164  1.0083  1.8453 -1.6761
   45DOPE   C28 5727   4.056   1.557   4.270 -0.3001 -0.2750 -0.2333
   45DOPE   H8R 5728   4.039   1.660   4.230 -1.5857 -1.4617 -3.0314
   45DOPE   H8S 5729   4.166   1.543   4.265 -0.6651 -3.6347 -0.9407
   45DOPE   C29 5730   3.994   1.553   4.408 -1.1041  0.1597  0.4032
   45DOPE   H9R 5731   3.887   1.529   4.416 -1.0362  0.0794  1.2225
   45DOPE  C210 5732   4.056   1.564   4.527  0.5367 -0.2753 -0.3130
   45DOPE  H10R 5733   3.989   1.542   4.612 -0.5707  0.0375 -1.0725
   45DOPE  C211 5734   4.202   1.589   4.551  0.0662 -0.0293  0.6788
   45DOPE  H11R 5735   4.225   1.694   4.523  1.5056 -0.8053 -1.2679
   45DOPE  H11S 5736   4.261   1.526   4.481 -1.0821 -1.1077  0.6251
   45DOPE  C212 5737   4.251   1.567   4.689 -0.5238 -0.3276  0.1535
   45DOPE  H12R 5738   4.361   1.557   4.702 -0.5249  1.0074  1.4951
   45DOPE  H12S 5739   4.206   1.472   4.724 -0.5736 -0.0089  0.9932
   45DOPE  C213 5740   4.199   1.668   4.800  0.0874  0.2212  0.3316
   45DOPE  H13R 5741   4.206   1.620   4.901 -0.5279 -0.8360 -0.1090
   45DOPE  H13S 5742   4.093   1.682   4.772 -0.3162 -3.3337 -0.4138
   45DOPE  C214 5743   4.267   1.805   4.804 -0.1497  1.0774 -0.6009
   45DOPE  H14R 5744   4.209   1.884   4.856 -0.1797  0.7251 -0.0950
   45DOPE  H14S 5745   4.292   1.849   4.705  1.0280  0.3586 -0.6397
   45DOPE  C215 5746   4.398   1.795   4.880  0.7939  0.6368  0.8304
   45DOPE  H15R 5747   4.463   1.730   4.817 -0.1988  1.4457 -1.0982
   45DOPE  H15S 5748   4.386   1.731   4.971 -0.2426 -3.0106 -1.6303
   45DOPE  C216 5749   4.462   1.928   4.912 -0.8209  1.3220 -0.3213
   45DOPE  H16R 5750   4.396   1.963   4.994  0.9995  0.1223  1.7595
   45DOPE  H16S 5751   4.467   1.995   4.823  0.7310  0.5277 -0.8655
   45DOPE  C217 5752   4.598   1.926   4.988  0.5233  0.0961 -0.1350
   45DOPE  H17R 5753   4.688   1.917   4.923  0.7039  1.9054 -0.1916
   45DOPE  H17S 5754   4.591   1.844   5.062 -1.8138  0.0689 -0.3171
   45DOPE  C218 5755   4.641   2.051   5.065  0.6009  0.5647 -0.0794
   45DOPE  H18R 5756   4.556   2.082   5.129 -0.0039 -0.5261 -0.3338
   45DOPE  H18S 5757   4.683   2.137   5.009  0.3946  0.8869  0.2597
   45DOPE  H18T 5758   4.704   2.020   5.150  0.9858  0.0770 -0.5343
   45DOPE   C33 5759   4.345   0.702   3.490 -0.2667  1.3564 -0.3218
   45DOPE   H3X 5760   4.269   0.761   3.544 -0.9172 -0.0664  0.3777
   45DOPE   H3Y 5761   4.435   0.702   3.555 -0.5475  0.9219  0.0763
   45DOPE   C34 5762   4.312   0.550   3.472  0.2037 -0.0466  0.8776
   45DOPE   H4X 5763   4.251   0.550   3.378 -1.1356  3.0290  1.6365
   45DOPE   H4Y 5764   4.404   0.496   3.441  0.1682  0.8186 -0.8713
   45DOPE   C35 5765   4.246   0.479   3.589  0.1560 -0.1760 -1.2321
   45DOPE   H5X 5766   4.214   0.381   3.548  0.8835  0.1511 -2.6545
   45DOPE   H5Y 5767   4.150   0.533   3.596 -1.0171 -2.1573 -1.4276
   45DOPE   C36 5768   4.335   0.475   3.712 -0.4430  0.2895 -0.4714
   45DOPE   H6X 5769   4.381   0.573   3.738 -0.2673 -0.3129  1.6561
   45DOPE   H6Y 5770   4.423   0.411   3.689  0.5701  0.9407  1.3918
   45DOPE   C37 5771   4.267   0.420   3.842  0.9341  0.8462  0.3299
   45DOPE   H7X 5772   4.196   0.501   3.873  0.3547 -0.7151  3.5063
   45DOPE   H7Y 5773   4.218   0.321   3.832 -1.3314  2.0419 -1.2360
   45DOPE   C38 5774   4.363   0.407   3.962  0.1735 -0.3427  0.0754
   45DOPE   H8X 5775   4.438   0.488   3.970 -0.1568 -0.0701  0.4763
   45DOPE   H8Y 5776   4.427   0.317   3.956  1.2214  0.1795  2.4175
   45DOPE   C39 5777   4.293   0.386   4.096 -0.0043 -0.2230  0.4068
   45DOPE   H9X 5778   4.234   0.294   4.106 -2.0848  1.3336  4.4648
   45DOPE  C310 5779   4.311   0.472   4.203  0.5795 -0.0044  0.7874
   45DOPE  H10X 5780   4.244   0.465   4.290 -1.7259  1.2658 -0.7790
   45DOPE  C311 5781   4.395   0.597   4.206 -0.5175  0.1209 -0.2960
   45DOPE  H11X 5782   4.443   0.623   4.110  2.0650 -1.1255  0.5595
   45DOPE  H11Y 5783   4.335   0.686   4.235 -1.0186  0.7240 -2.9846
   45DOPE  C312 5784   4.514   0.583   4.309 -0.3281 -0.3668 -0.7392
   45DOPE  H12X 5785   4.580   0.671   4.293  2.5653 -2.2994 -0.0317
   45DOPE  H12Y 5786   4.581   0.498   4.288  0.5321 -0.0030  0.4197
   45DOPE  C313 5787   4.467   0.578   4.456 -0.2179 -0.3037 -0.7673
   45DOPE  H13X 5788   4.378   0.636   4.490 -1.1675 -2.1324 -0.0343
   45DOPE  H13Y 5789   4.449   0.474   4.490  0.0148 -0.4064 -0.9578
   45DOPE  C314 5790   4.580   0.619   4.551 -0.1067 -0.3795 -0.0829
   45DOPE  H14X 5791   4.595   0.729   4.549  2.5159 -0.6759  0.0439
   45DOPE  H14Y 5792   4.680   0.585   4.515 -0.0421 -1.3010  0.8934
   45DOPE  C315 5793   4.561   0.571   4.696 -0.3113  0.5799 -0.2201
   45DOPE  H15X 5794   4.529   0.465   4.696  1.4798  0.0075 -0.0297
   45DOPE  H15Y 5795   4.479   0.638   4.731 -0.0694  0.6326  0.2519
   45DOPE  C316 5796   4.687   0.568   4.778  0.3658  0.5376  0.5745
   45DOPE  H16X 5797   4.721   0.673   4.794 -1.8568  1.2931  0.8068
   45DOPE  H16Y 5798   4.765   0.502   4.736  0.7317  1.5104 -0.3030
   45DOPE  C317 5799   4.644   0.497   4.909 -0.6962  0.6299 -0.0775
   45DOPE  H17X 5800   4.576   0.566   4.965  3.6246  2.9665  2.8412
   45DOPE  H17Y 5801   4.569   0.419   4.882 -1.6227  1.8029 -1.0052
   45DOPE  C318 5802   4.760   0.433   4.985  0.2993 -0.1349  1.1188
   45DOPE  H18X 5803   4.742   0.428   5.095 -1.0481 -0.1671  0.9132
   45DOPE  H18Y 5804   4.783   0.332   4.946  1.3619  0.8260 -0.9060
   45DOPE  H18Z 5805   4.852   0.493   4.969 -0.0818  0.2974  0.5000
   46DOPE     N 5806   3.993   7.355   3.115  0.4025  0.6249  0.6490
   46DOPE   HN1 5807   3.962   7.276   3.174  0.8937 -3.2696 -3.7571
   46DOPE   HN2 5808   4.088   7.386   3.142  1.0301 -0.4326 -0.3097
   46DOPE   HN3 5809   3.922   7.431   3.106  0.8424  0.8087 -2.0984
   46DOPE   C12 5810   4.009   7.282   2.979  0.3302 -0.0003  0.5342
   46DOPE  H12A 5811   3.935   7.321   2.906  2.8686  1.6636 -1.3267
   46DOPE  H12B 5812   3.991   7.177   3.009 -0.7973  0.3010  0.9674
   46DOPE   C11 5813   4.158   7.300   2.919  0.6498  0.1347 -0.7276
   46DOPE  H11A 5814   4.199   7.400   2.943  1.4750  0.3724 -2.9329
   46DOPE  H11B 5815   4.150   7.287   2.809 -2.0907 -0.6583 -0.5112
   46DOPE     P 5816   4.275   7.065   2.910  0.0055  0.0131 -0.0896
   46DOPE   O13 5817   4.413   7.058   2.856  0.5224  0.0209 -0.4144
   46DOPE   O14 5818   4.163   7.033   2.818 -0.6804 -0.1437  0.6081
   46DOPE   O11 5819   4.274   6.969   3.035 -0.3208 -0.4886 -0.3586
   46DOPE   O12 5820   4.251   7.207   2.982  0.0568  0.3670  0.1515
   46DOPE    C1 5821   4.170   6.987   3.130 -0.7282  0.1191  0.3089
   46DOPE    HA 5822   4.084   6.923   3.099  0.5554 -1.1247 -0.8057
   46DOPE    HB 5823   4.142   7.094   3.136 -0.7037  0.1879 -0.7397
   46DOPE    C2 5824   4.219   6.952   3.269 -0.1921  0.2299 -0.9231
   46DOPE    HS 5825   4.130   6.939   3.334  0.8951 -1.4497  0.2949
   46DOPE   O21 5826   4.295   7.064   3.320  0.1817  0.1844  0.3566
   46DOPE   C21 5827   4.266   7.118   3.434 -0.6113  0.0450  0.2298
   46DOPE   O22 5828   4.164   7.108   3.499  0.3643 -0.3879  0.0178
   46DOPE   C22 5829   4.395   7.183   3.476  0.2448 -0.0652  1.0515
   46DOPE   H2R 5830   4.423   7.267   3.408  0.4987 -2.8240 -2.5272
   46DOPE   H2S 5831   4.476   7.108   3.467  2.4989  2.2184  0.8893
   46DOPE    C3 5832   4.303   6.825   3.278 -0.2858  0.6128 -0.3331
   46DOPE    HX 5833   4.395   6.845   3.219 -0.4463 -1.1413 -1.2618
   46DOPE    HY 5834   4.264   6.736   3.223  3.2506 -1.5114  0.2823
   46DOPE   O31 5835   4.346   6.804   3.415 -0.0735  0.0841  0.1715
   46DOPE   C31 5836   4.252   6.723   3.474 -0.0682  0.1199 -0.3524
   46DOPE   O32 5837   4.148   6.692   3.423 -0.4048 -0.4631  0.1612
   46DOPE   C32 5838   4.285   6.692   3.617  0.4551  0.1391  0.3287
   46DOPE   H2X 5839   4.208   6.618   3.650  0.3550  0.8352  1.7312
   46DOPE   H2Y 5840   4.389   6.654   3.629  0.6523  0.4711 -0.2925
   46DOPE   C23 5841   4.383   7.228   3.619  0.4885 -0.3303 -0.0629
   46DOPE   H3R 5842   4.342   7.152   3.688 -0.0482  1.2410  1.4278
   46DOPE   H3S 5843   4.303   7.305   3.623  0.1698 -0.2606 -3.9257
   46DOPE   C24 5844   4.517   7.290   3.670  0.0300  0.4260 -0.6042
   46DOPE   H4R 5845   4.547   7.378   3.609  0.8038  2.2109  2.1457
   46DOPE   H4S 5846   4.591   7.208   3.655 -2.7019 -2.7881  1.8493
   46DOPE   C25 5847   4.517   7.331   3.817 -0.1077  0.1948 -0.2296
   46DOPE   H5R 5848   4.479   7.252   3.884  0.2801  1.2813  1.3394
   46DOPE   H5S 5849   4.451   7.421   3.818 -0.6941 -0.1452 -2.5324
   46DOPE   C26 5850   4.664   7.350   3.868  0.0846  0.2657  0.1270
   46DOPE   H6R 5851   4.701   7.439   3.814 -1.9487  1.3610  0.4461
   46DOPE   H6S 5852   4.718   7.254   3.854 -0.6440  0.1331 -2.0373
   46DOPE   C27 5853   4.670   7.378   4.019  0.7489 -0.6772  0.2244
   46DOPE   H7R 5854   4.616   7.310   4.088  0.3269 -0.0482  0.5210
   46DOPE   H7S 5855   4.646   7.486   4.031  0.9238 -0.6278  0.1442
   46DOPE   C28 5856   4.819   7.363   4.076  0.1447  0.1552  0.3033
   46DOPE   H8R 5857   4.848   7.256   4.078 -0.3746  0.0196  0.8691
   46DOPE   H8S 5858   4.801   7.397   4.180 -1.4052  1.9490 -0.4902
   46DOPE   C29 5859   4.928   7.446   4.001 -0.1868 -0.0995  0.1960
   46DOPE   H9R 5860   4.931   7.442   3.891 -1.3739 -1.1244  0.1786
   46DOPE  C210 5861   5.005   7.545   4.053  0.2964  0.2771 -0.2213
   46DOPE  H10R 5862   5.063   7.612   3.988  0.3820  1.8468  1.4070
   46DOPE  C211 5863   5.010   7.595   4.190  0.0343 -0.3949 -0.6902
   46DOPE  H11R 5864   4.938   7.535   4.250  1.8260 -2.2086 -0.2360
   46DOPE  H11S 5865   4.981   7.701   4.205 -0.9724 -0.7882  0.2999
   46DOPE  C212 5866   5.145   7.568   4.256  1.0715  0.2777 -0.1729
   46DOPE  H12R 5867   5.231   7.592   4.189 -0.0126  0.1031 -1.6595
   46DOPE  H12S 5868   5.168   7.460   4.272  2.8620  0.1963 -2.6496
   46DOPE  C213 5869   5.158   7.638   4.389 -0.5816 -0.3767 -0.4166
   46DOPE  H13R 5870   5.069   7.630   4.455  0.1021 -0.0311  0.5890
   46DOPE  H13S 5871   5.182   7.743   4.362 -0.8208  0.2060  1.4620
   46DOPE  C214 5872   5.277   7.589   4.468 -0.2200  0.1962 -0.2288
   46DOPE  H14R 5873   5.362   7.609   4.399 -0.2546 -0.7583 -0.5576
   46DOPE  H14S 5874   5.266   7.480   4.485 -0.4802  0.3320  0.5600
   46DOPE  C215 5875   5.304   7.658   4.600  0.2894  0.2086 -0.2824
   46DOPE  H15R 5876   5.219   7.624   4.663 -1.5150 -0.4990 -2.9604
   46DOPE  H15S 5877   5.296   7.767   4.580  2.3903  0.2031 -1.4299
   46DOPE  C216 5878   5.434   7.611   4.665 -0.5695  0.3107  0.5417
   46DOPE  H16R 5879   5.517   7.627   4.593 -1.0728  3.3639  0.4777
   46DOPE  H16S 5880   5.422   7.502   4.679  1.8403 -0.1004 -0.1495
   46DOPE  C217 5881   5.474   7.678   4.793  0.2564 -0.2743  0.1497
   46DOPE  H17R 5882   5.406   7.653   4.877  1.3821 -1.4404  0.7599
   46DOPE  H17S 5883   5.477   7.788   4.776 -1.0912 -0.3344 -0.5045
   46DOPE  C218 5884   5.613   7.629   4.830 -0.5894  0.3012  0.7440
   46DOPE  H18R 5885   5.657   7.688   4.913 -0.8549  0.4409  0.7857
   46DOPE  H18S 5886   5.692   7.638   4.753 -0.9872 -0.9616  0.1608
   46DOPE  H18T 5887   5.603   7.523   4.861 -1.7337  0.4923  1.0848
   46DOPE   C33 5888   4.267   6.806   3.729  0.5394  0.7788  0.3964
   46DOPE   H3X 5889   4.170   6.859   3.724 -0.6877 -1.0526  2.4154
   46DOPE   H3Y 5890   4.346   6.882   3.712  0.9278  0.1000 -0.9897
   46DOPE   C34 5891   4.271   6.754   3.866  0.3159 -0.1874  0.2407
   46DOPE   H4X 5892   4.369   6.701   3.876 -0.2242 -1.1644  0.4959
   46DOPE   H4Y 5893   4.287   6.838   3.937  0.0756 -0.4913  0.6643
   46DOPE   C35 5894   4.149   6.684   3.917  0.1778 -0.0621  0.1912
   46DOPE   H5X 5895   4.122   6.604   3.844 -0.2739  1.4264 -1.3485
   46DOPE   H5Y 5896   4.074   6.767   3.917  0.9685  0.6637  0.0744
   46DOPE   C36 5897   4.154   6.628   4.057  0.5397  0.2270 -0.6438
   46DOPE   H6X 5898   4.218   6.537   4.060 -0.5772 -0.5780 -0.4698
   46DOPE   H6Y 5899   4.053   6.585   4.076  0.6315  0.0231 -0.6096
   46DOPE   C37 5900   4.193   6.722   4.168  0.2432  0.2495  0.1068
   46DOPE   H7X 5901   4.295   6.763   4.150  1.0727 -1.2980  1.0009
   46DOPE   H7Y 5902   4.114   6.799   4.181 -1.3485 -1.0244 -1.5130
   46DOPE   C38 5903   4.193   6.639   4.293 -0.3260  0.3077  0.8692
   46DOPE   H8X 5904   4.278   6.568   4.307  1.2858  1.8197 -0.7609
   46DOPE   H8Y 5905   4.101   6.577   4.295  0.3992 -0.8124  3.1704
   46DOPE   C39 5906   4.197   6.727   4.411  0.6615 -0.0486  0.2347
   46DOPE   H9X 5907   4.295   6.775   4.425  0.6861  0.5882 -1.7552
   46DOPE  C310 5908   4.088   6.762   4.486 -0.2319 -0.0361  0.1933
   46DOPE  H10X 5909   4.098   6.819   4.579  0.2873 -3.2621  2.2718
   46DOPE  C311 5910   3.945   6.721   4.462 -0.6252  0.2421  0.0371
   46DOPE  H11X 5911   3.879   6.810   4.453 -2.1184 -0.8349  0.1284
   46DOPE  H11Y 5912   3.927   6.660   4.372 -0.5147  0.1083  0.1047
   46DOPE  C312 5913   3.868   6.671   4.588  0.3014  0.2293  0.1681
   46DOPE  H12X 5914   3.759   6.646   4.586  0.1969  0.6719 -1.6074
   46DOPE  H12Y 5915   3.876   6.762   4.652  2.2894  1.0682 -1.1832
   46DOPE  C313 5916   3.921   6.550   4.658  0.4178  0.2154 -0.0681
   46DOPE  H13X 5917   3.892   6.470   4.587 -0.5860 -0.9123  1.5412
   46DOPE  H13Y 5918   4.031   6.550   4.670  0.7961 -1.7338 -2.6177
   46DOPE  C314 5919   3.873   6.509   4.803 -0.4175  0.0466 -0.3332
   46DOPE  H14X 5920   3.925   6.577   4.873  1.1562  0.4594 -1.8231
   46DOPE  H14Y 5921   3.890   6.403   4.829  0.1495  0.2259  0.0297
   46DOPE  C315 5922   3.721   6.513   4.811 -0.1137  0.0126 -0.7582
   46DOPE  H15X 5923   3.684   6.604   4.760  0.7323  0.7447 -0.0974
   46DOPE  H15Y 5924   3.704   6.518   4.921  0.3363  1.5321 -0.7349
   46DOPE  C316 5925   3.658   6.385   4.763 -0.7970  0.2013  0.0698
   46DOPE  H16X 5926   3.708   6.292   4.796 -0.7780  0.1566 -0.0850
   46DOPE  H16Y 5927   3.668   6.375   4.653  2.8526  0.0864  0.2944
   46DOPE  C317 5928   3.510   6.362   4.801 -0.1283  0.0163  0.2483
   46DOPE  H17X 5929   3.450   6.447   4.764  0.7483  0.2948 -0.6033
   46DOPE  H17Y 5930   3.465   6.279   4.742 -0.1016  1.2618 -1.5883
   46DOPE  C318 5931   3.493   6.337   4.953  0.2914  0.2850 -0.6626
   46DOPE  H18X 5932   3.586   6.293   4.995 -0.4144  2.2855  3.4371
   46DOPE  H18Y 5933   3.472   6.433   5.004 -2.4360 -1.2185  1.3542
   46DOPE  H18Z 5934   3.407   6.268   4.966 -1.1969  1.9775 -1.1092
   47DOPE     N 5935   2.105   6.359   3.076 -0.0543  0.8221 -0.5127
   47DOPE   HN1 5936   2.033   6.429   3.051 -1.3088 -0.2188  0.1040
   47DOPE   HN2 5937   2.059   6.307   3.153 -1.4172  0.6783 -1.4014
   47DOPE   HN3 5938   2.177   6.419   3.121  0.9111 -2.5976  2.9513
   47DOPE   C12 5939   2.165   6.281   2.958  0.3645 -0.3741  0.5081
   47DOPE  H12A 5940   2.253   6.226   3.000 -0.1076  1.0183  3.5721
   47DOPE  H12B 5941   2.208   6.350   2.882  0.1957 -2.4313 -1.5574
   47DOPE   C11 5942   2.066   6.188   2.891 -0.0327  0.4637 -0.3594
   47DOPE  H11A 5943   2.113   6.113   2.824  1.7687  2.0944 -1.0194
   47DOPE  H11B 5944   1.990   6.255   2.844  0.2671  1.1882  0.1659
   47DOPE     P 5945   2.028   5.961   3.019 -0.1198  0.0866 -0.2845
   47DOPE   O13 5946   2.171   5.939   3.002 -0.6586  0.2919 -0.1645
   47DOPE   O14 5947   1.934   5.886   2.933  0.8174 -0.1173  0.0514
   47DOPE   O11 5948   1.995   5.951   3.169 -0.5390 -0.2304 -0.1356
   47DOPE   O12 5949   2.004   6.114   2.996  0.1902 -0.7151  0.0848
   47DOPE    C1 5950   1.937   5.837   3.234 -0.1847 -0.0449  0.4110
   47DOPE    HA 5951   1.975   5.823   3.338  1.8354 -1.1224 -0.4120
   47DOPE    HB 5952   1.944   5.746   3.171 -1.6989 -0.2626  0.5165
   47DOPE    C2 5953   1.792   5.859   3.262 -0.3171  0.2185  0.7837
   47DOPE    HS 5954   1.759   5.904   3.165  0.9391 -0.1905  0.1501
   47DOPE   O21 5955   1.777   5.953   3.373 -0.0083 -0.2902  0.1993
   47DOPE   C21 5956   1.678   6.034   3.364  0.7796 -0.2052  0.2741
   47DOPE   O22 5957   1.595   6.036   3.273  0.2593 -0.4529  0.5113
   47DOPE   C22 5958   1.689   6.126   3.477 -0.6570  0.3872  0.6520
   47DOPE   H2R 5959   1.770   6.198   3.454  1.0545 -1.4770  0.6153
   47DOPE   H2S 5960   1.718   6.072   3.570  0.7586 -0.5574 -0.3056
   47DOPE    C3 5961   1.723   5.727   3.289  0.1269 -0.3717 -0.0552
   47DOPE    HX 5962   1.708   5.657   3.205  2.6337  0.6685 -1.4844
   47DOPE    HY 5963   1.629   5.770   3.332  1.1759  2.7174 -0.5851
   47DOPE   O31 5964   1.796   5.677   3.402  0.4867  0.4111 -0.2784
   47DOPE   C31 5965   1.755   5.559   3.442  0.5565  0.3369  0.5718
   47DOPE   O32 5966   1.685   5.486   3.374 -0.0602 -0.0506 -0.1505
   47DOPE   C32 5967   1.805   5.516   3.582 -0.3414 -0.4913  0.6027
   47DOPE   H2X 5968   1.773   5.410   3.585  0.9357 -0.9035  0.3598
   47DOPE   H2Y 5969   1.915   5.502   3.591 -0.0700 -0.4033 -1.8720
   47DOPE   C23 5970   1.559   6.195   3.502 -0.1883 -0.1165  0.4639
   47DOPE   H3R 5971   1.476   6.124   3.520  0.6862 -1.3834 -0.3940
   47DOPE   H3S 5972   1.546   6.252   3.407 -2.1023  2.5274  2.1434
   47DOPE   C24 5973   1.566   6.309   3.600  0.5831  0.0935  0.3342
   47DOPE   H4R 5974   1.461   6.346   3.595 -0.1841 -2.1268 -1.1578
   47DOPE   H4S 5975   1.640   6.384   3.565 -1.4440  1.6013 -1.0109
   47DOPE   C25 5976   1.613   6.264   3.740 -0.0057  0.3059 -0.1973
   47DOPE   H5R 5977   1.717   6.229   3.728  0.6528  1.6774  1.2175
   47DOPE   H5S 5978   1.536   6.189   3.770  1.0822 -0.1731  1.5506
   47DOPE   C26 5979   1.600   6.368   3.845  0.7171 -0.1129 -0.1735
   47DOPE   H6R 5980   1.494   6.400   3.851  0.8521  0.1558  0.8549
   47DOPE   H6S 5981   1.652   6.464   3.822  0.5531  0.6235  2.3024
   47DOPE   C27 5982   1.650   6.314   3.975  0.2556 -0.4936 -0.3691
   47DOPE   H7R 5983   1.750   6.269   3.956  0.5319 -0.3703  0.7427
   47DOPE   H7S 5984   1.578   6.238   4.011 -3.1078  2.8026  0.5071
   47DOPE   C28 5985   1.635   6.426   4.084  0.1857 -0.4194  0.4592
   47DOPE   H8R 5986   1.534   6.472   4.085 -0.0000 -0.8264  0.8701
   47DOPE   H8S 5987   1.714   6.501   4.060 -2.5063  3.0422  1.5760
   47DOPE   C29 5988   1.672   6.374   4.224  0.5175  0.0140 -0.2558
   47DOPE   H9R 5989   1.651   6.270   4.254  0.1815 -0.1079 -0.9004
   47DOPE  C210 5990   1.748   6.440   4.316  0.1221 -0.7791 -0.7507
   47DOPE  H10R 5991   1.788   6.404   4.413  0.7307  0.9671 -0.3080
   47DOPE  C211 5992   1.805   6.574   4.292  0.3166  0.0484  0.0511
   47DOPE  H11R 5993   1.824   6.588   4.183 -1.5817 -1.9112 -0.6213
   47DOPE  H11S 5994   1.902   6.587   4.344  0.5778 -0.6711 -0.2478
   47DOPE  C212 5995   1.704   6.682   4.329 -0.4584 -0.1060  0.0439
   47DOPE  H12R 5996   1.670   6.681   4.435  0.4753  0.3450  0.3610
   47DOPE  H12S 5997   1.617   6.684   4.260 -0.0081  0.1639 -0.5229
   47DOPE  C213 5998   1.760   6.828   4.307 -0.1354 -0.0141 -0.6375
   47DOPE  H13R 5999   1.674   6.897   4.325 -0.3423 -0.5527  0.5433
   47DOPE  H13S 6000   1.785   6.834   4.199  1.1063  3.7658 -0.2924
   47DOPE  C214 6001   1.890   6.872   4.378  0.1069 -0.0045 -0.1508
   47DOPE  H14R 6002   1.897   6.979   4.350  0.8133 -0.6104 -2.6238
   47DOPE  H14S 6003   1.973   6.809   4.338  1.2217  0.3488  1.4884
   47DOPE  C215 6004   1.885   6.856   4.530  0.1846  0.3878 -0.2166
   47DOPE  H15R 6005   1.986   6.875   4.572 -0.5336  0.7745  1.4201
   47DOPE  H15S 6006   1.862   6.752   4.562  0.2396 -0.2427 -2.1422
   47DOPE  C216 6007   1.785   6.955   4.585  0.4845  0.1470 -0.6136
   47DOPE  H16R 6008   1.690   6.942   4.530 -0.3721 -1.3098  1.1005
   47DOPE  H16S 6009   1.823   7.058   4.572  1.9501  0.0944  2.3948
   47DOPE  C217 6010   1.753   6.957   4.736  0.0332  0.3570 -0.7042
   47DOPE  H17R 6011   1.691   7.043   4.769 -0.3541 -0.5673  1.0941
   47DOPE  H17S 6012   1.844   6.964   4.800 -1.8726 -1.4741  2.4303
   47DOPE  C218 6013   1.680   6.837   4.783  0.2534 -0.2492  0.1654
   47DOPE  H18R 6014   1.674   6.836   4.894 -1.5443  1.5679  0.1508
   47DOPE  H18S 6015   1.739   6.748   4.753  1.7468  0.7882 -0.0801
   47DOPE  H18T 6016   1.581   6.814   4.738 -0.6182  0.1362  1.7841
   47DOPE   C33 6017   1.745   5.592   3.703 -0.2381  0.4944 -0.0036
   47DOPE   H3X 6018   1.634   5.594   3.698 -0.2343  0.8396  0.0365
   47DOPE   H3Y 6019   1.770   5.700   3.699 -4.1357  1.6138  0.8220
   47DOPE   C34 6020   1.788   5.520   3.833 -0.4175 -0.4544 -0.1434
   47DOPE   H4X 6021   1.753   5.415   3.832 -0.5774 -0.4711  2.0963
   47DOPE   H4Y 6022   1.898   5.513   3.847 -0.3138 -0.8332 -1.0923
   47DOPE   C35 6023   1.730   5.593   3.946 -0.2217  0.5979 -0.6937
   47DOPE   H5X 6024   1.622   5.571   3.952  0.0212 -0.4288  0.2881
   47DOPE   H5Y 6025   1.750   5.702   3.939 -0.6321  0.7274  0.0263
   47DOPE   C36 6026   1.800   5.538   4.076  0.4391  0.2845  0.6475
   47DOPE   H6X 6027   1.907   5.569   4.070  0.5057 -0.1748 -1.1346
   47DOPE   H6Y 6028   1.794   5.427   4.073 -0.9230  0.3449 -1.7405
   47DOPE   C37 6029   1.741   5.585   4.208 -0.2066 -0.3080 -0.3562
   47DOPE   H7X 6030   1.731   5.695   4.211  0.8153 -0.2238  0.1884
   47DOPE   H7Y 6031   1.639   5.540   4.214  0.0281 -0.6981  0.9628
   47DOPE   C38 6032   1.822   5.527   4.333 -0.3977 -0.2437 -0.1103
   47DOPE   H8X 6033   1.908   5.596   4.343  0.8210 -1.3510 -2.2133
   47DOPE   H8Y 6034   1.863   5.427   4.308  2.5732  0.6526  0.7817
   47DOPE   C39 6035   1.751   5.518   4.467  0.3351  0.1991  0.5984
   47DOPE   H9X 6036   1.642   5.508   4.459  0.3499  0.4775  0.0449
   47DOPE  C310 6037   1.813   5.505   4.586  0.3977 -0.5307 -0.5862
   47DOPE  H10X 6038   1.757   5.516   4.680  2.5794 -0.2199  0.7615
   47DOPE  C311 6039   1.966   5.496   4.593 -0.0593 -0.0229  0.2282
   47DOPE  H11X 6040   2.013   5.486   4.492  0.3176  3.2047 -0.0180
   47DOPE  H11Y 6041   1.998   5.598   4.623  0.7509  0.3317 -1.6967
   47DOPE  C312 6042   2.025   5.375   4.670  0.2543 -0.3069  0.4793
   47DOPE  H12X 6043   2.136   5.370   4.657  0.3926  1.8622  0.4241
   47DOPE  H12Y 6044   1.980   5.278   4.639  0.3140 -0.2296  0.1387
   47DOPE  C313 6045   2.003   5.381   4.825 -0.5693 -0.2725 -0.1409
   47DOPE  H13X 6046   2.063   5.464   4.866  1.7688 -1.7078 -0.4427
   47DOPE  H13Y 6047   1.897   5.410   4.843  0.2507  1.5719  2.1337
   47DOPE  C314 6048   2.028   5.245   4.901 -0.3147 -0.2071 -0.4957
   47DOPE  H14X 6049   2.126   5.201   4.872 -0.7231 -1.9960  0.6607
   47DOPE  H14Y 6050   1.948   5.175   4.869  0.6374 -1.1333 -0.9234
   47DOPE  C315 6051   2.038   5.266   5.058 -0.0778  0.5708  0.1805
   47DOPE  H15X 6052   1.960   5.338   5.092 -1.7520 -0.7244 -0.7607
   47DOPE  H15Y 6053   2.133   5.313   5.090 -0.4707  1.4575  0.0537
   47DOPE  C316 6054   2.006   5.128   5.128 -0.0712  0.1702 -0.1458
   47DOPE  H16X 6055   2.092   5.058   5.127 -1.0884 -1.1156 -0.4068
   47DOPE  H16Y 6056   1.934   5.067   5.070  0.7353 -1.0934  0.1428
   47DOPE  C317 6057   1.953   5.143   5.273  0.2589 -0.4895  0.3409
   47DOPE  H17X 6058   1.879   5.220   5.304  0.5926 -0.5375  1.3131
   47DOPE  H17Y 6059   1.912   5.043   5.297 -3.3339  0.5761 -0.7989
   47DOPE  C318 6060   2.061   5.171   5.376  0.1428  0.0340  0.0537
   47DOPE  H18X 6061   2.111   5.265   5.344  0.3273 -0.3476 -0.8065
   47DOPE  H18Y 6062   2.015   5.188   5.476 -0.0346  0.1801 -0.0538
   47DOPE  H18Z 6063   2.132   5.086   5.391  0.7068  0.6382  0.9065
   48DOPE     N 6064   6.453   0.713   2.953  0.0168 -0.2523  0.6379
   48DOPE   HN1 6065   6.394   0.628   2.947  1.1727 -0.9954 -0.8619
   48DOPE   HN2 6066   6.524   0.713   3.028  0.3181 -3.9129  0.5300
   48DOPE   HN3 6067   6.384   0.790   2.961  0.9601  0.9932 -1.9605
   48DOPE   C12 6068   6.520   0.736   2.822 -0.2390  0.5348  0.0066
   48DOPE  H12A 6069   6.449   0.734   2.737 -1.0074  2.3555  0.5580
   48DOPE  H12B 6070   6.585   0.647   2.807 -1.6275 -0.3082 -1.3339
   48DOPE   C11 6071   6.584   0.879   2.821 -0.1042 -0.7936  0.7987
   48DOPE  H11A 6072   6.498   0.946   2.798  0.3810 -0.4962 -0.1796
   48DOPE  H11B 6073   6.636   0.872   2.723 -2.7721 -2.3310 -0.6051
   48DOPE     P 6074   6.617   1.035   3.022  0.0178  0.0611 -0.4537
   48DOPE   O13 6075   6.541   0.976   3.127  0.3119 -0.3554 -0.5296
   48DOPE   O14 6076   6.541   1.132   2.942 -0.1629  0.3818 -0.0484
   48DOPE   O11 6077   6.747   1.101   3.089  0.0081 -0.2723 -0.2265
   48DOPE   O12 6078   6.660   0.923   2.929  0.0568 -0.6341 -0.4714
   48DOPE    C1 6079   6.824   1.037   3.195 -0.0874  0.0715  0.2736
   48DOPE    HA 6080   6.921   1.010   3.150  0.3989  1.7609  0.2415
   48DOPE    HB 6081   6.783   0.940   3.233  0.8344  0.0325  1.2087
   48DOPE    C2 6082   6.851   1.128   3.319  0.9067  0.1935  0.3823
   48DOPE    HS 6083   6.907   1.059   3.386  0.1842 -0.6790  0.1136
   48DOPE   O21 6084   6.726   1.170   3.382 -0.4994 -0.4792 -0.1365
   48DOPE   C21 6085   6.674   1.090   3.464 -0.0105  0.1535 -0.8951
   48DOPE   O22 6086   6.711   0.974   3.481 -0.7115 -0.2433  0.3082
   48DOPE   C22 6087   6.561   1.161   3.547 -0.2723 -0.0988  0.5717
   48DOPE   H2R 6088   6.485   1.089   3.584 -1.3131  1.3017  1.3060
   48DOPE   H2S 6089   6.511   1.244   3.492 -0.4591  0.3563  1.3908
   48DOPE    C3 6090   6.927   1.252   3.281 -0.9017 -0.0972 -0.5919
   48DOPE    HX 6091   6.876   1.311   3.202  1.6799 -0.8023 -2.9327
   48DOPE    HY 6092   7.025   1.221   3.239 -0.3049  1.0271 -0.0887
   48DOPE   O31 6093   6.944   1.326   3.402  0.1570 -0.0138 -0.0976
   48DOPE   C31 6094   6.971   1.456   3.404 -0.6734 -0.5208 -0.2415
   48DOPE   O32 6095   6.967   1.528   3.311  1.2092 -0.1483 -0.2445
   48DOPE   C32 6096   7.016   1.502   3.536 -0.2119 -0.4213 -0.3151
   48DOPE   H2X 6097   7.039   1.409   3.592  1.4142  0.4678  0.5833
   48DOPE   H2Y 6098   7.108   1.564   3.524  1.2845 -2.7502 -1.7424
   48DOPE   C23 6099   6.618   1.212   3.681  0.4056  0.0370 -0.3536
   48DOPE   H3R 6100   6.533   1.267   3.728 -0.6137 -1.7072 -0.0346
   48DOPE   H3S 6101   6.702   1.284   3.673  1.5361 -1.0463  1.1415
   48DOPE   C24 6102   6.648   1.099   3.778  0.2833 -0.0347 -0.6039
   48DOPE   H4R 6103   6.727   1.034   3.734  1.5253  1.9312 -1.4350
   48DOPE   H4S 6104   6.553   1.044   3.797  0.2024  0.6787  1.2054
   48DOPE   C25 6105   6.688   1.161   3.912 -0.5955 -0.5774  0.3574
   48DOPE   H5R 6106   6.608   1.236   3.928 -0.0041  1.2136 -3.8996
   48DOPE   H5S 6107   6.781   1.220   3.897 -1.8539  0.8830 -2.1618
   48DOPE   C26 6108   6.690   1.060   4.028  0.4784 -0.0405 -0.1741
   48DOPE   H6R 6109   6.787   1.006   4.025  0.2444 -0.8648  3.2528
   48DOPE   H6S 6110   6.614   0.983   4.001  0.9062 -0.4639 -0.1839
   48DOPE   C27 6111   6.659   1.127   4.166  0.4206 -0.0179  0.0439
   48DOPE   H7R 6112   6.678   1.046   4.239  0.5644 -1.1555 -1.2293
   48DOPE   H7S 6113   6.555   1.166   4.165  0.0706 -0.7613  1.9677
   48DOPE   C28 6114   6.760   1.236   4.196  0.0468 -0.2579  0.4982
   48DOPE   H8R 6115   6.712   1.295   4.277  1.0782  2.1135 -0.5082
   48DOPE   H8S 6116   6.763   1.310   4.113  0.1703 -0.5051  0.2790
   48DOPE   C29 6117   6.897   1.187   4.231 -0.5277  0.0477  0.3482
   48DOPE   H9R 6118   6.967   1.166   4.150  2.7321  1.8415  2.4753
   48DOPE  C210 6119   6.945   1.179   4.353 -0.5465 -0.3152  0.0144
   48DOPE  H10R 6120   7.053   1.161   4.360 -0.5271 -0.7223 -1.1523
   48DOPE  C211 6121   6.878   1.208   4.480  0.4957  0.6959 -0.0331
   48DOPE  H11R 6122   6.865   1.114   4.538  4.3419 -2.3147 -3.4378
   48DOPE  H11S 6123   6.778   1.256   4.468 -0.2168 -0.6301  0.4121
   48DOPE  C212 6124   6.962   1.306   4.568  0.8189 -0.5950  0.5020
   48DOPE  H12R 6125   6.991   1.400   4.518 -1.3424  0.4731  1.0985
   48DOPE  H12S 6126   7.055   1.257   4.605  0.3597  0.6332  3.6104
   48DOPE  C213 6127   6.877   1.353   4.694  0.6927 -0.0190 -0.2254
   48DOPE  H13R 6128   6.770   1.343   4.663 -0.1153  1.9912  1.6247
   48DOPE  H13S 6129   6.894   1.458   4.725  0.4444 -0.8802  3.3634
   48DOPE  C214 6130   6.931   1.277   4.817 -0.3187 -1.1192 -0.1646
   48DOPE  H14R 6131   7.042   1.280   4.825 -0.4550  1.0739  2.5520
   48DOPE  H14S 6132   6.900   1.171   4.804 -0.5712 -1.2136  1.0748
   48DOPE  C215 6133   6.880   1.322   4.951  0.0066 -0.4374 -0.6165
   48DOPE  H15R 6134   6.769   1.315   4.952  0.1203 -2.8894  0.1256
   48DOPE  H15S 6135   6.918   1.423   4.979  0.1353 -0.4349 -0.7992
   48DOPE  C216 6136   6.927   1.223   5.063  0.2338 -0.2944  0.4311
   48DOPE  H16R 6137   6.945   1.275   5.160  3.2517  1.6351 -1.0123
   48DOPE  H16S 6138   7.034   1.212   5.036  0.2237 -2.4945  1.0788
   48DOPE  C217 6139   6.863   1.087   5.076 -0.4390 -0.4713 -1.1125
   48DOPE  H17R 6140   6.863   1.035   4.978 -3.2023  0.5745 -1.7501
   48DOPE  H17S 6141   6.756   1.099   5.102  0.0678  1.8192  0.2935
   48DOPE  C218 6142   6.941   1.011   5.181  0.1434  1.0000 -0.7518
   48DOPE  H18R 6143   6.884   0.917   5.192  0.7498  0.9325  4.3668
   48DOPE  H18S 6144   6.940   1.074   5.273 -1.2749 -0.9730  0.6706
   48DOPE  H18T 6145   7.036   0.969   5.143 -1.5931 -2.0048 -2.0648
   48DOPE   C33 6146   6.913   1.582   3.620 -0.0145 -0.3197  0.1436
   48DOPE   H3X 6147   6.815   1.529   3.624 -0.6241  0.8262  1.0678
   48DOPE   H3Y 6148   6.893   1.678   3.567  0.1965 -0.5571 -0.3772
   48DOPE   C34 6149   6.950   1.612   3.765 -0.7883 -0.0150 -0.0691
   48DOPE   H4X 6150   7.051   1.657   3.765 -0.8480  0.1929 -1.8697
   48DOPE   H4Y 6151   6.893   1.691   3.818 -0.0178 -0.0864  0.8928
   48DOPE   C35 6152   6.932   1.482   3.857  0.1411 -0.0983  0.6556
   48DOPE   H5X 6153   6.967   1.391   3.803 -1.3543 -0.1325 -0.3236
   48DOPE   H5Y 6154   6.824   1.460   3.872 -0.0875 -0.1843 -0.9684
   48DOPE   C36 6155   6.996   1.493   3.992 -0.1594  0.1127 -0.1899
   48DOPE   H6X 6156   7.103   1.505   3.964 -0.4252  1.7220 -0.6641
   48DOPE   H6Y 6157   6.990   1.402   4.055  3.0164 -0.2623 -0.2587
   48DOPE   C37 6158   6.958   1.610   4.079  0.1514  0.3125  0.4620
   48DOPE   H7X 6159   6.882   1.679   4.036  2.0699  0.8398 -2.3063
   48DOPE   H7Y 6160   6.919   1.569   4.175  2.5987 -1.1344  0.9256
   48DOPE   C38 6161   7.074   1.703   4.109 -0.3790 -0.6206  0.5214
   48DOPE   H8X 6162   7.035   1.801   4.142 -0.2092 -0.2499 -0.3455
   48DOPE   H8Y 6163   7.119   1.724   4.009 -3.7637 -0.0329 -1.0393
   48DOPE   C39 6164   7.171   1.648   4.203 -0.4470  0.4645  0.0766
   48DOPE   H9X 6165   7.230   1.565   4.162 -2.6012 -2.0124  1.6921
   48DOPE  C310 6166   7.173   1.689   4.335 -0.5406 -0.3480  0.5168
   48DOPE  H10X 6167   7.242   1.637   4.403  1.6009  3.0693  1.2457
   48DOPE  C311 6168   7.094   1.801   4.397 -0.0763  0.5639 -0.9125
   48DOPE  H11X 6169   7.089   1.884   4.324  2.1423  0.6015 -1.0849
   48DOPE  H11Y 6170   6.995   1.763   4.429  0.2546  0.6837  0.3053
   48DOPE  C312 6171   7.162   1.849   4.528  0.0622 -0.2083  0.0956
   48DOPE  H12X 6172   7.265   1.882   4.504 -0.2552  0.5940 -0.2056
   48DOPE  H12Y 6173   7.177   1.767   4.601 -0.9534 -0.6686 -0.1914
   48DOPE  C313 6174   7.086   1.963   4.593 -0.4901  0.2577 -0.2920
   48DOPE  H13X 6175   7.082   2.048   4.523  0.3427  1.8009  1.4429
   48DOPE  H13Y 6176   6.985   1.927   4.621 -0.3274  1.0980  1.5063
   48DOPE  C314 6177   7.170   1.998   4.718  0.3143 -0.0485 -0.3272
   48DOPE  H14X 6178   7.271   2.037   4.694  0.4681 -1.2190 -1.7773
   48DOPE  H14Y 6179   7.173   1.904   4.777 -0.7620  0.3815  0.4527
   48DOPE  C315 6180   7.101   2.099   4.808  0.2376  1.3020 -0.4133
   48DOPE  H15X 6181   6.998   2.062   4.788  1.4938 -1.0530 -3.3019
   48DOPE  H15Y 6182   7.121   2.199   4.763 -0.1459  0.8341 -1.6492
   48DOPE  C316 6183   7.149   2.107   4.953 -0.2839  0.2354 -0.6236
   48DOPE  H16X 6184   7.150   2.011   5.008  0.4175 -0.8982 -2.4844
   48DOPE  H16Y 6185   7.094   2.169   5.027  2.9632  1.7972  0.6815
   48DOPE  C317 6186   7.297   2.148   4.956  0.2451 -0.3838 -0.1363
   48DOPE  H17X 6187   7.366   2.061   4.950  1.4402  0.6303 -2.7240
   48DOPE  H17Y 6188   7.311   2.214   4.868  0.1741  1.4149  1.1483
   48DOPE  C318 6189   7.337   2.223   5.086 -0.4691 -0.4774  0.5513
   48DOPE  H18X 6190   7.448   2.221   5.089 -0.4219 -0.7583 -0.6807
   48DOPE  H18Y 6191   7.301   2.329   5.088  1.0450  0.0547  0.9889
   48DOPE  H18Z 6192   7.297   2.168   5.174 -3.3458 -1.3776 -1.1631
   49DOPE     N 6193   2.926   7.078   2.972 -0.0320 -0.3117  0.6539
   49DOPE   HN1 6194   3.005   7.119   2.920 -0.3739  1.8527  1.7289
   49DOPE   HN2 6195   2.863   7.025   2.908 -0.1815 -0.2246  0.7284
   49DOPE   HN3 6196   2.867   7.154   3.011 -1.6675 -0.6329 -1.0451
   49DOPE   C12 6197   2.968   6.981   3.078  0.4941 -0.3832 -0.9995
   49DOPE  H12A 6198   3.037   7.028   3.151  2.7814 -0.2977 -3.0942
   49DOPE  H12B 6199   3.031   6.901   3.032 -0.2925  0.2737 -3.3656
   49DOPE   C11 6200   2.851   6.926   3.150 -0.1275 -0.4563  0.4623
   49DOPE  H11A 6201   2.806   7.008   3.210  1.3224  1.1192 -0.5044
   49DOPE  H11B 6202   2.888   6.845   3.216  0.1148 -0.8880 -0.2010
   49DOPE     P 6203   2.611   6.850   3.073  0.6038 -0.2923 -0.1343
   49DOPE   O13 6204   2.562   6.721   3.004  0.4764  0.0484  0.5720
   49DOPE   O14 6205   2.543   6.981   3.039  0.1314  0.0576  0.1692
   49DOPE   O11 6206   2.596   6.840   3.228  0.2549  0.2451  0.2382
   49DOPE   O12 6207   2.766   6.863   3.059  0.5309 -0.3664 -0.8806
   49DOPE    C1 6208   2.624   6.710   3.291 -0.1567  0.1287  0.6459
   49DOPE    HA 6209   2.640   6.740   3.396  2.6209  0.9407  0.0755
   49DOPE    HB 6210   2.715   6.656   3.255  0.7275  2.9577 -1.8455
   49DOPE    C2 6211   2.507   6.612   3.288  0.7131 -0.3093  0.6596
   49DOPE    HS 6212   2.508   6.583   3.181  0.7987 -1.2610  0.9122
   49DOPE   O21 6213   2.389   6.671   3.332  0.5671 -0.4288  0.2322
   49DOPE   C21 6214   2.276   6.614   3.291 -0.0735 -0.1328 -0.1924
   49DOPE   O22 6215   2.268   6.516   3.222 -0.3447 -0.1296 -0.5310
   49DOPE   C22 6216   2.156   6.693   3.344  0.0188  0.3686  0.6114
   49DOPE   H2R 6217   2.149   6.791   3.292  0.2324  0.0862  0.0434
   49DOPE   H2S 6218   2.163   6.709   3.454 -2.3918 -0.1130  0.8745
   49DOPE    C3 6219   2.533   6.480   3.371 -0.0390  0.8304 -0.1298
   49DOPE    HX 6220   2.610   6.416   3.322 -0.3691 -0.6981  1.2606
   49DOPE    HY 6221   2.444   6.414   3.379  0.0051  0.9540  1.6979
   49DOPE   O31 6222   2.596   6.507   3.497  0.3517 -0.1047  0.4277
   49DOPE   C31 6223   2.523   6.525   3.602  0.2756  0.1705  0.4592
   49DOPE   O32 6224   2.403   6.530   3.604  0.1032 -0.7736  0.1854
   49DOPE   C32 6225   2.611   6.524   3.723  0.1190  0.5434 -0.3739
   49DOPE   H2X 6226   2.650   6.421   3.735 -2.7792 -0.5085  0.8339
   49DOPE   H2Y 6227   2.690   6.600   3.704  2.5226 -1.6069  0.4755
   49DOPE   C23 6228   2.016   6.633   3.312  0.3469 -0.5095  0.1992
   49DOPE   H3R 6229   2.000   6.627   3.202  2.4596 -0.3585 -0.1700
   49DOPE   H3S 6230   1.942   6.710   3.342 -0.3720 -0.8433 -0.6805
   49DOPE   C24 6231   1.990   6.504   3.385 -0.1784  0.5661 -0.3056
   49DOPE   H4R 6232   2.069   6.425   3.388 -0.4312  0.2741 -1.0423
   49DOPE   H4S 6233   1.903   6.455   3.336  0.1729 -1.4229  0.9264
   49DOPE   C25 6234   1.924   6.519   3.529  0.1547  0.6240  0.3467
   49DOPE   H5R 6235   1.875   6.420   3.541  1.9500 -0.1390  1.9327
   49DOPE   H5S 6236   1.855   6.606   3.540 -0.6401  0.3599 -1.9535
   49DOPE   C26 6237   2.029   6.542   3.639 -0.1949 -0.0672  0.1640
   49DOPE   H6R 6238   2.056   6.648   3.658 -3.4358  0.7317  0.8233
   49DOPE   H6S 6239   2.127   6.490   3.628  0.3447  0.7411  0.9926
   49DOPE   C27 6240   1.967   6.497   3.772 -0.0187 -0.0035 -0.2215
   49DOPE   H7R 6241   1.955   6.387   3.782  0.1003  0.1342  1.7879
   49DOPE   H7S 6242   1.866   6.543   3.781  0.4598  0.9219  0.6541
   49DOPE   C28 6243   2.049   6.553   3.895  0.7620 -0.4176  0.4333
   49DOPE   H8R 6244   1.986   6.523   3.981 -0.8531 -1.3967 -1.0387
   49DOPE   H8S 6245   2.043   6.664   3.899  1.0537 -0.3158 -1.2485
   49DOPE   C29 6246   2.184   6.490   3.913 -0.2699  0.6984  0.2422
   49DOPE   H9R 6247   2.246   6.500   3.823 -0.6558 -0.0686 -0.1252
   49DOPE  C210 6248   2.242   6.417   4.007 -0.0366 -0.4445  0.2769
   49DOPE  H10R 6249   2.345   6.386   3.985  0.4839  2.0847 -1.1325
   49DOPE  C211 6250   2.174   6.378   4.135  0.6434 -0.1476 -0.4357
   49DOPE  H11R 6251   2.200   6.274   4.165 -1.8114 -1.3697 -2.1419
   49DOPE  H11S 6252   2.063   6.376   4.127  0.5524  1.6259 -0.0679
   49DOPE  C212 6253   2.200   6.477   4.254 -0.1602  0.4367 -0.1211
   49DOPE  H12R 6254   2.151   6.571   4.221 -0.3310  1.0950  1.8486
   49DOPE  H12S 6255   2.310   6.489   4.264  0.0836 -0.3315 -1.6416
   49DOPE  C213 6256   2.132   6.422   4.382 -0.1367  0.2719  0.4862
   49DOPE  H13R 6257   2.172   6.323   4.411 -3.3831 -0.7648  1.8296
   49DOPE  H13S 6258   2.028   6.392   4.356 -0.3941  1.4646  0.0526
   49DOPE  C214 6259   2.137   6.516   4.493  0.2804 -0.0908 -0.0842
   49DOPE  H14R 6260   2.067   6.600   4.471  1.0671 -0.1503 -3.2574
   49DOPE  H14S 6261   2.238   6.561   4.498  0.8271 -1.3584  1.2099
   49DOPE  C215 6262   2.091   6.458   4.624 -0.5821 -0.6914  0.3423
   49DOPE  H15R 6263   2.114   6.536   4.700 -1.3299  1.1340 -1.2467
   49DOPE  H15S 6264   2.151   6.367   4.648  0.9573 -0.1390 -1.2358
   49DOPE  C216 6265   1.938   6.427   4.633 -0.5428 -0.1344 -0.6298
   49DOPE  H16R 6266   1.913   6.331   4.583 -1.7554  0.3595 -1.0184
   49DOPE  H16S 6267   1.890   6.517   4.587  1.0486  0.8507 -0.4296
   49DOPE  C217 6268   1.877   6.415   4.770  0.6040 -0.3934  0.4499
   49DOPE  H17R 6269   1.769   6.393   4.759  0.8672 -1.2095 -0.7197
   49DOPE  H17S 6270   1.885   6.509   4.828  0.9649  0.4068 -0.8429
   49DOPE  C218 6271   1.952   6.303   4.841 -0.0233  0.3969 -0.5939
   49DOPE  H18R 6272   2.060   6.323   4.858  0.4583 -2.0229 -0.4740
   49DOPE  H18S 6273   1.949   6.202   4.796  0.3017  0.4158 -0.6584
   49DOPE  H18T 6274   1.906   6.288   4.941  1.2154  0.2336 -0.0322
   49DOPE   C33 6275   2.538   6.572   3.855  0.5874  0.3462  0.6490
   49DOPE   H3X 6276   2.448   6.508   3.869  0.6297 -0.0476 -0.6781
   49DOPE   H3Y 6277   2.498   6.675   3.843  0.9495  0.2950 -1.5323
   49DOPE   C34 6278   2.627   6.556   3.968 -0.6708  0.7765 -1.3295
   49DOPE   H4X 6279   2.660   6.452   3.991 -1.6128  0.6145 -0.6707
   49DOPE   H4Y 6280   2.720   6.612   3.944  0.5622 -0.0665  1.0618
   49DOPE   C35 6281   2.560   6.612   4.094  0.3975  0.4938 -0.6176
   49DOPE   H5X 6282   2.460   6.565   4.095  1.6071 -2.2884 -1.0706
   49DOPE   H5Y 6283   2.553   6.723   4.090 -0.2345  0.4530 -0.7599
   49DOPE   C36 6284   2.642   6.580   4.217  0.5887 -0.0093 -0.2714
   49DOPE   H6X 6285   2.744   6.623   4.206  0.0007  1.9108  1.0971
   49DOPE   H6Y 6286   2.661   6.471   4.215 -0.3830 -0.1671 -0.9617
   49DOPE   C37 6287   2.580   6.637   4.342  0.7771  0.2351 -0.5425
   49DOPE   H7X 6288   2.613   6.742   4.356  2.5144 -0.2691 -0.6614
   49DOPE   H7Y 6289   2.469   6.635   4.338  0.7643 -1.4015 -0.0468
   49DOPE   C38 6290   2.628   6.534   4.449 -0.1780 -0.3220  0.3353
   49DOPE   H8X 6291   2.738   6.528   4.440 -0.1063 -0.7629  1.3483
   49DOPE   H8Y 6292   2.579   6.441   4.414  0.0472  0.2748 -1.7095
   49DOPE   C39 6293   2.593   6.572   4.588  0.0354 -0.0524 -0.0515
   49DOPE   H9X 6294   2.494   6.540   4.623  0.5830  0.2324  1.8223
   49DOPE  C310 6295   2.672   6.638   4.670  0.4584 -0.5967 -0.5722
   49DOPE  H10X 6296   2.634   6.668   4.769 -0.4221 -0.0605 -1.0612
   49DOPE  C311 6297   2.810   6.688   4.655  0.4494 -0.1637  0.1235
   49DOPE  H11X 6298   2.868   6.651   4.742  1.0156  2.0337  0.7610
   49DOPE  H11Y 6299   2.852   6.655   4.557  1.3244 -2.1413  1.1172
   49DOPE  C312 6300   2.819   6.846   4.645 -0.5770 -0.2399 -0.3873
   49DOPE  H12X 6301   2.779   6.879   4.547  0.8471 -0.9258 -1.2436
   49DOPE  H12Y 6302   2.922   6.887   4.650 -0.6409 -0.1575  0.4450
   49DOPE  C313 6303   2.720   6.925   4.737 -0.1574 -0.2704  0.2015
   49DOPE  H13X 6304   2.614   6.904   4.711  0.6223 -1.3033 -2.4659
   49DOPE  H13Y 6305   2.736   6.884   4.839 -0.6705  0.4099  0.5622
   49DOPE  C314 6306   2.750   7.070   4.726 -0.8179 -0.3849  0.0366
   49DOPE  H14X 6307   2.674   7.142   4.763 -1.0322  0.9460 -2.6911
   49DOPE  H14Y 6308   2.768   7.080   4.616  0.7702  0.9262  0.3674
   49DOPE  C315 6309   2.875   7.116   4.806 -0.1869 -0.0196  0.7987
   49DOPE  H15X 6310   2.945   7.030   4.809 -0.1739 -0.0212  0.4782
   49DOPE  H15Y 6311   2.856   7.159   4.906  2.4301  2.2245  0.4496
   49DOPE  C316 6312   2.945   7.232   4.720  0.3878 -0.0749  0.1028
   49DOPE  H16X 6313   2.869   7.311   4.699 -0.9765 -1.2181  0.5572
   49DOPE  H16Y 6314   2.992   7.190   4.628  0.2800  0.8238 -0.3799
   49DOPE  C317 6315   3.044   7.317   4.803  0.0020 -0.2142 -0.8575
   49DOPE  H17X 6316   2.979   7.360   4.883 -0.1248  1.8281 -1.9801
   49DOPE  H17Y 6317   3.121   7.245   4.839  0.4209 -1.3419 -3.7616
   49DOPE  C318 6318   3.121   7.423   4.731 -0.1178 -0.4322  0.4429
   49DOPE  H18X 6319   3.149   7.499   4.806 -2.8456  0.0650  1.0452
   49DOPE  H18Y 6320   3.217   7.386   4.689 -0.4207  1.9062 -2.6115
   49DOPE  H18Z 6321   3.067   7.478   4.651 -0.9982  0.8801  1.8813
   50DOPE     N 6322   0.528   4.283   2.949 -0.3122 -0.3040  0.4062
   50DOPE   HN1 6323   0.547   4.381   2.979 -2.6796  0.8522 -1.5597
   50DOPE   HN2 6324   0.613   4.248   2.901 -0.2313 -1.5085  1.3839
   50DOPE   HN3 6325   0.449   4.295   2.882  0.9555  2.3714 -0.7537
   50DOPE   C12 6326   0.484   4.192   3.057 -0.7955  0.4877 -0.2921
   50DOPE  H12A 6327   0.443   4.097   3.018  0.8199 -0.7147  0.7673
   50DOPE  H12B 6328   0.403   4.237   3.118 -2.1188  0.6137 -2.0821
   50DOPE   C11 6329   0.609   4.175   3.154  0.2207 -0.0537  0.3497
   50DOPE  H11A 6330   0.581   4.123   3.248  1.2816  1.8049  1.7723
   50DOPE  H11B 6331   0.643   4.278   3.181  2.5177 -0.6243 -0.0992
   50DOPE     P 6332   0.857   4.186   3.066 -0.6324 -0.1435 -0.0045
   50DOPE   O13 6333   0.824   4.320   3.010  0.1429  0.6256  0.5384
   50DOPE   O14 6334   0.947   4.093   2.993  1.0266  0.0403 -0.5710
   50DOPE   O11 6335   0.909   4.203   3.211 -0.3717  0.0547  0.0491
   50DOPE   O12 6336   0.722   4.113   3.093  0.6590  0.8065 -0.2418
   50DOPE    C1 6337   0.921   4.089   3.293 -0.2867 -0.3630 -0.4081
   50DOPE    HA 6338   0.964   3.999   3.243  1.5627  0.7432 -0.9278
   50DOPE    HB 6339   0.819   4.059   3.325  0.3305  0.4945  2.7820
   50DOPE    C2 6340   0.988   4.135   3.421  0.2193  0.4046 -0.6691
   50DOPE    HS 6341   0.976   4.049   3.490 -1.6015 -0.8937 -2.4939
   50DOPE   O21 6342   0.927   4.260   3.477 -0.1045  0.5921 -0.0071
   50DOPE   C21 6343   0.793   4.253   3.507  0.5697 -0.5994 -0.4396
   50DOPE   O22 6344   0.736   4.148   3.524 -0.2868  0.1500  0.2894
   50DOPE   C22 6345   0.732   4.391   3.545  0.5503 -1.0576 -0.1306
   50DOPE   H2R 6346   0.629   4.372   3.582  0.2399 -0.9592 -0.9175
   50DOPE   H2S 6347   0.717   4.455   3.455 -3.1823  1.6064  2.0814
   50DOPE    C3 6348   1.136   4.163   3.401 -0.4691  0.2525  0.5560
   50DOPE    HX 6349   1.149   4.250   3.333  1.4483 -0.5404 -0.1741
   50DOPE    HY 6350   1.180   4.077   3.345  1.0908  1.2647  0.1470
   50DOPE   O31 6351   1.199   4.162   3.535 -0.0129 -0.0561  0.1417
   50DOPE   C31 6352   1.305   4.243   3.542 -0.5897  0.5052  0.4611
   50DOPE   O32 6353   1.361   4.288   3.442  0.1077 -0.1992 -0.2533
   50DOPE   C32 6354   1.351   4.246   3.687 -0.4560 -0.1610 -0.1030
   50DOPE   H2X 6355   1.374   4.139   3.702 -2.1395 -0.2399  2.5680
   50DOPE   H2Y 6356   1.448   4.297   3.698 -0.9250  1.1788 -1.7261
   50DOPE   C23 6357   0.815   4.479   3.655  0.0298  0.7432 -0.0401
   50DOPE   H3R 6358   0.920   4.507   3.630  0.1535 -0.0374 -0.4333
   50DOPE   H3S 6359   0.824   4.403   3.736  2.7546  1.2886  0.2565
   50DOPE   C24 6360   0.739   4.604   3.692  0.1149 -0.4226 -0.2926
   50DOPE   H4R 6361   0.632   4.579   3.714  0.0577 -1.0260 -1.1959
   50DOPE   H4S 6362   0.739   4.668   3.602  3.2458 -0.7117 -0.5967
   50DOPE   C25 6363   0.814   4.675   3.803 -0.2584 -0.0383  0.1746
   50DOPE   H5R 6364   0.764   4.771   3.827 -0.4209  0.7402 -2.9028
   50DOPE   H5S 6365   0.915   4.707   3.770  0.8971 -1.1510  2.4027
   50DOPE   C26 6366   0.817   4.596   3.939  0.1973  0.5063 -0.1009
   50DOPE   H6R 6367   0.859   4.496   3.916  2.3695  1.2784  0.2825
   50DOPE   H6S 6368   0.713   4.589   3.979 -0.2847  1.2703 -1.1709
   50DOPE   C27 6369   0.889   4.674   4.047  0.0138 -0.0292 -0.0701
   50DOPE   H7R 6370   0.997   4.669   4.019 -0.4329  0.4603 -2.0478
   50DOPE   H7S 6371   0.870   4.627   4.145 -0.6045  1.1046  0.3738
   50DOPE   C28 6372   0.858   4.820   4.073 -0.7418  0.0782 -0.1420
   50DOPE   H8R 6373   0.864   4.874   3.977  0.5569  1.5538  0.7237
   50DOPE   H8S 6374   0.941   4.867   4.130  0.5933 -0.0282 -1.9377
   50DOPE   C29 6375   0.720   4.817   4.137  0.3844 -0.1173  0.1681
   50DOPE   H9R 6376   0.635   4.774   4.083 -1.3174  0.4221  2.2374
   50DOPE  C210 6377   0.692   4.873   4.257 -0.0042  0.4573 -0.0765
   50DOPE  H10R 6378   0.590   4.881   4.296 -0.3008 -0.4610 -0.6137
   50DOPE  C211 6379   0.792   4.950   4.340 -0.3242 -0.5891  0.3021
   50DOPE  H11R 6380   0.857   5.012   4.274 -0.8077 -0.1799  0.2003
   50DOPE  H11S 6381   0.853   4.876   4.396 -2.1585 -1.3779  1.3477
   50DOPE  C212 6382   0.735   5.043   4.449 -0.2725  0.3064  0.4251
   50DOPE  H12R 6383   0.666   5.119   4.406 -1.7449 -2.0088 -1.5486
   50DOPE  H12S 6384   0.813   5.103   4.501  0.4209  0.4880 -0.8023
   50DOPE  C213 6385   0.649   4.966   4.554  0.1766 -0.0015  0.1576
   50DOPE  H13R 6386   0.711   4.901   4.621 -0.9877 -0.6785  0.6097
   50DOPE  H13S 6387   0.572   4.899   4.512 -0.1052 -1.1361  2.3325
   50DOPE  C214 6388   0.573   5.070   4.636  0.1134 -0.1909 -0.4475
   50DOPE  H14R 6389   0.510   5.135   4.573 -2.1454 -1.3572  0.4984
   50DOPE  H14S 6390   0.647   5.138   4.683  0.0013 -0.4242  0.0755
   50DOPE  C215 6391   0.479   4.996   4.738 -0.4003 -0.3633 -0.4470
   50DOPE  H15R 6392   0.424   5.053   4.816  0.5209 -0.4186  0.2616
   50DOPE  H15S 6393   0.554   4.938   4.796 -0.5190 -2.8692 -2.6277
   50DOPE  C216 6394   0.385   4.897   4.670  0.9561  0.1308  0.6613
   50DOPE  H16R 6395   0.418   4.793   4.692 -0.9348 -0.2493  2.0456
   50DOPE  H16S 6396   0.367   4.919   4.563 -1.3276 -2.9155  0.2707
   50DOPE  C217 6397   0.247   4.900   4.732  0.2540 -0.0019  0.6918
   50DOPE  H17R 6398   0.174   4.850   4.666  0.2024 -0.1857  0.8890
   50DOPE  H17S 6399   0.204   5.003   4.741 -1.0935 -0.4630 -0.1801
   50DOPE  C218 6400   0.242   4.828   4.863 -0.3956  0.2535 -0.1874
   50DOPE  H18R 6401   0.246   4.718   4.850  0.3267  0.2724 -0.1644
   50DOPE  H18S 6402   0.147   4.852   4.915  0.4629  0.4397  1.3504
   50DOPE  H18T 6403   0.324   4.862   4.930 -0.7005  0.4764  0.0817
   50DOPE   C33 6404   1.250   4.293   3.799 -0.7335  0.0300  0.0281
   50DOPE   H3X 6405   1.160   4.234   3.774  0.7960 -2.7561  0.6671
   50DOPE   H3Y 6406   1.229   4.402   3.806 -1.5383 -0.0266 -1.2184
   50DOPE   C34 6407   1.299   4.248   3.938 -0.4442  0.5724  0.0476
   50DOPE   H4X 6408   1.340   4.145   3.948  0.0327  0.8661  1.3805
   50DOPE   H4Y 6409   1.386   4.315   3.954 -0.2904  0.8823 -1.9010
   50DOPE   C35 6410   1.195   4.271   4.050  0.5158 -0.0200  0.3940
   50DOPE   H5X 6411   1.142   4.368   4.036 -1.7061 -1.2526 -0.1413
   50DOPE   H5Y 6412   1.235   4.270   4.153 -0.5803 -1.9055  0.8380
   50DOPE   C36 6413   1.088   4.162   4.048  0.8497 -0.3984  0.0028
   50DOPE   H6X 6414   1.150   4.072   4.068  2.3389  0.5439 -0.2227
   50DOPE   H6Y 6415   1.041   4.159   3.947  1.2661 -1.9234 -0.1766
   50DOPE   C37 6416   0.973   4.168   4.151 -0.0084  0.3737 -0.8810
   50DOPE   H7X 6417   0.926   4.067   4.150  1.6152 -0.4457  0.2539
   50DOPE   H7Y 6418   1.021   4.181   4.250  1.2662  1.5516 -1.6325
   50DOPE   C38 6419   0.869   4.280   4.122  0.4369 -0.5361 -0.2301
   50DOPE   H8X 6420   0.850   4.269   4.013  0.4522  0.4732 -0.3432
   50DOPE   H8Y 6421   0.930   4.371   4.137 -2.7144  1.4278  1.9468
   50DOPE   C39 6422   0.750   4.275   4.213  0.3854  0.0022  0.2305
   50DOPE   H9X 6423   0.656   4.251   4.161  0.8709 -0.8139 -0.2961
   50DOPE  C310 6424   0.739   4.328   4.331  0.2852  0.0070 -0.7879
   50DOPE  H10X 6425   0.647   4.310   4.387 -0.5196  1.9772 -1.3876
   50DOPE  C311 6426   0.853   4.395   4.405  0.4981  0.2285  0.4488
   50DOPE  H11X 6427   0.885   4.323   4.483  2.4649 -0.8307 -1.2214
   50DOPE  H11Y 6428   0.947   4.399   4.346  0.5289 -1.8974  0.2916
   50DOPE  C312 6429   0.816   4.545   4.432 -0.3778  1.0541 -0.0318
   50DOPE  H12X 6430   0.792   4.603   4.341  0.9662 -0.9588 -1.7738
   50DOPE  H12Y 6431   0.907   4.598   4.467  0.3568 -0.7284  0.9140
   50DOPE  C313 6432   0.715   4.551   4.544  0.0974 -0.0870 -0.9397
   50DOPE  H13X 6433   0.677   4.656   4.549  1.0877  0.4151 -2.7243
   50DOPE  H13Y 6434   0.626   4.486   4.531  0.4634 -0.5377 -1.2018
   50DOPE  C314 6435   0.775   4.522   4.679 -0.4151  0.1254  0.0851
   50DOPE  H14X 6436   0.862   4.583   4.710 -0.2699  1.2059 -2.2292
   50DOPE  H14Y 6437   0.815   4.419   4.672 -0.7951  0.0279 -0.8267
   50DOPE  C315 6438   0.672   4.517   4.791 -0.8466  0.4156 -0.0984
   50DOPE  H15X 6439   0.605   4.428   4.786  0.6069 -0.6679 -1.4615
   50DOPE  H15Y 6440   0.604   4.604   4.780  0.1364  1.1681 -0.4228
   50DOPE  C316 6441   0.737   4.507   4.932 -0.2664 -0.6484  0.6276
   50DOPE  H16X 6442   0.788   4.604   4.951 -1.2600 -0.2030  1.0707
   50DOPE  H16Y 6443   0.809   4.422   4.927  1.7271  0.7720  2.8524
   50DOPE  C317 6444   0.631   4.495   5.041  0.0625 -0.2249 -0.4531
   50DOPE  H17X 6445   0.558   4.578   5.043  2.3152  1.8620  1.1493
   50DOPE  H17Y 6446   0.570   4.404   5.022 -1.9582  0.6681  1.3871
   50DOPE  C318 6447   0.695   4.493   5.181  0.0357  0.0614 -0.3102
   50DOPE  H18X 6448   0.765   4.579   5.191  0.6517 -0.5937  1.3330
   50DOPE  H18Y 6449   0.617   4.502   5.260 -1.8752 -0.4509 -2.0574
   50DOPE  H18Z 6450   0.748   4.399   5.206 -0.4176 -0.4721 -1.2953
   51DOPE     N 6451   3.080   7.616   2.673 -0.2322  0.5917 -0.4182
   51DOPE   HN1 6452   3.160   7.636   2.736 -0.5391  1.5660 -0.3135
   51DOPE   HN2 6453   3.116   7.636   2.578  0.9235  1.6794  0.2193
   51DOPE   HN3 6454   3.002   7.684   2.690 -0.2672  1.1398 -2.5267
   51DOPE   C12 6455   3.053   7.471   2.692 -0.7090  0.5474 -0.2879
   51DOPE  H12A 6456   3.123   7.406   2.635 -1.6342 -1.6552  0.9425
   51DOPE  H12B 6457   2.945   7.448   2.676 -0.0275 -3.0976 -0.4091
   51DOPE   C11 6458   3.075   7.432   2.838 -0.7233 -0.6430  0.3543
   51DOPE  H11A 6459   3.001   7.355   2.869 -1.8760  0.2866 -0.0000
   51DOPE  H11B 6460   3.065   7.522   2.903  0.4673  0.3618 -0.7981
   51DOPE     P 6461   3.263   7.277   2.942 -0.4335  0.0392  0.3663
   51DOPE   O13 6462   3.411   7.278   2.944  0.5570 -0.2298  0.0649
   51DOPE   O14 6463   3.188   7.156   2.890  0.6404  0.2045  0.2325
   51DOPE   O11 6464   3.201   7.320   3.084 -0.4841  0.2991 -0.4520
   51DOPE   O12 6465   3.214   7.401   2.859 -0.0285  0.5668 -0.2615
   51DOPE    C1 6466   3.202   7.449   3.141  0.5715  1.0747  0.0719
   51DOPE    HA 6467   3.102   7.494   3.121  0.4909  0.6424 -0.5182
   51DOPE    HB 6468   3.288   7.501   3.095  0.7074 -0.4202 -1.4956
   51DOPE    C2 6469   3.214   7.426   3.296 -0.4424  0.4830  0.2659
   51DOPE    HS 6470   3.225   7.525   3.345  0.1927  1.5285 -1.8588
   51DOPE   O21 6471   3.333   7.349   3.314  0.2783  0.5106  0.0542
   51DOPE   C21 6472   3.447   7.424   3.315 -0.3379  0.9622  0.4499
   51DOPE   O22 6473   3.459   7.543   3.298 -0.1072 -0.1170  0.3319
   51DOPE   C22 6474   3.565   7.338   3.322 -0.1936  0.3136 -0.4414
   51DOPE   H2R 6475   3.639   7.380   3.252  0.4746  1.9633  1.1763
   51DOPE   H2S 6476   3.539   7.235   3.288  2.0094 -0.9987  1.5210
   51DOPE    C3 6477   3.094   7.353   3.361 -0.0417 -0.0409 -0.0493
   51DOPE    HX 6478   3.079   7.253   3.315 -0.1658 -0.1727  0.2798
   51DOPE    HY 6479   3.005   7.417   3.345 -1.1505 -1.4210  0.4337
   51DOPE   O31 6480   3.111   7.341   3.506  0.1499  0.4072 -0.6800
   51DOPE   C31 6481   3.158   7.225   3.552  0.5911 -0.1511 -0.2251
   51DOPE   O32 6482   3.174   7.122   3.486 -0.2502 -0.7328  0.1378
   51DOPE   C32 6483   3.184   7.242   3.698  0.1068 -0.3745 -0.4891
   51DOPE   H2X 6484   3.093   7.284   3.746  0.2341 -0.8300  0.1695
   51DOPE   H2Y 6485   3.204   7.140   3.738  3.6380  0.1659 -0.5674
   51DOPE   C23 6486   3.621   7.354   3.463 -0.1659 -0.0479 -0.9098
   51DOPE   H3R 6487   3.699   7.275   3.466  0.1890  0.2970 -0.9016
   51DOPE   H3S 6488   3.540   7.314   3.527 -0.7432 -1.3892 -2.4019
   51DOPE   C24 6489   3.690   7.483   3.505 -0.4603  0.0927  0.3501
   51DOPE   H4R 6490   3.627   7.574   3.503 -0.1545  0.2903 -1.1820
   51DOPE   H4S 6491   3.772   7.506   3.434 -1.3062  1.0094 -0.3519
   51DOPE   C25 6492   3.744   7.486   3.648 -0.2432 -0.3100  0.1073
   51DOPE   H5R 6493   3.662   7.484   3.722 -0.1440  0.6350  0.2539
   51DOPE   H5S 6494   3.779   7.591   3.661 -1.3501  0.5540 -3.0281
   51DOPE   C26 6495   3.850   7.382   3.680  0.2711  0.4061 -0.6570
   51DOPE   H6R 6496   3.929   7.437   3.736 -0.3460 -1.4872  2.3144
   51DOPE   H6S 6497   3.882   7.341   3.582  0.2350  2.1013 -1.4065
   51DOPE   C27 6498   3.800   7.277   3.784  0.2035 -0.7431 -0.4803
   51DOPE   H7R 6499   3.694   7.262   3.756 -0.1714  1.1909 -0.2500
   51DOPE   H7S 6500   3.793   7.330   3.881  0.6898 -0.0754 -0.7987
   51DOPE   C28 6501   3.882   7.151   3.800 -0.6360 -0.4631 -0.0974
   51DOPE   H8R 6502   3.886   7.105   3.699 -0.5996 -1.3480  0.2961
   51DOPE   H8S 6503   3.841   7.086   3.880 -1.7746  1.1967  0.7119
   51DOPE   C29 6504   4.027   7.188   3.840 -0.2480 -0.4479 -0.3715
   51DOPE   H9R 6505   4.086   7.209   3.750  1.3883 -0.4445  0.6563
   51DOPE  C210 6506   4.106   7.169   3.948 -0.6446 -0.0082  0.0472
   51DOPE  H10R 6507   4.214   7.191   3.944 -0.4127 -1.0223  0.5026
   51DOPE  C211 6508   4.055   7.092   4.068 -0.6354 -0.1525 -0.1514
   51DOPE  H11R 6509   4.095   6.988   4.064  3.0389  1.1006 -0.0724
   51DOPE  H11S 6510   3.945   7.092   4.078 -1.0893  2.6775 -3.2290
   51DOPE  C212 6511   4.116   7.151   4.200  0.3414  0.8580  0.1638
   51DOPE  H12R 6512   4.073   7.095   4.287  1.1565 -0.7164 -0.4118
   51DOPE  H12S 6513   4.103   7.260   4.215  1.6319  1.0654 -0.1472
   51DOPE  C213 6514   4.271   7.135   4.202 -0.3313 -0.1897 -0.7182
   51DOPE  H13R 6515   4.326   7.211   4.141 -0.5523 -0.0021 -0.6842
   51DOPE  H13S 6516   4.288   7.034   4.160 -2.7878 -0.1680 -1.9304
   51DOPE  C214 6517   4.330   7.134   4.340 -0.8898  0.6879  0.0847
   51DOPE  H14R 6518   4.438   7.158   4.328  0.4351 -2.2064  4.0518
   51DOPE  H14S 6519   4.324   7.031   4.380 -0.8612  0.2717 -0.9549
   51DOPE  C215 6520   4.280   7.240   4.441 -1.3041 -0.1467 -0.5913
   51DOPE  H15R 6521   4.170   7.226   4.451 -1.1760 -0.8692 -0.1288
   51DOPE  H15S 6522   4.301   7.332   4.383  2.2220 -0.1521  0.4646
   51DOPE  C216 6523   4.353   7.231   4.583 -0.0850 -0.4935  0.2609
   51DOPE  H16R 6524   4.322   7.323   4.638 -1.7068  0.1108 -1.5192
   51DOPE  H16S 6525   4.463   7.231   4.572  0.0857  1.3558  1.4758
   51DOPE  C217 6526   4.298   7.116   4.666  0.3661  0.1953 -0.6774
   51DOPE  H17R 6527   4.303   7.028   4.599 -0.4105  2.3905 -3.8327
   51DOPE  H17S 6528   4.188   7.128   4.680  0.1829 -1.6234 -0.3471
   51DOPE  C218 6529   4.365   7.078   4.799  0.2370 -0.4281  0.3019
   51DOPE  H18R 6530   4.474   7.057   4.793 -0.1969 -2.6134 -1.3987
   51DOPE  H18S 6531   4.307   6.993   4.841 -3.6305  1.1734 -1.3254
   51DOPE  H18T 6532   4.359   7.171   4.860  2.5933  1.2639 -1.8359
   51DOPE   C33 6533   3.296   7.337   3.747 -0.3358  0.2899 -0.7520
   51DOPE   H3X 6534   3.233   7.423   3.779 -0.6995  0.5804 -2.1743
   51DOPE   H3Y 6535   3.347   7.381   3.658 -1.3614  0.6631 -1.1690
   51DOPE   C34 6536   3.387   7.277   3.856  0.7714 -0.4746  0.4343
   51DOPE   H4X 6537   3.448   7.200   3.804  0.7367  0.4176 -0.9767
   51DOPE   H4Y 6538   3.451   7.353   3.907  0.3856  0.2674 -0.1659
   51DOPE   C35 6539   3.310   7.202   3.978  0.6573 -0.0286 -0.3877
   51DOPE   H5X 6540   3.303   7.094   3.954  0.8788 -0.8240  2.7040
   51DOPE   H5Y 6541   3.205   7.239   3.970  0.4884 -0.9008 -3.3417
   51DOPE   C36 6542   3.388   7.201   4.110 -0.5837  0.7497  0.2598
   51DOPE   H6X 6543   3.403   7.305   4.146 -1.4947  1.2062 -0.6444
   51DOPE   H6Y 6544   3.490   7.157   4.102 -1.0744 -0.7464  1.6302
   51DOPE   C37 6545   3.308   7.121   4.220  0.2678  0.6499 -0.7725
   51DOPE   H7X 6546   3.294   7.016   4.184 -4.6219  0.9816 -0.4983
   51DOPE   H7Y 6547   3.370   7.112   4.312  0.3952 -0.5676 -0.9584
   51DOPE   C38 6548   3.171   7.186   4.249  1.2453  0.5424  0.0365
   51DOPE   H8X 6549   3.116   7.183   4.153  0.7126  0.0148  0.3534
   51DOPE   H8Y 6550   3.185   7.294   4.268 -0.3472  0.9314 -0.8496
   51DOPE   C39 6551   3.089   7.121   4.355  0.8177  0.2190  0.2041
   51DOPE   H9X 6552   3.142   7.109   4.451  0.9279  1.2055  0.2874
   51DOPE  C310 6553   2.958   7.089   4.340 -0.2172 -0.3678 -0.4671
   51DOPE  H10X 6554   2.904   7.058   4.430  0.9643 -2.1236 -0.3123
   51DOPE  C311 6555   2.868   7.113   4.222 -0.5541 -1.1434 -0.2635
   51DOPE  H11X 6556   2.765   7.128   4.261  0.1285 -0.1049  1.2465
   51DOPE  H11Y 6557   2.912   7.201   4.170 -0.5356 -2.1340 -2.0231
   51DOPE  C312 6558   2.853   6.994   4.130  1.0917 -0.0698  0.4916
   51DOPE  H12X 6559   2.759   6.988   4.070  0.4158  2.2511  1.1977
   51DOPE  H12Y 6560   2.845   6.908   4.199  2.9486  0.4927  1.4563
   51DOPE  C313 6561   2.977   6.973   4.044  0.1344 -0.5993 -0.2249
   51DOPE  H13X 6562   2.985   7.051   3.966 -0.6596  0.7780  1.0198
   51DOPE  H13Y 6563   3.072   6.973   4.102 -0.2212  1.1159  0.4385
   51DOPE  C314 6564   2.969   6.837   3.968  0.3153  0.2254 -0.7311
   51DOPE  H14X 6565   2.946   6.766   4.050  0.8938  0.9947  0.1185
   51DOPE  H14Y 6566   3.067   6.806   3.925 -0.2554 -0.4640 -1.5689
   51DOPE  C315 6567   2.864   6.834   3.857 -0.0202 -0.2578 -0.4835
   51DOPE  H15X 6568   2.757   6.853   3.881  0.5820  2.9922  0.1068
   51DOPE  H15Y 6569   2.862   6.728   3.823 -1.1346  0.0402 -1.4163
   51DOPE  C316 6570   2.896   6.920   3.733  0.1857 -0.0105  0.6475
   51DOPE  H16X 6571   2.994   6.897   3.687 -1.1635 -1.1673 -1.8584
   51DOPE  H16Y 6572   2.889   7.023   3.776  0.9970  1.0464 -1.5974
   51DOPE  C317 6573   2.789   6.887   3.625 -0.5248 -0.1222  0.7534
   51DOPE  H17X 6574   2.786   6.777   3.611  0.5795 -0.2490  1.4407
   51DOPE  H17Y 6575   2.687   6.919   3.656 -0.1492 -0.5763  2.5379
   51DOPE  C318 6576   2.832   6.945   3.484 -0.1789 -0.0304  0.0150
   51DOPE  H18X 6577   2.934   6.909   3.461  0.4008 -0.3692  2.7094
   51DOPE  H18Y 6578   2.769   6.894   3.408  0.0862  0.8863 -0.8269
   51DOPE  H18Z 6579   2.838   7.055   3.492  1.0361 -0.1854  1.9004
   52DOPE     N 6580   0.877   4.764   3.099 -0.0701 -0.0130 -0.7484
   52DOPE   HN1 6581   0.851   4.670   3.063  1.6730 -1.8183  2.2423
   52DOPE   HN2 6582   0.822   4.826   3.036 -0.6439 -0.7963 -1.0301
   52DOPE   HN3 6583   0.978   4.782   3.085  0.0122  1.0700  0.9473
   52DOPE   C12 6584   0.828   4.787   3.239 -0.4359  0.1108 -0.1795
   52DOPE  H12A 6585   0.824   4.897   3.256  0.0712 -0.1231  1.6639
   52DOPE  H12B 6586   0.905   4.746   3.308 -1.4075  0.7986  1.3405
   52DOPE   C11 6587   0.694   4.715   3.268 -0.8022  0.4567  0.0761
   52DOPE  H11A 6588   0.657   4.742   3.369  0.4177  0.0595  0.6444
   52DOPE  H11B 6589   0.721   4.608   3.264 -1.5401  0.0994  2.8233
   52DOPE     P 6590   0.524   4.665   3.082 -0.1967  0.3559 -0.0730
   52DOPE   O13 6591   0.619   4.585   3.006 -0.0234 -0.1054  0.1617
   52DOPE   O14 6592   0.433   4.737   2.993 -0.1887  0.1575  0.4374
   52DOPE   O11 6593   0.447   4.565   3.178  0.2826 -0.0847 -0.3049
   52DOPE   O12 6594   0.598   4.760   3.173 -0.2961  0.2877  0.1874
   52DOPE    C1 6595   0.343   4.618   3.253  0.2048  0.0970 -1.5410
   52DOPE    HA 6596   0.289   4.696   3.195 -2.3163 -0.6597 -0.3155
   52DOPE    HB 6597   0.378   4.676   3.341 -0.6194 -0.2323 -0.9847
   52DOPE    C2 6598   0.242   4.505   3.295 -0.3298  0.3272 -0.4294
   52DOPE    HS 6599   0.178   4.551   3.373  1.3450  2.2637 -0.1025
   52DOPE   O21 6600   0.313   4.388   3.338 -0.1347 -0.5614 -0.4668
   52DOPE   C21 6601   0.360   4.389   3.462 -0.3042  0.2407 -0.0141
   52DOPE   O22 6602   0.373   4.486   3.537 -0.0961 -0.0526 -0.6939
   52DOPE   C22 6603   0.396   4.243   3.496  0.5874 -0.0684  0.3639
   52DOPE   H2R 6604   0.416   4.233   3.605  0.6891 -2.8974  0.1637
   52DOPE   H2S 6605   0.490   4.215   3.444 -0.1699 -0.8177 -0.6558
   52DOPE    C3 6606   0.152   4.478   3.176 -0.7343  0.1587  0.5883
   52DOPE    HX 6607   0.214   4.469   3.084 -0.3925  1.5639  0.6515
   52DOPE    HY 6608   0.093   4.571   3.165  2.2787  2.0553 -0.7152
   52DOPE   O31 6609   0.078   4.353   3.199  0.1499 -0.3628 -0.6152
   52DOPE   C31 6610  -0.028   4.343   3.121 -0.1781 -0.1342 -0.3685
   52DOPE   O32 6611  -0.055   4.424   3.035  0.0536 -0.4051  1.0735
   52DOPE   C32 6612  -0.107   4.212   3.156  0.8707  0.7271 -0.5965
   52DOPE   H2X 6613  -0.081   4.143   3.072  1.4931 -0.6892  0.7187
   52DOPE   H2Y 6614  -0.061   4.178   3.251 -1.8085  2.0501  1.3050
   52DOPE   C23 6615   0.281   4.143   3.454 -0.2543 -0.6738 -0.0474
   52DOPE   H3R 6616   0.315   4.046   3.496  0.6629 -0.2946  0.1078
   52DOPE   H3S 6617   0.277   4.129   3.344 -0.5654 -0.0563 -0.1206
   52DOPE   C24 6618   0.153   4.184   3.522  0.0073  0.0234  1.0094
   52DOPE   H4R 6619   0.083   4.099   3.517  0.3865 -0.2144 -0.9781
   52DOPE   H4S 6620   0.093   4.268   3.480 -2.2847 -0.6041  2.8492
   52DOPE   C25 6621   0.183   4.184   3.676 -0.7783 -0.2794 -0.2236
   52DOPE   H5R 6622   0.243   4.270   3.710 -0.7958 -0.1015 -0.6327
   52DOPE   H5S 6623   0.240   4.095   3.710 -0.4766  0.1738  0.4517
   52DOPE   C26 6624   0.053   4.198   3.761 -0.0917  0.7664  0.0446
   52DOPE   H6R 6625  -0.013   4.112   3.737 -0.4962  1.3652 -1.0561
   52DOPE   H6S 6626   0.005   4.287   3.714 -0.2888  1.0871  0.8275
   52DOPE   C27 6627   0.063   4.219   3.919 -0.3618 -1.1675  0.4169
   52DOPE   H7R 6628   0.132   4.306   3.932 -1.4642 -0.2468  0.2620
   52DOPE   H7S 6629   0.121   4.129   3.948 -0.1587 -0.8831  0.9179
   52DOPE   C28 6630  -0.068   4.256   3.992  0.0453  0.1279 -0.3749
   52DOPE   H8R 6631  -0.132   4.326   3.935 -1.5032 -0.7618  0.2026
   52DOPE   H8S 6632  -0.040   4.302   4.089  2.6434  0.2833 -1.1261
   52DOPE   C29 6633  -0.152   4.135   4.024 -0.7112  0.6970 -0.3592
   52DOPE   H9R 6634  -0.148   4.051   3.953  0.2831  0.0757  0.4091
   52DOPE  C210 6635  -0.252   4.133   4.120 -0.1273 -0.3386 -0.4196
   52DOPE  H10R 6636  -0.304   4.039   4.147 -3.8646  1.7421  0.3899
   52DOPE  C211 6637  -0.289   4.250   4.212  0.0368  0.3702  0.0914
   52DOPE  H11R 6638  -0.391   4.290   4.194 -0.4478 -0.6768  0.3977
   52DOPE  H11S 6639  -0.218   4.332   4.191  0.9794 -0.8827 -1.9408
   52DOPE  C212 6640  -0.272   4.219   4.369  0.1400 -0.2642  0.3164
   52DOPE  H12R 6641  -0.164   4.205   4.391  0.5937  3.1216  0.8589
   52DOPE  H12S 6642  -0.324   4.125   4.397  0.7492  0.2720  3.6244
   52DOPE  C213 6643  -0.321   4.330   4.465  0.3439 -0.2158 -0.1860
   52DOPE  H13R 6644  -0.322   4.299   4.571  0.2050  2.5933  0.7132
   52DOPE  H13S 6645  -0.425   4.358   4.435  0.9280  0.4450 -1.7451
   52DOPE  C214 6646  -0.242   4.460   4.467 -0.5488  0.2741  0.1615
   52DOPE  H14R 6647  -0.228   4.479   4.359 -0.2332 -0.4712  0.0667
   52DOPE  H14S 6648  -0.141   4.432   4.505  0.5633 -0.4405 -3.0090
   52DOPE  C215 6649  -0.304   4.574   4.549 -0.1679 -0.4609 -0.7662
   52DOPE  H15R 6650  -0.354   4.519   4.631 -0.4684 -0.2390 -0.7978
   52DOPE  H15S 6651  -0.388   4.626   4.498 -1.8992  0.1947  2.4753
   52DOPE  C216 6652  -0.202   4.679   4.610  0.0960  0.6357  0.0320
   52DOPE  H16R 6653  -0.155   4.747   4.536  1.1088 -1.0200 -0.8904
   52DOPE  H16S 6654  -0.115   4.634   4.662  1.2948  1.7728 -0.9303
   52DOPE  C217 6655  -0.269   4.765   4.722 -0.4201  0.2749  0.7395
   52DOPE  H17R 6656  -0.345   4.697   4.765 -0.6798 -1.0356 -1.6114
   52DOPE  H17S 6657  -0.312   4.854   4.672  1.7037  0.8960 -0.1322
   52DOPE  C218 6658  -0.171   4.818   4.827 -0.0653  0.4501  0.3409
   52DOPE  H18R 6659  -0.234   4.868   4.902  0.8243  2.7413 -0.3428
   52DOPE  H18S 6660  -0.113   4.736   4.873  1.7744  2.1433  1.1899
   52DOPE  H18T 6661  -0.099   4.888   4.779 -0.9837  1.6679  0.7045
   52DOPE   C33 6662  -0.257   4.227   3.180 -0.5159 -0.4527 -0.2917
   52DOPE   H3X 6663  -0.292   4.123   3.196  2.4095 -1.5744 -0.6276
   52DOPE   H3Y 6664  -0.295   4.276   3.088  0.8404  1.0280 -0.0996
   52DOPE   C34 6665  -0.282   4.316   3.304 -0.1945  0.4936 -0.0872
   52DOPE   H4X 6666  -0.241   4.419   3.297 -0.5636  0.5398 -1.7186
   52DOPE   H4Y 6667  -0.391   4.331   3.312 -0.5029 -0.9882 -1.1595
   52DOPE   C35 6668  -0.235   4.258   3.444  0.4774  0.6124  0.4333
   52DOPE   H5X 6669  -0.235   4.343   3.515  2.5614  0.0974  1.1159
   52DOPE   H5Y 6670  -0.134   4.214   3.431 -0.4152 -0.7049 -3.3933
   52DOPE   C36 6671  -0.336   4.148   3.493  0.5114  0.9112 -0.2069
   52DOPE   H6X 6672  -0.343   4.074   3.410  2.2413  1.6217 -1.0195
   52DOPE   H6Y 6673  -0.431   4.200   3.520 -0.4385 -0.7522 -0.1668
   52DOPE   C37 6674  -0.290   4.078   3.616  0.1554  0.7475  0.0518
   52DOPE   H7X 6675  -0.189   4.034   3.599 -0.2281 -0.0826 -0.1418
   52DOPE   H7Y 6676  -0.276   4.159   3.691  0.1873 -0.6446  1.6348
   52DOPE   C38 6677  -0.378   3.968   3.686  0.0251  0.5957 -0.7774
   52DOPE   H8X 6678  -0.312   3.923   3.764 -1.3665  0.7280  0.5200
   52DOPE   H8Y 6679  -0.388   3.883   3.616  1.7105 -2.4981  2.3983
   52DOPE   C39 6680  -0.510   3.990   3.761  0.5243 -0.1565  0.4412
   52DOPE   H9X 6681  -0.570   4.063   3.703  2.8606  1.7229  0.2095
   52DOPE  C310 6682  -0.545   3.949   3.880  0.8321 -0.6497  1.0989
   52DOPE  H10X 6683  -0.644   3.973   3.922  0.9211  0.9038  0.5043
   52DOPE  C311 6684  -0.469   3.863   3.972 -0.3949 -0.0966  0.0108
   52DOPE  H11X 6685  -0.384   3.819   3.915 -0.2258 -0.4199  0.5006
   52DOPE  H11Y 6686  -0.407   3.919   4.045  0.1357  0.0911 -0.5758
   52DOPE  C312 6687  -0.541   3.756   4.056 -0.0983 -0.7832 -0.1542
   52DOPE  H12X 6688  -0.469   3.696   4.117 -1.6707 -1.4105  1.1452
   52DOPE  H12Y 6689  -0.589   3.685   3.986  0.3859 -0.8812 -0.3960
   52DOPE  C313 6690  -0.649   3.809   4.156  0.2641  0.3002 -0.3823
   52DOPE  H13X 6691  -0.731   3.850   4.093 -0.5649 -0.4289  0.2002
   52DOPE  H13Y 6692  -0.688   3.726   4.219  2.6751 -0.4598  0.2061
   52DOPE  C314 6693  -0.595   3.908   4.257 -0.0389  0.0580 -0.6325
   52DOPE  H14X 6694  -0.680   3.937   4.321  0.8529  3.0292 -0.6675
   52DOPE  H14Y 6695  -0.564   4.000   4.203  0.2296  1.7121  2.1346
   52DOPE  C315 6696  -0.493   3.852   4.357 -0.3897 -0.3834 -0.6828
   52DOPE  H15X 6697  -0.454   3.930   4.425 -0.3631  0.7924 -2.0041
   52DOPE  H15Y 6698  -0.400   3.829   4.300 -1.3896  0.6398 -2.8446
   52DOPE  C316 6699  -0.552   3.741   4.450 -0.0068 -0.3057  0.1123
   52DOPE  H16X 6700  -0.575   3.638   4.413 -0.3967 -0.5040  0.8918
   52DOPE  H16Y 6701  -0.656   3.765   4.480 -1.0866  0.6640 -3.7478
   52DOPE  C317 6702  -0.461   3.724   4.575  0.0813  0.5136  0.4611
   52DOPE  H17X 6703  -0.359   3.726   4.529  0.0810  4.6672  0.1801
   52DOPE  H17Y 6704  -0.466   3.817   4.636  0.6042  0.7341  0.1793
   52DOPE  C318 6705  -0.493   3.606   4.664  0.1321  0.4948 -0.1292
   52DOPE  H18X 6706  -0.423   3.610   4.749 -1.4089  0.4223  1.1882
   52DOPE  H18Y 6707  -0.602   3.609   4.688  0.0484 -2.7545  0.2416
   52DOPE  H18Z 6708  -0.481   3.507   4.616  1.2399  1.1516 -1.2760
   53DOPE     N 6709   6.713   6.794   2.960  0.2609 -0.6139  0.1070
   53DOPE   HN1 6710   6.804   6.828   2.996  0.8428 -1.6709 -0.3022
   53DOPE   HN2 6711   6.721   6.690   2.966 -2.0859 -0.9218 -0.7045
   53DOPE   HN3 6712   6.720   6.829   2.862 -1.4692  1.2837  0.5956
   53DOPE   C12 6713   6.596   6.840   3.041 -0.9491  0.0088  0.5893
   53DOPE  H12A 6714   6.585   6.951   3.033 -1.0044  0.0132  0.7108
   53DOPE  H12B 6715   6.605   6.792   3.141 -0.1927 -2.7388 -0.7056
   53DOPE   C11 6716   6.469   6.781   2.979  0.2462 -0.5495 -0.1000
   53DOPE  H11A 6717   6.472   6.673   2.950 -0.8596 -0.3853 -0.8943
   53DOPE  H11B 6718   6.444   6.831   2.883  1.4433 -0.9566 -0.6439
   53DOPE     P 6719   6.234   6.886   3.037  0.3179 -0.1590  0.0635
   53DOPE   O13 6720   6.146   6.818   2.940  0.3560 -0.1298  0.1811
   53DOPE   O14 6721   6.280   7.023   3.013 -0.8287 -0.3651  0.6860
   53DOPE   O11 6722   6.157   6.871   3.179 -0.1539  0.4166 -0.2543
   53DOPE   O12 6723   6.360   6.800   3.066  0.5381 -0.2560 -0.0011
   53DOPE    C1 6724   6.243   6.862   3.300  0.4901 -0.1412 -0.0894
   53DOPE    HA 6725   6.326   6.936   3.305 -0.1983  0.6810 -0.5518
   53DOPE    HB 6726   6.290   6.762   3.301 -3.6167 -2.2675 -0.9439
   53DOPE    C2 6727   6.160   6.877   3.432  0.4667 -0.4152  0.1074
   53DOPE    HS 6728   6.223   6.853   3.520  0.0033  0.5504  0.7109
   53DOPE   O21 6729   6.054   6.786   3.425  0.3851  0.3906 -0.1711
   53DOPE   C21 6730   6.078   6.665   3.471 -0.2936 -0.0606  0.4992
   53DOPE   O22 6731   6.179   6.633   3.528 -0.3306  0.1943  0.5666
   53DOPE   C22 6732   5.966   6.565   3.427 -0.1612 -0.1343  0.0467
   53DOPE   H2R 6733   6.002   6.500   3.345 -0.7191  0.7231 -0.9059
   53DOPE   H2S 6734   5.879   6.623   3.389 -0.2306 -0.8857 -0.9670
   53DOPE    C3 6735   6.090   7.017   3.452 -0.3942 -0.2636 -0.6322
   53DOPE    HX 6736   6.035   7.047   3.360  1.1143  0.2003 -1.4161
   53DOPE    HY 6737   6.167   7.096   3.463  0.5892 -1.1015 -1.3492
   53DOPE   O31 6738   6.013   7.010   3.577  0.2575  0.7262  0.0687
   53DOPE   C31 6739   5.882   6.991   3.561  0.0473  0.3039  0.0135
   53DOPE   O32 6740   5.822   6.985   3.456  0.1433 -0.6835 -0.0349
   53DOPE   C32 6741   5.830   6.960   3.700 -0.3688 -0.3620 -0.2619
   53DOPE   H2X 6742   5.863   6.862   3.740  0.4727 -0.0246 -0.0937
   53DOPE   H2Y 6743   5.870   7.048   3.755 -0.2950  0.1006 -1.0524
   53DOPE   C23 6744   5.923   6.468   3.540  0.4664  1.0939 -0.0549
   53DOPE   H3R 6745   6.018   6.430   3.582  1.3060  2.1425 -0.9440
   53DOPE   H3S 6746   5.863   6.389   3.489  0.7139  1.8192 -1.5198
   53DOPE   C24 6747   5.837   6.540   3.639 -0.1281  0.2770 -0.3260
   53DOPE   H4R 6748   5.744   6.579   3.591 -0.6354  1.1434  1.2984
   53DOPE   H4S 6749   5.882   6.627   3.691  2.2643 -1.2744  0.3906
   53DOPE   C25 6750   5.773   6.442   3.747  0.0472 -0.0996 -0.0433
   53DOPE   H5R 6751   5.729   6.364   3.681 -0.6434  1.3104 -1.3255
   53DOPE   H5S 6752   5.694   6.486   3.812 -0.4420 -2.2022  0.8609
   53DOPE   C26 6753   5.880   6.385   3.834  0.5546 -0.7208  0.1906
   53DOPE   H6R 6754   5.955   6.462   3.862 -2.2495  2.7656 -1.0552
   53DOPE   H6S 6755   5.930   6.301   3.781 -3.0160 -1.7516 -1.8669
   53DOPE   C27 6756   5.822   6.325   3.965  0.1089  0.0974  1.0724
   53DOPE   H7R 6757   5.909   6.262   3.995  1.0481  1.4357  1.2860
   53DOPE   H7S 6758   5.737   6.259   3.940  0.8509  0.0424 -1.5305
   53DOPE   C28 6759   5.792   6.432   4.071  0.3917  0.0745  0.6588
   53DOPE   H8R 6760   5.698   6.476   4.032 -0.1589 -2.8591 -1.7689
   53DOPE   H8S 6761   5.865   6.515   4.065 -1.1826  1.6096  1.5690
   53DOPE   C29 6762   5.773   6.368   4.213 -0.3099  0.0147  0.9289
   53DOPE   H9R 6763   5.695   6.290   4.217 -0.7080  0.3937  0.6939
   53DOPE  C210 6764   5.837   6.396   4.327 -1.3718  0.5839 -0.1326
   53DOPE  H10R 6765   5.810   6.345   4.421  0.8529 -1.5763 -0.5509
   53DOPE  C211 6766   5.952   6.497   4.353 -0.1108  0.2241 -0.1216
   53DOPE  H11R 6767   5.932   6.560   4.441 -0.3107 -0.1549  0.1075
   53DOPE  H11S 6768   5.958   6.571   4.270  1.5618 -1.8625 -2.0148
   53DOPE  C212 6769   6.082   6.432   4.378 -0.1043  0.7145 -0.2850
   53DOPE  H12R 6770   6.117   6.376   4.289  0.2118  1.5022 -0.6681
   53DOPE  H12S 6771   6.077   6.359   4.462 -0.6486  1.5805  0.4585
   53DOPE  C213 6772   6.202   6.523   4.409 -0.1773  0.3678  0.0999
   53DOPE  H13R 6773   6.185   6.583   4.501 -0.2876  0.9252 -0.2770
   53DOPE  H13S 6774   6.225   6.595   4.327  2.7111 -1.4602 -0.8416
   53DOPE  C214 6775   6.321   6.432   4.442  0.3718 -0.4001  0.6356
   53DOPE  H14R 6776   6.355   6.369   4.357 -0.3236  1.7817 -1.3795
   53DOPE  H14S 6777   6.315   6.370   4.534  1.3038 -0.2552  0.8021
   53DOPE  C215 6778   6.455   6.513   4.465  0.4978 -0.4334  0.5387
   53DOPE  H15R 6779   6.427   6.571   4.556 -1.4145  0.7821 -0.7468
   53DOPE  H15S 6780   6.462   6.594   4.389  2.2673 -0.8150  0.2545
   53DOPE  C216 6781   6.581   6.430   4.461  0.3222 -0.1095 -0.3441
   53DOPE  H16R 6782   6.661   6.506   4.469  0.3355 -0.1142 -0.4350
   53DOPE  H16S 6783   6.585   6.376   4.364 -1.6435  0.3165 -0.7144
   53DOPE  C217 6784   6.598   6.317   4.566 -0.0707  0.0869  0.0363
   53DOPE  H17R 6785   6.706   6.292   4.560  0.1199  1.1690 -2.5342
   53DOPE  H17S 6786   6.527   6.236   4.540 -2.9460  2.2146  0.8171
   53DOPE  C218 6787   6.561   6.355   4.710  0.6637  0.1808  0.2704
   53DOPE  H18R 6788   6.586   6.270   4.777  0.7845 -1.7900 -2.1222
   53DOPE  H18S 6789   6.450   6.365   4.706  0.4631 -2.0252 -0.6413
   53DOPE  H18T 6790   6.607   6.449   4.749 -1.2296  0.0141  3.2704
   53DOPE   C33 6791   5.679   6.959   3.705 -0.7752 -0.3616  0.9282
   53DOPE   H3X 6792   5.637   6.867   3.660 -1.7554 -0.2097  1.5078
   53DOPE   H3Y 6793   5.639   7.044   3.645 -0.6514 -1.1155 -0.2499
   53DOPE   C34 6794   5.625   6.976   3.847 -0.5439  0.5400 -0.8120
   53DOPE   H4X 6795   5.647   7.079   3.881 -2.9524  0.0886  2.6153
   53DOPE   H4Y 6796   5.514   6.971   3.843 -0.4868 -0.3788 -1.4761
   53DOPE   C35 6797   5.681   6.885   3.958  0.6045  0.4877  0.7540
   53DOPE   H5X 6798   5.791   6.896   3.955  0.4896  1.5742 -0.5620
   53DOPE   H5Y 6799   5.654   6.783   3.922 -1.4373  1.2700 -0.0703
   53DOPE   C36 6800   5.610   6.910   4.088 -0.2232 -0.8857  0.0935
   53DOPE   H6X 6801   5.505   6.928   4.055 -0.2070 -0.5690  0.2082
   53DOPE   H6Y 6802   5.648   7.002   4.137 -0.0920 -1.7182  1.6303
   53DOPE   C37 6803   5.612   6.797   4.191 -0.3489 -0.2368 -0.0528
   53DOPE   H7X 6804   5.576   6.700   4.149 -1.3085 -0.0427  0.3013
   53DOPE   H7Y 6805   5.712   6.784   4.237 -1.0956  0.1277  1.7372
   53DOPE   C38 6806   5.524   6.838   4.304  0.0056  0.5929  0.3163
   53DOPE   H8X 6807   5.418   6.854   4.275  0.2986 -1.0471 -1.8546
   53DOPE   H8Y 6808   5.568   6.933   4.343  2.4150  0.7172 -2.4134
   53DOPE   C39 6809   5.529   6.726   4.410 -0.8156 -0.2218 -0.2958
   53DOPE   H9X 6810   5.495   6.626   4.377 -1.5866  0.3005 -1.1465
   53DOPE  C310 6811   5.577   6.728   4.540  0.4042 -0.7621  0.1936
   53DOPE  H10X 6812   5.578   6.642   4.609  1.1588 -1.0375 -0.1414
   53DOPE  C311 6813   5.627   6.855   4.606  0.7440  0.1858  0.7473
   53DOPE  H11X 6814   5.737   6.855   4.592  0.5568 -1.7507 -1.4181
   53DOPE  H11Y 6815   5.582   6.938   4.549  0.8181 -0.2409  0.0561
   53DOPE  C312 6816   5.600   6.853   4.759 -0.2541  0.4194  0.2047
   53DOPE  H12X 6817   5.491   6.851   4.782 -0.3590  1.0780 -0.1951
   53DOPE  H12Y 6818   5.632   6.949   4.806 -0.6289  0.1545  1.0253
   53DOPE  C313 6819   5.678   6.744   4.836 -0.1994 -0.1786  0.7754
   53DOPE  H13X 6820   5.630   6.748   4.937 -3.8137 -2.2140 -0.6725
   53DOPE  H13Y 6821   5.646   6.643   4.803 -1.8724  0.7395 -0.5927
   53DOPE  C314 6822   5.832   6.750   4.837  0.1847  0.1843 -0.1075
   53DOPE  H14X 6823   5.871   6.851   4.862  0.7147 -0.1131  0.2938
   53DOPE  H14Y 6824   5.865   6.731   4.732 -3.7566 -1.6230 -1.2197
   53DOPE  C315 6825   5.890   6.642   4.928  0.0872 -0.2500  0.0363
   53DOPE  H15X 6826   5.861   6.544   4.884 -1.0733 -0.4853  1.2496
   53DOPE  H15Y 6827   5.849   6.645   5.031  1.5342 -1.1875  0.6680
   53DOPE  C316 6828   6.042   6.657   4.931 -0.3076 -0.1909 -0.0971
   53DOPE  H16X 6829   6.075   6.558   4.970  1.6416  0.5507  0.2208
   53DOPE  H16Y 6830   6.083   6.733   5.001  1.2994 -0.0928 -1.0998
   53DOPE  C317 6831   6.115   6.667   4.791 -0.2012  0.4865  0.5894
   53DOPE  H17X 6832   6.087   6.583   4.724  2.2608 -0.1166  0.1897
   53DOPE  H17Y 6833   6.079   6.757   4.737 -3.0094 -0.7545  0.2236
   53DOPE  C318 6834   6.260   6.646   4.802  0.0461 -0.3027 -0.2451
   53DOPE  H18X 6835   6.315   6.688   4.715 -1.7361 -0.0651 -1.3099
   53DOPE  H18Y 6836   6.295   6.699   4.893  1.0201 -2.0202  0.4303
   53DOPE  H18Z 6837   6.276   6.537   4.814  0.5312 -0.2592 -0.4953
   54DOPE     N 6838   0.578   3.587   3.146 -0.0309  0.2308 -0.9009
   54DOPE   HN1 6839   0.611   3.611   3.050  0.1943  1.0932 -0.6147
   54DOPE   HN2 6840   0.655   3.607   3.213 -0.3769  1.5525 -0.8604
   54DOPE   HN3 6841   0.570   3.484   3.160  0.3703  0.5819  3.1473
   54DOPE   C12 6842   0.460   3.668   3.188 -0.0703  0.2209  0.0764
   54DOPE  H12A 6843   0.451   3.663   3.298 -1.0591  2.9524  0.1893
   54DOPE  H12B 6844   0.365   3.637   3.139 -0.0372  2.1311 -1.2957
   54DOPE   C11 6845   0.489   3.817   3.143  0.6475 -0.1125  0.5491
   54DOPE  H11A 6846   0.569   3.870   3.200 -1.1833  1.5421  1.6800
   54DOPE  H11B 6847   0.401   3.884   3.147  0.3815 -0.3094 -1.0982
   54DOPE     P 6848   0.439   3.795   2.883  0.3378 -0.0254 -0.2482
   54DOPE   O13 6849   0.481   3.664   2.824  0.8273  0.1816 -0.1441
   54DOPE   O14 6850   0.423   3.910   2.793  0.2496 -0.2863 -0.3797
   54DOPE   O11 6851   0.300   3.768   2.950 -0.2171  0.8143 -0.3693
   54DOPE   O12 6852   0.525   3.826   3.008 -0.8230  0.2590 -0.4519
   54DOPE    C1 6853   0.204   3.683   2.889  0.2685  0.6166  0.6726
   54DOPE    HA 6854   0.239   3.582   2.920  1.0253  0.4248 -0.7037
   54DOPE    HB 6855   0.207   3.705   2.780  0.9914 -0.0038  0.5531
   54DOPE    C2 6856   0.066   3.712   2.934  0.1654 -0.8738 -0.9616
   54DOPE    HS 6857   0.049   3.821   2.917  3.4423 -0.2949 -1.2000
   54DOPE   O21 6858   0.055   3.675   3.067 -0.0589 -0.3381  0.1053
   54DOPE   C21 6859   0.083   3.765   3.157 -0.1730  0.0458 -0.5587
   54DOPE   O22 6860   0.108   3.883   3.144 -0.2304 -0.2589  0.0965
   54DOPE   C22 6861   0.077   3.698   3.299 -0.0213 -0.3578 -0.4461
   54DOPE   H2R 6862   0.176   3.656   3.328 -0.8508 -3.0720 -1.2562
   54DOPE   H2S 6863   0.007   3.611   3.298  0.0146 -0.4385  1.1710
   54DOPE    C3 6864  -0.039   3.632   2.850  0.3108 -0.3826 -0.1959
   54DOPE    HX 6865  -0.002   3.531   2.823  0.5781  0.0287 -1.4704
   54DOPE    HY 6866  -0.063   3.682   2.753  1.9480  0.9187  0.0306
   54DOPE   O31 6867  -0.158   3.616   2.930  0.3838 -0.2050  0.0840
   54DOPE   C31 6868  -0.243   3.715   2.945 -0.1083 -0.6147 -0.4600
   54DOPE   O32 6869  -0.229   3.827   2.892 -0.0019 -0.4483  0.7691
   54DOPE   C32 6870  -0.360   3.680   3.035  0.2809  0.0244  0.1710
   54DOPE   H2X 6871  -0.449   3.737   3.003  1.6700  1.4527 -1.3835
   54DOPE   H2Y 6872  -0.389   3.577   3.007 -1.3667  0.9445 -1.6967
   54DOPE   C23 6873   0.035   3.790   3.416  0.4786 -0.0985  0.3729
   54DOPE   H3R 6874  -0.050   3.852   3.379 -0.3756 -1.4410  0.0303
   54DOPE   H3S 6875   0.127   3.847   3.440  1.4484 -1.2129 -0.5924
   54DOPE   C24 6876  -0.006   3.703   3.537 -0.0754 -0.3066 -0.2233
   54DOPE   H4R 6877   0.029   3.757   3.628 -0.4701 -0.5634  0.0857
   54DOPE   H4S 6878   0.044   3.604   3.524  1.2011  0.6394 -3.6100
   54DOPE   C25 6879  -0.164   3.695   3.548  0.0308 -0.7048 -0.1202
   54DOPE   H5R 6880  -0.204   3.729   3.450  0.1483 -0.7994 -0.2011
   54DOPE   H5S 6881  -0.200   3.764   3.628 -1.5926 -0.3174 -1.1422
   54DOPE   C26 6882  -0.214   3.551   3.580 -0.1401  0.1054 -0.5170
   54DOPE   H6R 6883  -0.175   3.481   3.503 -0.1441 -1.3149  0.7343
   54DOPE   H6S 6884  -0.324   3.542   3.571 -0.3782  1.7169  0.4208
   54DOPE   C27 6885  -0.169   3.500   3.722 -0.4956 -0.0321 -0.2813
   54DOPE   H7R 6886  -0.058   3.509   3.727 -0.5494 -0.1373  1.7253
   54DOPE   H7S 6887  -0.202   3.394   3.726 -0.2575 -0.0683  1.1262
   54DOPE   C28 6888  -0.248   3.569   3.836 -0.5010 -0.5672  0.6805
   54DOPE   H8R 6889  -0.353   3.565   3.799 -1.2322 -1.8828  2.7060
   54DOPE   H8S 6890  -0.207   3.671   3.852 -0.6085  0.1347 -2.8159
   54DOPE   C29 6891  -0.233   3.472   3.953 -0.5207 -0.3428  0.1518
   54DOPE   H9R 6892  -0.135   3.467   4.002 -0.1545 -1.1292 -0.6346
   54DOPE  C210 6893  -0.330   3.404   4.008 -0.5100  0.2911 -0.2259
   54DOPE  H10R 6894  -0.291   3.341   4.089  0.4630  1.5068  0.3062
   54DOPE  C211 6895  -0.476   3.399   3.967 -0.0812 -0.1557  0.1461
   54DOPE  H11R 6896  -0.506   3.305   3.916 -0.9902 -0.0644  0.4997
   54DOPE  H11S 6897  -0.505   3.479   3.895  3.3139  0.3416 -0.8221
   54DOPE  C212 6898  -0.560   3.414   4.092  0.3424 -0.3275  0.0687
   54DOPE  H12R 6899  -0.648   3.471   4.055  0.7928  0.6520  0.4653
   54DOPE  H12S 6900  -0.514   3.482   4.166  0.8267  1.6445 -1.9376
   54DOPE  C213 6901  -0.608   3.286   4.158  0.8030  0.4856  0.4113
   54DOPE  H13R 6902  -0.526   3.225   4.203 -0.2846 -1.4821 -0.1541
   54DOPE  H13S 6903  -0.657   3.225   4.079  0.7049  2.0865 -0.7944
   54DOPE  C214 6904  -0.702   3.333   4.277 -0.8064  0.2961 -0.0601
   54DOPE  H14R 6905  -0.773   3.414   4.248 -0.5778  1.1520  1.6054
   54DOPE  H14S 6906  -0.632   3.376   4.351  0.0502  0.7558 -1.1055
   54DOPE  C215 6907  -0.776   3.222   4.355 -0.2446 -0.2008 -0.2313
   54DOPE  H15R 6908  -0.844   3.175   4.280  1.3948 -0.8274 -1.4075
   54DOPE  H15S 6909  -0.832   3.269   4.438 -2.6572  1.0036 -2.3924
   54DOPE  C216 6910  -0.674   3.115   4.409  0.2703 -0.0462 -0.6121
   54DOPE  H16R 6911  -0.620   3.068   4.323 -1.7332 -1.9279 -0.9372
   54DOPE  H16S 6912  -0.722   3.025   4.452  0.9143 -1.1552 -2.1071
   54DOPE  C217 6913  -0.583   3.169   4.517 -0.0215 -0.3670 -0.4967
   54DOPE  H17R 6914  -0.644   3.201   4.604 -0.0538  0.7660 -0.9155
   54DOPE  H17S 6915  -0.535   3.264   4.484 -0.7794  1.0778  2.3043
   54DOPE  C218 6916  -0.477   3.072   4.567 -0.3588  0.7438 -0.1283
   54DOPE  H18R 6917  -0.523   2.975   4.593 -0.7771  1.1481  0.6666
   54DOPE  H18S 6918  -0.438   3.107   4.664 -0.9020 -0.1473  0.4236
   54DOPE  H18T 6919  -0.391   3.062   4.498 -0.0932  0.6845  0.2122
   54DOPE   C33 6920  -0.322   3.690   3.179  0.1100  0.5275 -0.7794
   54DOPE   H3X 6921  -0.299   3.798   3.189 -1.5598  1.0397 -1.9378
   54DOPE   H3Y 6922  -0.239   3.621   3.202 -0.7444 -0.2170  0.1642
   54DOPE   C34 6923  -0.439   3.634   3.260  0.2478 -0.7920 -0.3509
   54DOPE   H4X 6924  -0.484   3.542   3.217 -0.4309 -0.9881  0.7412
   54DOPE   H4Y 6925  -0.389   3.613   3.357  2.1282 -0.8124 -1.2808
   54DOPE   C35 6926  -0.558   3.738   3.284 -1.0762 -0.3949 -0.4041
   54DOPE   H5X 6927  -0.603   3.758   3.184 -0.1441  3.0814 -0.2595
   54DOPE   H5Y 6928  -0.514   3.832   3.324  2.0625 -2.5976  1.8443
   54DOPE   C36 6929  -0.653   3.695   3.390  0.7863  0.1743 -0.1083
   54DOPE   H6X 6930  -0.603   3.704   3.489 -1.2526  4.1584  0.7590
   54DOPE   H6Y 6931  -0.694   3.593   3.370 -0.5642  1.1376 -2.6578
   54DOPE   C37 6932  -0.786   3.777   3.406 -0.4935 -0.5316 -0.5540
   54DOPE   H7X 6933  -0.836   3.762   3.308  1.0703  0.4132 -1.5512
   54DOPE   H7Y 6934  -0.850   3.722   3.477 -0.4331  0.9909  0.7359
   54DOPE   C38 6935  -0.780   3.921   3.443  0.2115  0.2712  0.1651
   54DOPE   H8X 6936  -0.737   3.980   3.359 -1.9478  2.5268  0.5255
   54DOPE   H8Y 6937  -0.719   3.941   3.534  1.4286 -0.0294 -0.5668
   54DOPE   C39 6938  -0.926   3.960   3.468 -0.5370  0.3088  0.2214
   54DOPE   H9X 6939  -0.991   3.932   3.384 -2.9123  2.4592  1.2248
   54DOPE  C310 6940  -0.982   4.025   3.571  0.7553 -0.1311  0.0735
   54DOPE  H10X 6941  -1.091   4.031   3.561  0.7782  0.5011  0.1815
   54DOPE  C311 6942  -0.916   4.079   3.699 -0.3924 -0.0481  0.3225
   54DOPE  H11X 6943  -0.811   4.043   3.700 -0.5118 -0.4073  1.5763
   54DOPE  H11Y 6944  -0.924   4.190   3.693 -1.3540 -0.0679  0.9293
   54DOPE  C312 6945  -0.987   4.021   3.822  0.2905 -0.6448 -0.1596
   54DOPE  H12X 6946  -1.097   4.032   3.813  0.2694 -1.0707 -0.4710
   54DOPE  H12Y 6947  -0.943   4.072   3.911  0.2797  1.8628 -1.5124
   54DOPE  C313 6948  -0.949   3.876   3.846  0.0761  0.4368  0.6371
   54DOPE  H13X 6949  -0.951   3.824   3.748  3.0765 -0.0108  0.7492
   54DOPE  H13Y 6950  -0.844   3.856   3.875  0.8288 -0.4094 -2.3085
   54DOPE  C314 6951  -1.044   3.791   3.938  0.3015 -0.5240 -0.2000
   54DOPE  H14X 6952  -1.149   3.803   3.902  0.5368 -0.9666 -1.0448
   54DOPE  H14Y 6953  -1.022   3.823   4.042 -0.8922 -3.2468  0.9940
   54DOPE  C315 6954  -1.005   3.641   3.933  0.1956 -0.1439 -0.6504
   54DOPE  H15X 6955  -0.896   3.633   3.952 -0.0926 -0.5674  0.9166
   54DOPE  H15Y 6956  -1.030   3.602   3.832 -1.4596  1.9401 -1.1482
   54DOPE  C316 6957  -1.068   3.569   4.053  0.4446  1.0156  0.4234
   54DOPE  H16X 6958  -1.174   3.601   4.047  0.3715  0.5027 -2.3520
   54DOPE  H16Y 6959  -1.026   3.618   4.143  1.0895 -0.0530  0.7207
   54DOPE  C317 6960  -1.048   3.416   4.052 -0.9230  0.0741  0.0211
   54DOPE  H17X 6961  -1.108   3.381   3.966  0.4306 -2.6382  0.0931
   54DOPE  H17Y 6962  -0.943   3.384   4.034 -0.8893  0.0303  0.2833
   54DOPE  C318 6963  -1.088   3.345   4.175  0.2580  0.0001  0.4313
   54DOPE  H18X 6964  -1.069   3.236   4.183 -1.0673 -0.5318 -2.3858
   54DOPE  H18Y 6965  -1.062   3.406   4.264 -3.3900  0.2767  1.4552
   54DOPE  H18Z 6966  -1.199   3.334   4.174  0.4871 -3.3687  0.6101
   55DOPE     N 6967   1.025   6.741   2.820  0.2477  0.0113  0.0348
   55DOPE   HN1 6968   1.010   6.812   2.745  0.5888 -0.4601 -0.4958
   55DOPE   HN2 6969   0.959   6.767   2.895  0.9028  1.0019  0.2900
   55DOPE   HN3 6970   1.124   6.742   2.852  0.2701 -1.9713  0.1649
   55DOPE   C12 6971   1.023   6.606   2.761 -0.4976 -0.2405  0.0348
   55DOPE  H12A 6972   1.083   6.596   2.667 -0.2395 -1.5671  0.3106
   55DOPE  H12B 6973   0.919   6.592   2.725 -0.4027  1.5529 -1.0415
   55DOPE   C11 6974   1.053   6.510   2.881 -0.5948  0.8664  0.1621
   55DOPE  H11A 6975   0.994   6.417   2.863 -0.2595  0.3923  1.4003
   55DOPE  H11B 6976   1.008   6.542   2.978 -0.4330  0.0519  0.5138
   55DOPE     P 6977   1.286   6.548   2.989  0.2761  0.2005  0.2322
   55DOPE   O13 6978   1.293   6.687   2.933 -0.2486 -0.2041 -0.7384
   55DOPE   O14 6979   1.404   6.475   3.011  0.4138 -0.0480  0.8991
   55DOPE   O11 6980   1.207   6.546   3.123 -0.1338 -0.1506 -0.2808
   55DOPE   O12 6981   1.187   6.463   2.894 -0.7340  0.6669 -0.0093
   55DOPE    C1 6982   1.179   6.429   3.195  0.5210 -0.0727 -0.5126
   55DOPE    HA 6983   1.265   6.410   3.263  0.4548 -0.9615 -0.6750
   55DOPE    HB 6984   1.169   6.338   3.134 -2.7851 -1.5266  1.8589
   55DOPE    C2 6985   1.054   6.447   3.286  0.6044  0.2444 -0.1841
   55DOPE    HS 6986   0.983   6.510   3.228 -0.1147 -0.0991  0.3101
   55DOPE   O21 6987   1.092   6.532   3.398 -0.5249 -0.4031  0.4482
   55DOPE   C21 6988   0.987   6.561   3.477  0.1551  0.7113  0.5608
   55DOPE   O22 6989   0.873   6.542   3.444 -0.4423 -0.1621 -0.1022
   55DOPE   C22 6990   1.037   6.630   3.604  0.2589  0.0072 -0.0244
   55DOPE   H2R 6991   1.047   6.740   3.590 -0.6466  0.1913  0.7004
   55DOPE   H2S 6992   1.140   6.593   3.624  1.3281  1.5734 -2.1876
   55DOPE    C3 6993   0.990   6.312   3.333 -0.1015 -0.7651  0.1374
   55DOPE    HX 6994   1.010   6.244   3.247 -0.1743  0.1003 -0.5850
   55DOPE    HY 6995   0.880   6.306   3.327 -0.0029 -1.5933 -1.8511
   55DOPE   O31 6996   1.043   6.259   3.451 -0.2454 -0.5259 -0.1547
   55DOPE   C31 6997   1.163   6.209   3.453 -0.0940  0.4983 -0.1468
   55DOPE   O32 6998   1.235   6.181   3.360  0.5221 -0.0558  0.0172
   55DOPE   C32 6999   1.196   6.175   3.604 -0.6463  0.3290 -0.2795
   55DOPE   H2X 7000   1.132   6.088   3.631 -0.0602  0.1624  0.6125
   55DOPE   H2Y 7001   1.298   6.130   3.602  0.7561  3.2595 -0.9411
   55DOPE   C23 7002   0.948   6.598   3.726 -0.1470 -0.2685 -0.5078
   55DOPE   H3R 7003   0.934   6.488   3.736 -0.6522 -0.2491 -0.9770
   55DOPE   H3S 7004   0.848   6.645   3.708 -0.6035 -0.4279  1.4288
   55DOPE   C24 7005   1.000   6.659   3.856  0.0652 -0.2968  0.4480
   55DOPE   H4R 7006   1.021   6.768   3.848 -1.8595  0.4036  3.2992
   55DOPE   H4S 7007   1.100   6.619   3.885  0.8795  1.0092 -0.4512
   55DOPE   C25 7008   0.904   6.634   3.969  0.2031 -0.1530 -1.0858
   55DOPE   H5R 7009   0.900   6.526   3.994  0.2961  0.2776  0.9909
   55DOPE   H5S 7010   0.805   6.677   3.943 -0.2572  1.0080  2.0628
   55DOPE   C26 7011   0.941   6.716   4.099 -0.6981  0.6232  0.2591
   55DOPE   H6R 7012   0.946   6.825   4.075  1.5693  0.9223  1.8057
   55DOPE   H6S 7013   1.040   6.684   4.138  0.0780  3.2480  0.6634
   55DOPE   C27 7014   0.837   6.701   4.206  0.4788 -0.5459  0.2939
   55DOPE   H7R 7015   0.838   6.596   4.243 -0.3127 -0.0918  1.6698
   55DOPE   H7S 7016   0.738   6.723   4.159 -0.1587  0.6000  2.0627
   55DOPE   C28 7017   0.854   6.804   4.315 -0.2078  0.0337  0.0592
   55DOPE   H8R 7018   0.761   6.810   4.376 -0.3429  1.8885 -0.2768
   55DOPE   H8S 7019   0.861   6.904   4.268  1.4729 -0.0487  0.0780
   55DOPE   C29 7020   0.964   6.784   4.408 -0.6663  0.6747 -0.8526
   55DOPE   H9R 7021   1.062   6.781   4.359  0.3278 -1.2481  1.0706
   55DOPE  C210 7022   0.953   6.745   4.538  0.0860 -0.4482 -0.2709
   55DOPE  H10R 7023   1.045   6.714   4.590 -0.4348 -0.9640  0.3661
   55DOPE  C211 7024   0.824   6.713   4.611 -0.0738 -0.8340 -0.7285
   55DOPE  H11R 7025   0.759   6.641   4.558 -0.7527 -1.0822  0.4086
   55DOPE  H11S 7026   0.762   6.804   4.619 -0.2436 -0.9552 -0.6714
   55DOPE  C212 7027   0.841   6.665   4.757  0.2100 -0.5060 -0.3626
   55DOPE  H12R 7028   0.750   6.680   4.819  0.7132  0.1498  0.2365
   55DOPE  H12S 7029   0.915   6.723   4.817 -2.3012 -0.1793  2.6801
   55DOPE  C213 7030   0.889   6.520   4.763  0.2106 -0.5939  0.1259
   55DOPE  H13R 7031   0.987   6.507   4.711 -0.8668 -1.0044 -1.9119
   55DOPE  H13S 7032   0.812   6.460   4.710 -1.5608  1.3745  0.3265
   55DOPE  C214 7033   0.887   6.469   4.909  0.8959  0.1606 -0.0903
   55DOPE  H14R 7034   0.783   6.487   4.944  0.0816 -0.6384 -1.9330
   55DOPE  H14S 7035   0.953   6.544   4.957  1.3871  0.5818 -1.3868
   55DOPE  C215 7036   0.929   6.321   4.930  0.0991  0.0253 -0.3982
   55DOPE  H15R 7037   1.030   6.306   4.886  0.7617  0.2778  0.9821
   55DOPE  H15S 7038   0.858   6.246   4.889  1.1022 -3.2420  3.1232
   55DOPE  C216 7039   0.946   6.292   5.081  0.1330  0.0756  0.1963
   55DOPE  H16R 7040   1.040   6.334   5.121 -0.9246 -0.7255  3.8787
   55DOPE  H16S 7041   0.949   6.181   5.076 -1.0657  0.0253  0.1478
   55DOPE  C217 7042   0.828   6.328   5.175 -0.4381 -0.1858 -0.1258
   55DOPE  H17R 7043   0.735   6.304   5.120 -2.0509  2.7964  1.0635
   55DOPE  H17S 7044   0.833   6.437   5.196  1.7447 -0.0038 -1.3267
   55DOPE  C218 7045   0.824   6.261   5.311  0.3225 -0.1465 -0.1490
   55DOPE  H18R 7046   0.901   6.298   5.382 -0.4741  0.3702  0.4544
   55DOPE  H18S 7047   0.823   6.150   5.302  1.2214 -0.3204  1.4648
   55DOPE  H18T 7048   0.727   6.297   5.352  0.4839  0.1964 -0.0606
   55DOPE   C33 7049   1.197   6.293   3.704  0.0745  0.2460  0.4401
   55DOPE   H3X 7050   1.093   6.332   3.717  0.4714  1.4420  0.1913
   55DOPE   H3Y 7051   1.255   6.378   3.660 -0.0201 -0.4740 -1.1375
   55DOPE   C34 7052   1.241   6.246   3.844 -0.4012 -0.3545  0.6226
   55DOPE   H4X 7053   1.182   6.155   3.865 -1.7560  0.5528  0.9065
   55DOPE   H4Y 7054   1.351   6.227   3.837 -0.3721  0.1054 -0.2210
   55DOPE   C35 7055   1.224   6.353   3.944 -0.2430  0.0332 -0.7216
   55DOPE   H5X 7056   1.125   6.398   3.919  0.4913  2.0086 -0.2663
   55DOPE   H5Y 7057   1.287   6.444   3.935  0.9923 -0.8555 -1.3751
   55DOPE   C36 7058   1.236   6.329   4.094  0.4242 -0.0645  0.2681
   55DOPE   H6X 7059   1.343   6.316   4.121  0.2500  0.8051  1.4567
   55DOPE   H6Y 7060   1.184   6.237   4.129  3.2034 -0.7208  3.1695
   55DOPE   C37 7061   1.185   6.446   4.178  0.3591  0.3260  0.9154
   55DOPE   H7X 7062   1.235   6.537   4.137  0.7058 -0.1594  0.2467
   55DOPE   H7Y 7063   1.075   6.437   4.159  0.5441  1.6814 -1.0921
   55DOPE   C38 7064   1.200   6.426   4.325  0.3309  0.4479 -0.2912
   55DOPE   H8X 7065   1.174   6.325   4.364  1.6662  0.6024  1.0723
   55DOPE   H8Y 7066   1.125   6.495   4.372 -1.7621 -1.7380 -0.2056
   55DOPE   C39 7067   1.341   6.437   4.373 -0.0825 -0.0942 -0.1482
   55DOPE   H9X 7068   1.417   6.415   4.296  0.3877  1.3586 -0.1482
   55DOPE  C310 7069   1.379   6.485   4.489  0.1050 -0.1217  0.4411
   55DOPE  H10X 7070   1.485   6.464   4.510  0.5244 -0.2879 -1.6737
   55DOPE  C311 7071   1.302   6.522   4.616 -0.6142 -0.0399  0.8868
   55DOPE  H11X 7072   1.324   6.626   4.646  0.7712 -0.0540 -0.0031
   55DOPE  H11Y 7073   1.195   6.526   4.588 -0.2539  1.2466 -0.4366
   55DOPE  C312 7074   1.323   6.434   4.736  1.0545 -0.2530  0.1505
   55DOPE  H12X 7075   1.322   6.328   4.702 -0.0684 -0.6698  1.3821
   55DOPE  H12Y 7076   1.229   6.440   4.795  0.7137 -2.5614 -0.0491
   55DOPE  C313 7077   1.438   6.479   4.819 -0.2104  0.1730 -0.5568
   55DOPE  H13X 7078   1.532   6.461   4.762 -0.5783 -1.1750 -0.7698
   55DOPE  H13Y 7079   1.445   6.583   4.856  0.1045 -0.0077 -0.0936
   55DOPE  C314 7080   1.445   6.390   4.950 -0.5637 -0.0083 -0.7438
   55DOPE  H14X 7081   1.432   6.284   4.920 -1.0925 -0.3983  0.8123
   55DOPE  H14Y 7082   1.361   6.412   5.019 -0.9850 -1.1082 -0.8804
   55DOPE  C315 7083   1.578   6.401   5.041 -0.1898 -1.0006 -0.4721
   55DOPE  H15X 7084   1.664   6.361   4.985  0.3124  2.3124 -2.3236
   55DOPE  H15Y 7085   1.563   6.348   5.138  0.5440 -1.1576 -0.4396
   55DOPE  C316 7086   1.604   6.547   5.082  0.2751  0.3174 -0.4821
   55DOPE  H16X 7087   1.508   6.588   5.121  1.1449  0.0935  2.0604
   55DOPE  H16Y 7088   1.642   6.612   5.000  1.6872  2.0596  1.4617
   55DOPE  C317 7089   1.703   6.561   5.190  0.5071 -0.3750  0.5773
   55DOPE  H17X 7090   1.676   6.643   5.260 -0.9122 -0.4381  0.1316
   55DOPE  H17Y 7091   1.709   6.462   5.240  2.0156 -0.0855  1.0204
   55DOPE  C318 7092   1.844   6.587   5.139  0.0568  0.3808  0.6438
   55DOPE  H18X 7093   1.869   6.498   5.077 -0.4808  0.8772 -0.3226
   55DOPE  H18Y 7094   1.846   6.690   5.095 -1.4202  0.8599  1.6420
   55DOPE  H18Z 7095   1.914   6.590   5.225  0.2593  0.5003  0.4788
   56DOPE     N 7096   1.518   6.249   2.953 -0.2968  0.2127  0.2107
   56DOPE   HN1 7097   1.494   6.350   2.951  0.8694  0.5107 -2.4739
   56DOPE   HN2 7098   1.466   6.216   2.870  1.0030  1.8521 -1.3319
   56DOPE   HN3 7099   1.478   6.204   3.038  1.2690  0.1050  0.9243
   56DOPE   C12 7100   1.665   6.225   2.955 -0.4302 -0.3804 -0.1729
   56DOPE  H12A 7101   1.714   6.259   2.861  1.5842 -0.5128  0.7614
   56DOPE  H12B 7102   1.687   6.117   2.971  1.7258  0.3282  2.4108
   56DOPE   C11 7103   1.729   6.293   3.077  0.4629  0.0551 -0.5337
   56DOPE  H11A 7104   1.836   6.268   3.063  0.2805 -1.1735  0.1045
   56DOPE  H11B 7105   1.701   6.255   3.178  1.4430  0.3879 -0.1250
   56DOPE     P 7106   1.767   6.536   3.003  0.3090  0.5572  0.1636
   56DOPE   O13 7107   1.689   6.546   2.875  0.3645 -0.0784  0.0605
   56DOPE   O14 7108   1.909   6.505   2.987 -0.2169  0.5807 -0.1710
   56DOPE   O11 7109   1.745   6.659   3.097  0.4761  0.8771  0.0087
   56DOPE   O12 7110   1.701   6.429   3.089  0.0259 -0.2219 -0.1841
   56DOPE    C1 7111   1.639   6.650   3.198 -1.3974  0.2431 -0.2318
   56DOPE    HA 7112   1.688   6.656   3.298  1.9822 -1.8779 -1.5905
   56DOPE    HB 7113   1.575   6.559   3.191 -0.6488 -0.3113  0.0626
   56DOPE    C2 7114   1.550   6.778   3.185  0.0557 -0.1873 -0.5081
   56DOPE    HS 7115   1.507   6.785   3.083 -0.5463 -2.8010 -0.4776
   56DOPE   O21 7116   1.622   6.897   3.233 -0.1959  0.2671  0.1403
   56DOPE   C21 7117   1.615   7.005   3.163  0.2686 -0.5020  0.3442
   56DOPE   O22 7118   1.570   7.017   3.051  0.2204  0.3318 -0.2846
   56DOPE   C22 7119   1.674   7.122   3.237  0.3241 -0.1636  0.1843
   56DOPE   H2R 7120   1.623   7.207   3.186 -0.3073 -0.7662 -0.1931
   56DOPE   H2S 7121   1.784   7.136   3.226  0.5770 -1.0052  1.4062
   56DOPE    C3 7122   1.424   6.771   3.282  0.0037 -0.7793  0.4597
   56DOPE    HX 7123   1.361   6.685   3.252  0.3547 -1.0569  0.5123
   56DOPE    HY 7124   1.360   6.861   3.268  0.7761 -0.4505 -1.2251
   56DOPE   O31 7125   1.467   6.754   3.418 -0.5013  0.0302 -0.1431
   56DOPE   C31 7126   1.378   6.773   3.505  0.9384 -0.0220  0.0017
   56DOPE   O32 7127   1.258   6.787   3.481  0.6709 -0.6341  0.2348
   56DOPE   C32 7128   1.436   6.762   3.645  0.4112 -0.4237 -1.0582
   56DOPE   H2X 7129   1.469   6.657   3.657  3.6839  0.6111  0.2785
   56DOPE   H2Y 7130   1.536   6.812   3.649 -0.3712  1.3662  4.3915
   56DOPE   C23 7131   1.631   7.117   3.385 -0.6105 -0.2918  0.3069
   56DOPE   H3R 7132   1.696   7.059   3.453 -1.5317 -1.4073  0.2592
   56DOPE   H3S 7133   1.525   7.086   3.395 -0.7300 -0.3360 -0.8803
   56DOPE   C24 7134   1.622   7.258   3.443 -0.6553  0.5289  0.3284
   56DOPE   H4R 7135   1.556   7.325   3.384 -0.5359  1.2743  1.0269
   56DOPE   H4S 7136   1.724   7.301   3.442  1.3022 -3.3818  3.1162
   56DOPE   C25 7137   1.569   7.250   3.590  0.3125 -0.3806  0.2652
   56DOPE   H5R 7138   1.653   7.205   3.647  0.6216 -2.3695 -1.6733
   56DOPE   H5S 7139   1.485   7.178   3.601  0.6019 -0.7706 -0.0897
   56DOPE   C26 7140   1.534   7.388   3.641 -0.4573  0.1876  0.2872
   56DOPE   H6R 7141   1.451   7.432   3.582 -1.0374 -1.7076 -0.4005
   56DOPE   H6S 7142   1.620   7.456   3.625 -1.4724  0.9432 -2.7523
   56DOPE   C27 7143   1.508   7.394   3.787  0.3827  0.1292  0.0062
   56DOPE   H7R 7144   1.595   7.362   3.848  0.0989 -1.2062 -0.2641
   56DOPE   H7S 7145   1.429   7.318   3.807  1.3692 -1.1245 -0.7014
   56DOPE   C28 7146   1.473   7.539   3.830 -0.8501  0.1781  0.3098
   56DOPE   H8R 7147   1.532   7.619   3.780  1.3643  0.4423  3.1103
   56DOPE   H8S 7148   1.511   7.552   3.934 -0.0971 -0.9097  0.1840
   56DOPE   C29 7149   1.325   7.561   3.821  0.7408  0.3578 -0.2295
   56DOPE   H9R 7150   1.280   7.482   3.759  0.1528  0.5055 -0.0006
   56DOPE  C210 7151   1.242   7.653   3.885  0.7098 -0.0493  0.3615
   56DOPE  H10R 7152   1.140   7.631   3.849  0.9009  0.7350 -0.7386
   56DOPE  C211 7153   1.267   7.769   3.983 -0.0904 -0.0720 -0.5600
   56DOPE  H11R 7154   1.202   7.856   3.958  0.2264  0.2798 -0.1874
   56DOPE  H11S 7155   1.368   7.816   3.983 -0.2232  0.2439 -2.1322
   56DOPE  C212 7156   1.234   7.718   4.129 -0.4517 -0.5127  0.5129
   56DOPE  H12R 7157   1.303   7.633   4.149  0.1702 -0.1635 -0.1147
   56DOPE  H12S 7158   1.130   7.682   4.142 -1.4334  1.2192 -1.6925
   56DOPE  C213 7159   1.249   7.823   4.238  0.4147  0.0524  0.4293
   56DOPE  H13R 7160   1.199   7.917   4.209 -0.2822 -0.7380 -1.0760
   56DOPE  H13S 7161   1.357   7.849   4.247  0.9549 -2.0084  0.5411
   56DOPE  C214 7162   1.185   7.792   4.374  0.0920  0.0322 -0.0129
   56DOPE  H14R 7163   1.078   7.767   4.363 -0.1784  0.1253  1.9365
   56DOPE  H14S 7164   1.205   7.873   4.448  1.2964 -2.3275  2.4395
   56DOPE  C215 7165   1.261   7.676   4.446 -0.0530  0.2534  0.0209
   56DOPE  H15R 7166   1.370   7.694   4.462  0.5097 -1.1914 -1.8222
   56DOPE  H15S 7167   1.264   7.583   4.385  1.5435 -0.4379  1.0857
   56DOPE  C216 7168   1.206   7.639   4.578 -0.1231  0.2117  0.3695
   56DOPE  H16R 7169   1.228   7.531   4.594 -1.0884  0.1374  1.2767
   56DOPE  H16S 7170   1.097   7.651   4.565  0.1570  3.1527  0.1102
   56DOPE  C217 7171   1.258   7.736   4.689  0.1478 -0.2161  0.2085
   56DOPE  H17R 7172   1.247   7.840   4.652 -0.9391 -0.7104 -0.9439
   56DOPE  H17S 7173   1.367   7.715   4.699 -0.1168 -0.5471  3.1149
   56DOPE  C218 7174   1.193   7.719   4.832 -0.1643 -0.2531  0.7151
   56DOPE  H18R 7175   1.082   7.722   4.829 -0.2513 -2.2972  0.3770
   56DOPE  H18S 7176   1.238   7.801   4.892 -1.5185  0.4827  0.7733
   56DOPE  H18T 7177   1.220   7.620   4.874 -0.5021 -1.2019 -1.1597
   56DOPE   C33 7178   1.346   6.798   3.766 -0.3766  0.2743  0.1116
   56DOPE   H3X 7179   1.273   6.718   3.788  2.7859 -2.8036  0.3051
   56DOPE   H3Y 7180   1.296   6.894   3.742  0.5014  0.9912  1.0117
   56DOPE   C34 7181   1.422   6.828   3.900  0.8079 -0.0495  0.2546
   56DOPE   H4X 7182   1.496   6.749   3.924  3.0989  0.6090 -3.6477
   56DOPE   H4Y 7183   1.475   6.924   3.887 -0.8280  0.8964  0.2919
   56DOPE   C35 7184   1.324   6.829   4.021  0.0240  0.2764 -0.4270
   56DOPE   H5X 7185   1.279   6.728   4.027  1.0066 -0.1864 -0.5270
   56DOPE   H5Y 7186   1.241   6.902   4.011  0.3448  0.5477 -1.2424
   56DOPE   C36 7187   1.397   6.865   4.158  0.4029  0.6271  0.1117
   56DOPE   H6X 7188   1.420   6.974   4.148  3.4923  0.0124 -0.6508
   56DOPE   H6Y 7189   1.498   6.820   4.167 -0.6431 -2.1496 -1.0661
   56DOPE   C37 7190   1.306   6.839   4.283 -0.2366  0.1680  0.5256
   56DOPE   H7X 7191   1.212   6.894   4.263 -0.8343 -0.3207  1.9274
   56DOPE   H7Y 7192   1.297   6.729   4.295 -1.0399  0.1160 -0.4668
   56DOPE   C38 7193   1.361   6.886   4.420  0.0423 -0.5377 -0.6406
   56DOPE   H8X 7194   1.448   6.823   4.450 -1.3832 -2.9726 -1.3143
   56DOPE   H8Y 7195   1.286   6.855   4.496  0.6577  0.3317  0.3414
   56DOPE   C39 7196   1.397   7.037   4.436 -0.3605  0.3627  0.7811
   56DOPE   H9X 7197   1.478   7.067   4.368  1.3180 -0.9231  2.1049
   56DOPE  C310 7198   1.340   7.114   4.532  0.2022  0.5576 -0.3768
   56DOPE  H10X 7199   1.381   7.215   4.546  0.3877  0.2800  1.2746
   56DOPE  C311 7200   1.236   7.060   4.636  0.0368 -0.3533 -0.2180
   56DOPE  H11X 7201   1.177   7.142   4.682 -0.9483 -1.0299 -0.2344
   56DOPE  H11Y 7202   1.165   6.990   4.588 -0.9947  0.8621 -0.5132
   56DOPE  C312 7203   1.303   6.971   4.748 -0.4899 -0.1683  0.5216
   56DOPE  H12X 7204   1.376   7.032   4.806  1.3597  0.0286 -1.8615
   56DOPE  H12Y 7205   1.356   6.884   4.705 -0.7641  0.3785 -0.9957
   56DOPE  C313 7206   1.193   6.914   4.840 -0.4191  0.1722  0.1556
   56DOPE  H13X 7207   1.112   6.987   4.854  0.7521  1.6230 -0.3665
   56DOPE  H13Y 7208   1.145   6.827   4.790  0.5235  0.3825 -1.1740
   56DOPE  C314 7209   1.251   6.855   4.968  0.2724  0.4477  0.5718
   56DOPE  H14X 7210   1.291   6.937   5.031 -2.5144  1.6718  0.8796
   56DOPE  H14Y 7211   1.340   6.795   4.939  0.0302  0.9958 -1.4152
   56DOPE  C315 7212   1.157   6.766   5.054  0.2599 -0.9649  0.1072
   56DOPE  H15X 7213   1.099   6.696   4.989  1.9664 -3.5323  1.1978
   56DOPE  H15Y 7214   1.089   6.830   5.114  1.3450  1.6897 -1.3113
   56DOPE  C316 7215   1.232   6.670   5.151 -0.2158 -0.3279 -0.7175
   56DOPE  H16X 7216   1.308   6.738   5.194 -2.1613  2.8297 -1.9249
   56DOPE  H16Y 7217   1.275   6.585   5.095 -0.3390 -0.9704  0.1302
   56DOPE  C317 7218   1.144   6.617   5.266 -0.7822  0.4745  0.6206
   56DOPE  H17X 7219   1.090   6.704   5.310 -0.7961  0.6106  0.3413
   56DOPE  H17Y 7220   1.068   6.544   5.231  0.1727 -0.4422  0.4144
   56DOPE  C318 7221   1.222   6.551   5.379 -0.5445 -0.1726  0.4456
   56DOPE  H18X 7222   1.153   6.529   5.464 -0.8849  0.4003  0.3253
   56DOPE  H18Y 7223   1.272   6.455   5.354 -0.9304 -0.4200  0.6098
   56DOPE  H18Z 7224   1.299   6.625   5.409  1.5312 -2.2589  0.5371
   57DOPE     N 7225   0.646   2.535   2.719  0.1998 -0.1616  0.3498
   57DOPE   HN1 7226   0.701   2.601   2.660 -2.6957  0.6985 -1.5784
   57DOPE   HN2 7227   0.563   2.515   2.659  1.0554  0.1158 -0.9847
   57DOPE   HN3 7228   0.621   2.606   2.790 -0.3092  1.9690 -1.8080
   57DOPE   C12 7229   0.716   2.414   2.776 -0.2019  0.4988 -0.5931
   57DOPE  H12A 7230   0.808   2.456   2.823 -0.1694 -0.1721 -0.0255
   57DOPE  H12B 7231   0.745   2.347   2.693  1.4055 -1.1041  1.1526
   57DOPE   C11 7232   0.617   2.343   2.873  0.4238  0.1729 -0.0584
   57DOPE  H11A 7233   0.669   2.272   2.940 -1.8064 -0.8471  0.6676
   57DOPE  H11B 7234   0.552   2.277   2.811  1.1880 -1.3254  0.7009
   57DOPE     P 7235   0.513   2.429   3.099 -0.1762 -0.0132  0.0700
   57DOPE   O13 7236   0.385   2.502   3.127 -0.2006 -0.6917 -0.1544
   57DOPE   O14 7237   0.633   2.478   3.171 -0.3364  0.2386  0.0713
   57DOPE   O11 7238   0.491   2.270   3.120 -0.6207  0.3567  0.0752
   57DOPE   O12 7239   0.537   2.438   2.944  0.2295 -0.1841 -0.1076
   57DOPE    C1 7240   0.593   2.180   3.165  0.8970  0.8092  0.5830
   57DOPE    HA 7241   0.697   2.214   3.145  0.6097  0.5454 -1.5426
   57DOPE    HB 7242   0.585   2.085   3.109 -2.0288  0.8267  0.8241
   57DOPE    C2 7243   0.585   2.134   3.321 -0.1556 -1.0547  0.6876
   57DOPE    HS 7244   0.571   2.024   3.332 -0.3892 -0.8957  2.3671
   57DOPE   O21 7245   0.492   2.206   3.400 -0.5221 -0.2701  0.2375
   57DOPE   C21 7246   0.368   2.175   3.372  0.4507  0.1904  0.1782
   57DOPE   O22 7247   0.332   2.075   3.312  0.4027 -0.1988 -0.2358
   57DOPE   C22 7248   0.274   2.273   3.443 -0.0177 -0.4398  0.7899
   57DOPE   H2R 7249   0.189   2.293   3.374  0.4368  1.5058  0.7411
   57DOPE   H2S 7250   0.331   2.368   3.449  2.7158 -1.7435 -1.7330
   57DOPE    C3 7251   0.734   2.155   3.382  0.4498 -0.0128  0.0069
   57DOPE    HX 7252   0.750   2.265   3.374 -2.0673  0.3059 -2.3447
   57DOPE    HY 7253   0.808   2.101   3.320  0.3771  0.2029 -0.2735
   57DOPE   O31 7254   0.746   2.105   3.515 -0.3331 -0.0579 -0.1607
   57DOPE   C31 7255   0.715   2.194   3.610 -0.0993 -0.2510 -0.3406
   57DOPE   O32 7256   0.703   2.315   3.591 -0.3595 -0.0073 -0.3106
   57DOPE   C32 7257   0.713   2.133   3.744 -0.0898 -0.3994 -0.0099
   57DOPE   H2X 7258   0.616   2.083   3.760 -0.5946  1.0279  1.8079
   57DOPE   H2Y 7259   0.786   2.050   3.752  1.4634  0.8829 -0.1761
   57DOPE   C23 7260   0.208   2.234   3.578  1.0537 -0.4774  0.2861
   57DOPE   H3R 7261   0.161   2.133   3.572  1.5797 -0.6956 -0.2751
   57DOPE   H3S 7262   0.127   2.310   3.585  0.4797 -1.0134 -0.3696
   57DOPE   C24 7263   0.290   2.251   3.700  0.3406 -0.3183 -0.1033
   57DOPE   H4R 7264   0.336   2.352   3.701 -1.5521  0.6064 -0.7107
   57DOPE   H4S 7265   0.369   2.174   3.690  0.1928 -0.4714 -0.1008
   57DOPE   C25 7266   0.216   2.229   3.828  0.7128  0.2958  0.2087
   57DOPE   H5R 7267   0.156   2.139   3.803  3.8771 -1.3217 -2.3719
   57DOPE   H5S 7268   0.142   2.307   3.856 -0.0291 -0.0977 -0.6024
   57DOPE   C26 7269   0.310   2.206   3.948 -0.4489  0.1690 -0.7579
   57DOPE   H6R 7270   0.386   2.287   3.955  2.3778 -2.2839 -1.2314
   57DOPE   H6S 7271   0.369   2.113   3.935  1.3024  0.8654  1.4793
   57DOPE   C27 7272   0.232   2.196   4.080 -0.3282  0.7368 -0.3172
   57DOPE   H7R 7273   0.160   2.111   4.078 -0.9689  1.1083  2.6781
   57DOPE   H7S 7274   0.190   2.296   4.105  2.8157  1.9501  0.5976
   57DOPE   C28 7275   0.328   2.150   4.194  0.6681  0.0121  0.0882
   57DOPE   H8R 7276   0.272   2.156   4.290  0.9763  3.9185  0.2073
   57DOPE   H8S 7277   0.406   2.227   4.210 -0.2455  0.8098  0.8565
   57DOPE   C29 7278   0.380   2.008   4.177 -0.3145 -0.0695 -0.1020
   57DOPE   H9R 7279   0.425   1.974   4.083 -2.1092  0.9178 -1.3724
   57DOPE  C210 7280   0.400   1.928   4.286  0.8250  0.1710 -0.5497
   57DOPE  H10R 7281   0.426   1.823   4.269 -4.8106 -1.3743 -1.7628
   57DOPE  C211 7282   0.382   1.958   4.425  0.0944 -0.2971 -0.1530
   57DOPE  H11R 7283   0.353   2.064   4.443 -1.3611 -0.5516 -0.8664
   57DOPE  H11S 7284   0.480   1.953   4.477  0.0695  2.4816  0.3297
   57DOPE  C212 7285   0.275   1.872   4.501  0.1754 -0.6014 -0.3781
   57DOPE  H12R 7286   0.270   1.764   4.475 -1.5692 -0.5113 -0.5302
   57DOPE  H12S 7287   0.180   1.921   4.473  0.5062  1.1349  1.3179
   57DOPE  C213 7288   0.291   1.879   4.652 -0.3121 -0.0139 -0.2314
   57DOPE  H13R 7289   0.389   1.842   4.688 -0.4999 -0.8482 -0.5618
   57DOPE  H13S 7290   0.204   1.818   4.687 -0.0221 -1.5661 -2.0594
   57DOPE  C214 7291   0.284   2.020   4.715 -0.1225  0.8110 -0.3573
   57DOPE  H14R 7292   0.199   2.078   4.672  0.2597  1.8558  0.2574
   57DOPE  H14S 7293   0.374   2.071   4.674  0.1327  0.1312 -0.6472
   57DOPE  C215 7294   0.284   2.026   4.871  0.6967  0.7252 -0.2413
   57DOPE  H15R 7295   0.385   1.993   4.903 -0.2148  0.0339  2.1185
   57DOPE  H15S 7296   0.213   1.958   4.922  0.3690  0.7275 -0.6919
   57DOPE  C216 7297   0.252   2.166   4.915 -0.0524 -0.3285  0.1073
   57DOPE  H16R 7298   0.145   2.193   4.900 -0.4023 -1.2619  0.8420
   57DOPE  H16S 7299   0.312   2.229   4.845  0.4666 -1.8471 -0.8638
   57DOPE  C217 7300   0.304   2.211   5.054  0.2902  0.0505 -0.3988
   57DOPE  H17R 7301   0.279   2.316   5.083  0.3362  0.7480 -2.7085
   57DOPE  H17S 7302   0.413   2.193   5.043 -0.0446 -2.0133 -0.7073
   57DOPE  C218 7303   0.250   2.118   5.168  0.5942  0.3278 -0.2732
   57DOPE  H18R 7304   0.140   2.121   5.181  0.3501 -3.0798 -0.6622
   57DOPE  H18S 7305   0.292   2.155   5.264 -2.5122 -3.2738  2.7481
   57DOPE  H18T 7306   0.287   2.013   5.163  0.3196  0.2228 -0.1207
   57DOPE   C33 7307   0.729   2.233   3.851  0.3984  0.7665  0.3283
   57DOPE   H3X 7308   0.643   2.304   3.857 -0.2283  0.6885 -4.2148
   57DOPE   H3Y 7309   0.825   2.287   3.836  1.5283 -1.5835 -1.4629
   57DOPE   C34 7310   0.745   2.168   3.991 -0.2833 -0.2508 -0.7423
   57DOPE   H4X 7311   0.648   2.149   4.041  0.9712  0.2785  2.0499
   57DOPE   H4Y 7312   0.807   2.076   3.983  1.4584  0.6115  1.6597
   57DOPE   C35 7313   0.806   2.271   4.089  0.8552 -0.3367 -0.2202
   57DOPE   H5X 7314   0.722   2.341   4.112  0.3379 -0.6799 -1.0199
   57DOPE   H5Y 7315   0.882   2.337   4.041  0.5200 -1.3352 -2.2296
   57DOPE   C36 7316   0.874   2.215   4.217 -0.7171  1.0505  0.6584
   57DOPE   H6X 7317   0.939   2.296   4.256  1.9020 -0.7495  0.3129
   57DOPE   H6Y 7318   0.945   2.138   4.180 -0.8263  0.0670  2.3784
   57DOPE   C37 7319   0.791   2.166   4.339  0.4118 -0.3005 -0.3936
   57DOPE   H7X 7320   0.714   2.244   4.354  1.2056  0.3818  0.1866
   57DOPE   H7Y 7321   0.739   2.069   4.319 -2.9186  1.7083 -2.4011
   57DOPE   C38 7322   0.866   2.158   4.473  0.1547  0.5066  0.2449
   57DOPE   H8X 7323   0.904   2.261   4.490 -0.1178  0.5343  0.7219
   57DOPE   H8Y 7324   0.951   2.087   4.472 -1.1335 -1.2377  2.7217
   57DOPE   C39 7325   0.785   2.103   4.583  0.2033  0.1601  0.9277
   57DOPE   H9X 7326   0.830   2.014   4.630  2.5300  0.6184 -0.2798
   57DOPE  C310 7327   0.676   2.144   4.641  0.2000  0.4402 -0.2442
   57DOPE  H10X 7328   0.639   2.077   4.719  0.2858 -2.0185 -2.1770
   57DOPE  C311 7329   0.592   2.266   4.625  0.6034  0.1643  0.3984
   57DOPE  H11X 7330   0.638   2.331   4.548  0.5249 -1.1362 -0.7898
   57DOPE  H11Y 7331   0.491   2.245   4.584  0.7663  0.6886 -0.2788
   57DOPE  C312 7332   0.586   2.355   4.757  0.0486 -0.0206  0.3721
   57DOPE  H12X 7333   0.549   2.295   4.843 -0.9616  1.3868  0.9618
   57DOPE  H12Y 7334   0.508   2.429   4.730 -1.1322 -1.4505 -0.3213
   57DOPE  C313 7335   0.719   2.431   4.791  0.5341  0.4871  0.5986
   57DOPE  H13X 7336   0.803   2.359   4.804 -0.4476 -0.7233  0.4980
   57DOPE  H13Y 7337   0.742   2.501   4.708  0.6443  1.4226  1.4031
   57DOPE  C314 7338   0.712   2.526   4.912  0.2805  0.0951 -0.1066
   57DOPE  H14X 7339   0.669   2.626   4.891  0.2119  0.0377 -0.2427
   57DOPE  H14Y 7340   0.818   2.541   4.944 -0.4420  0.1306  2.4760
   57DOPE  C315 7341   0.643   2.463   5.030  0.0503  0.1979 -0.5525
   57DOPE  H15X 7342   0.681   2.359   5.040 -0.8210 -0.1250 -0.5043
   57DOPE  H15Y 7343   0.535   2.447   5.007 -0.6468 -0.2377  2.5511
   57DOPE  C316 7344   0.655   2.552   5.160  0.0287  0.5075 -0.6479
   57DOPE  H16X 7345   0.596   2.645   5.147  0.1069  0.5654 -0.5835
   57DOPE  H16Y 7346   0.760   2.587   5.154 -0.5001  2.2530 -0.3208
   57DOPE  C317 7347   0.633   2.475   5.288 -0.3376 -0.6179 -0.0322
   57DOPE  H17X 7348   0.716   2.402   5.301 -0.8433 -1.1519  0.2384
   57DOPE  H17Y 7349   0.645   2.548   5.370  3.7387  1.0324 -1.8239
   57DOPE  C318 7350   0.491   2.411   5.310  0.6438 -1.1709 -0.2736
   57DOPE  H18X 7351   0.481   2.338   5.227 -0.1702 -1.4262  0.0439
   57DOPE  H18Y 7352   0.485   2.377   5.415  0.2835  0.6207  0.3229
   57DOPE  H18Z 7353   0.411   2.488   5.299  1.1897 -0.7229 -1.2282
   58DOPE     N 7354   0.715   5.596   3.045 -0.7641 -0.3876 -0.9062
   58DOPE   HN1 7355   0.621   5.615   3.007 -0.5881  0.5297 -0.9015
   58DOPE   HN2 7356   0.779   5.660   2.994  2.0589 -0.7514  1.8812
   58DOPE   HN3 7357   0.748   5.501   3.017 -2.0165 -1.0365 -0.2247
   58DOPE   C12 7358   0.708   5.627   3.194 -0.5004 -0.7207  0.2190
   58DOPE  H12A 7359   0.810   5.658   3.224 -1.0883  1.8206 -0.1320
   58DOPE  H12B 7360   0.683   5.526   3.233  2.1664 -1.7737 -0.5650
   58DOPE   C11 7361   0.621   5.746   3.224 -0.6600 -0.6278  0.4580
   58DOPE  H11A 7362   0.620   5.761   3.334 -0.3728  1.6325  0.1946
   58DOPE  H11B 7363   0.520   5.718   3.186 -1.7321  0.9508  2.0096
   58DOPE     P 7364   0.783   5.953   3.184  0.1775 -0.2067 -0.0322
   58DOPE   O13 7365   0.773   6.079   3.108 -0.1283 -0.1399  0.3589
   58DOPE   O14 7366   0.908   5.876   3.161 -0.7198  0.0405  0.6039
   58DOPE   O11 7367   0.766   5.983   3.343  0.5655  0.6698  0.2210
   58DOPE   O12 7368   0.662   5.868   3.153  0.4220  0.3875 -0.7781
   58DOPE    C1 7369   0.650   6.034   3.403 -0.0393 -0.1029  0.5456
   58DOPE    HA 7370   0.589   5.952   3.445  1.7312 -2.2530 -0.8645
   58DOPE    HB 7371   0.592   6.092   3.328  0.5570  2.8806  2.2291
   58DOPE    C2 7372   0.675   6.142   3.514  0.1749 -1.0915  0.0645
   58DOPE    HS 7373   0.754   6.211   3.479  0.6742 -1.9568 -0.5445
   58DOPE   O21 7374   0.715   6.076   3.636  0.2417  0.5186 -0.1151
   58DOPE   C21 7375   0.797   6.137   3.718 -0.5363  0.1847 -0.4351
   58DOPE   O22 7376   0.834   6.254   3.704  0.9529  0.4387  0.2263
   58DOPE   C22 7377   0.839   6.047   3.832 -0.3818 -0.0521  1.0122
   58DOPE   H2R 7378   0.949   6.032   3.839 -0.4816 -3.3071 -1.6492
   58DOPE   H2S 7379   0.788   5.950   3.816  3.1903 -1.9864  0.4273
   58DOPE    C3 7380   0.538   6.225   3.534 -0.3944 -0.1486 -0.3771
   58DOPE    HX 7381   0.463   6.154   3.574  1.3828 -1.9585 -0.1085
   58DOPE    HY 7382   0.509   6.256   3.431  1.7548 -2.0560 -1.6563
   58DOPE   O31 7383   0.548   6.329   3.626 -0.2216 -0.1547  0.0833
   58DOPE   C31 7384   0.512   6.457   3.600  1.1131 -0.1813 -0.3756
   58DOPE   O32 7385   0.493   6.503   3.492  0.6541 -0.6196  0.1599
   58DOPE   C32 7386   0.499   6.542   3.727 -0.3899 -0.2598 -0.8750
   58DOPE   H2X 7387   0.548   6.640   3.712  3.2454 -1.8220 -0.3022
   58DOPE   H2Y 7388   0.391   6.552   3.751 -0.4499  0.5132 -1.4442
   58DOPE   C23 7389   0.783   6.095   3.966  0.0409  0.2591  0.1776
   58DOPE   H3R 7390   0.784   6.011   4.039 -1.3985  0.7349  0.7827
   58DOPE   H3S 7391   0.680   6.133   3.953  0.8594  1.8344 -2.5509
   58DOPE   C24 7392   0.870   6.207   4.035 -1.0817  0.2990 -0.4009
   58DOPE   H4R 7393   0.876   6.288   3.959  1.0144  1.0795  0.5234
   58DOPE   H4S 7394   0.968   6.163   4.063 -1.5298 -0.5553 -0.1224
   58DOPE   C25 7395   0.802   6.270   4.155 -0.3602  0.3591  0.4028
   58DOPE   H5R 7396   0.695   6.285   4.130  0.0802  0.8126 -1.4171
   58DOPE   H5S 7397   0.832   6.375   4.178 -0.4281  0.7120 -0.9983
   58DOPE   C26 7398   0.820   6.194   4.296 -0.3634 -0.5094 -0.3383
   58DOPE   H6R 7399   0.930   6.179   4.289 -0.3604 -0.4752 -0.3696
   58DOPE   H6S 7400   0.768   6.096   4.298 -1.9484  0.3115  1.6005
   58DOPE   C27 7401   0.788   6.278   4.426  0.2325  0.2357  0.1982
   58DOPE   H7R 7402   0.710   6.347   4.386 -0.3958 -1.9258 -2.6666
   58DOPE   H7S 7403   0.877   6.342   4.443  0.7366 -0.1597 -0.8337
   58DOPE   C28 7404   0.757   6.183   4.548 -0.1690  0.2930  0.3839
   58DOPE   H8R 7405   0.656   6.140   4.529  0.0464 -0.0621 -0.0039
   58DOPE   H8S 7406   0.747   6.239   4.643  0.2023 -2.8921  2.4716
   58DOPE   C29 7407   0.852   6.067   4.573 -0.6108 -0.0599  0.0252
   58DOPE   H9R 7408   0.949   6.063   4.520 -0.1708  0.3024  0.7869
   58DOPE  C210 7409   0.826   5.955   4.639  0.3035 -0.0480 -0.0839
   58DOPE  H10R 7410   0.895   5.870   4.647 -1.0451 -1.2969 -1.1032
   58DOPE  C211 7411   0.696   5.918   4.706 -0.3982  0.0367 -0.3668
   58DOPE  H11R 7412   0.623   6.002   4.709 -1.4785 -0.8916  1.4356
   58DOPE  H11S 7413   0.720   5.876   4.806 -1.0502  0.3234 -0.0853
   58DOPE  C212 7414   0.626   5.801   4.633  0.0157  0.0104 -0.3229
   58DOPE  H12R 7415   0.540   5.766   4.694  1.0494 -2.1345 -0.0225
   58DOPE  H12S 7416   0.690   5.712   4.617 -0.1883 -0.5036  1.5513
   58DOPE  C213 7417   0.580   5.846   4.491  0.0531  0.3762 -0.2914
   58DOPE  H13R 7418   0.675   5.858   4.434  1.1938 -0.2593  1.3818
   58DOPE  H13S 7419   0.542   5.947   4.516 -0.4155  0.6984 -2.2025
   58DOPE  C214 7420   0.471   5.752   4.426 -0.4256  0.6450  0.0015
   58DOPE  H14R 7421   0.389   5.715   4.490  0.9815 -2.8110  0.0132
   58DOPE  H14S 7422   0.517   5.665   4.375  0.1147  0.7252  0.3525
   58DOPE  C215 7423   0.399   5.836   4.318 -0.0510  0.3423 -0.9652
   58DOPE  H15R 7424   0.364   5.931   4.366  1.0902  0.2611  0.0941
   58DOPE  H15S 7425   0.315   5.777   4.277  0.7199 -0.6944 -1.0955
   58DOPE  C216 7426   0.494   5.885   4.202 -0.1064 -0.1538  0.2188
   58DOPE  H16R 7427   0.563   5.802   4.176  2.2237  2.0601 -1.2122
   58DOPE  H16S 7428   0.550   5.972   4.242  0.1738  0.6406 -1.7875
   58DOPE  C217 7429   0.419   5.940   4.075 -0.3271  0.8643 -0.0177
   58DOPE  H17R 7430   0.349   5.861   4.040 -0.1674  1.2649 -1.2962
   58DOPE  H17S 7431   0.503   5.951   4.003  3.5795 -0.6159  3.8235
   58DOPE  C218 7432   0.356   6.071   4.102  0.0012  0.1052 -0.1949
   58DOPE  H18R 7433   0.310   6.098   4.005  2.7581  0.4906 -1.4938
   58DOPE  H18S 7434   0.435   6.148   4.118  0.5641 -0.4276 -0.3514
   58DOPE  H18T 7435   0.276   6.077   4.178 -0.2527  0.2434 -0.4739
   58DOPE   C33 7436   0.554   6.467   3.852  0.7173 -0.2102  0.5731
   58DOPE   H3X 7437   0.660   6.437   3.840  0.8871  0.8499 -0.7996
   58DOPE   H3Y 7438   0.488   6.378   3.864 -0.1534  0.4869  1.0753
   58DOPE   C34 7439   0.541   6.544   3.986  0.0779  0.2516  0.1825
   58DOPE   H4X 7440   0.599   6.474   4.050 -0.6915 -1.1991 -0.6517
   58DOPE   H4Y 7441   0.594   6.639   3.967 -1.6790  1.1324 -0.5656
   58DOPE   C35 7442   0.398   6.568   4.040  0.3836 -0.0497  0.8044
   58DOPE   H5X 7443   0.333   6.480   4.021 -0.5614  0.7961  0.0182
   58DOPE   H5Y 7444   0.354   6.653   3.984 -2.5023 -1.2620  1.1068
   58DOPE   C36 7445   0.400   6.600   4.191  0.2269 -0.4075  0.4187
   58DOPE   H6X 7446   0.292   6.608   4.215 -0.4684 -1.4344 -2.0658
   58DOPE   H6Y 7447   0.457   6.695   4.201 -0.5252  0.6611 -3.5585
   58DOPE   C37 7448   0.466   6.495   4.277 -0.7913 -0.9688 -0.1410
   58DOPE   H7X 7449   0.434   6.390   4.264 -0.7056 -1.2234  1.5167
   58DOPE   H7Y 7450   0.572   6.500   4.244 -1.1271  1.7436 -1.1071
   58DOPE   C38 7451   0.475   6.534   4.423  0.8559  0.3611  0.0342
   58DOPE   H8X 7452   0.506   6.640   4.436  1.7894 -0.1805  3.0003
   58DOPE   H8Y 7453   0.560   6.478   4.469 -0.8269 -1.9676  0.4846
   58DOPE   C39 7454   0.347   6.515   4.499 -0.2956  0.6395  0.0263
   58DOPE   H9X 7455   0.254   6.560   4.461  0.3876  0.7296 -1.5969
   58DOPE  C310 7456   0.337   6.446   4.615 -0.1081  0.5680 -0.0423
   58DOPE  H10X 7457   0.239   6.419   4.659  0.2017 -2.0760 -0.7871
   58DOPE  C311 7458   0.443   6.375   4.687 -0.3228 -0.2826  0.7978
   58DOPE  H11X 7459   0.394   6.288   4.737 -0.1823 -0.8211  0.0152
   58DOPE  H11Y 7460   0.517   6.318   4.627  0.5959 -0.5576  2.1539
   58DOPE  C312 7461   0.518   6.475   4.786 -0.2673 -0.9038 -0.7287
   58DOPE  H12X 7462   0.524   6.581   4.754 -0.5161 -0.3412  1.0235
   58DOPE  H12Y 7463   0.624   6.444   4.790 -0.0084  0.0943  1.7678
   58DOPE  C313 7464   0.463   6.480   4.926 -0.5821 -0.1701 -0.4791
   58DOPE  H13X 7465   0.354   6.493   4.940 -0.3142  2.8378 -0.4646
   58DOPE  H13Y 7466   0.482   6.381   4.972  0.3049 -1.1473 -2.7890
   58DOPE  C314 7467   0.524   6.590   5.019 -0.2553  0.2152 -0.4145
   58DOPE  H14X 7468   0.547   6.681   4.959  1.0957 -1.2230 -2.1900
   58DOPE  H14Y 7469   0.617   6.550   5.064 -0.7614 -0.4920  0.0221
   58DOPE  C315 7470   0.424   6.638   5.123  0.3976 -0.4663  0.1062
   58DOPE  H15X 7471   0.345   6.701   5.077  2.2607  1.7288 -0.2532
   58DOPE  H15Y 7472   0.480   6.715   5.180  1.8044 -0.5281 -1.1217
   58DOPE  C316 7473   0.353   6.533   5.218  0.8414  1.1625 -0.4388
   58DOPE  H16X 7474   0.282   6.469   5.161  3.3612 -4.2242  1.8273
   58DOPE  H16Y 7475   0.298   6.595   5.292 -0.3053  0.0823 -0.3567
   58DOPE  C317 7476   0.451   6.440   5.294  0.1641  0.8361  0.2913
   58DOPE  H17X 7477   0.492   6.373   5.215 -0.3628  1.0512 -0.1739
   58DOPE  H17Y 7478   0.539   6.501   5.324  2.0672  0.3945 -3.6654
   58DOPE  C318 7479   0.394   6.374   5.416 -0.5737  0.3995 -0.4845
   58DOPE  H18X 7480   0.476   6.325   5.471 -0.4189 -0.5221 -1.5114
   58DOPE  H18Y 7481   0.345   6.452   5.479 -1.1873 -0.3220 -0.0521
   58DOPE  H18Z 7482   0.319   6.300   5.382 -1.2575 -0.3485  2.3609
   59DOPE     N 7483   7.647   1.222   2.868  0.0461  0.1793  0.0106
   59DOPE   HN1 7484   7.631   1.142   2.933  2.1900 -0.5505 -0.2806
   59DOPE   HN2 7485   7.623   1.310   2.917  0.6833  0.5769 -0.3848
   59DOPE   HN3 7486   7.579   1.202   2.791 -0.1390  2.7645 -0.5923
   59DOPE   C12 7487   7.787   1.242   2.828  0.1780 -1.0663 -0.5933
   59DOPE  H12A 7488   7.795   1.315   2.744  0.0387 -2.4380 -1.8500
   59DOPE  H12B 7489   7.820   1.146   2.782 -1.8013 -2.5088  0.8352
   59DOPE   C11 7490   7.886   1.291   2.935  0.7079  0.2084 -0.4597
   59DOPE  H11A 7491   7.857   1.390   2.978 -0.3016  1.0265 -2.8546
   59DOPE  H11B 7492   7.986   1.309   2.890 -0.0849 -1.3687 -3.0878
   59DOPE     P 7493   8.006   1.108   3.073 -0.5329  0.1019  0.2995
   59DOPE   O13 7494   8.134   1.185   3.045 -0.4323 -0.3812 -0.4005
   59DOPE   O14 7495   7.996   0.968   3.020 -0.2274 -0.1216 -0.0414
   59DOPE   O11 7496   7.994   1.092   3.225  0.4388  0.2686  0.0403
   59DOPE   O12 7497   7.878   1.191   3.032  0.3233  0.3246 -0.1397
   59DOPE    C1 7498   7.871   1.052   3.289  0.3038  0.2644  0.4368
   59DOPE    HA 7499   7.905   0.990   3.375  4.0287 -0.8752 -1.6277
   59DOPE    HB 7500   7.804   0.992   3.224  1.6486 -0.0021 -0.7513
   59DOPE    C2 7501   7.790   1.174   3.348 -0.6668 -0.1548 -0.5260
   59DOPE    HS 7502   7.769   1.241   3.262 -1.4642 -0.8174 -0.8672
   59DOPE   O21 7503   7.868   1.228   3.453 -0.2330 -0.5253 -0.2087
   59DOPE   C21 7504   7.940   1.334   3.424 -0.6847  0.0818  0.8736
   59DOPE   O22 7505   7.954   1.386   3.316  0.3514 -0.4240  0.0617
   59DOPE   C22 7506   8.027   1.367   3.542 -0.3097 -0.2968  0.2745
   59DOPE   H2R 7507   8.017   1.474   3.568 -1.8438  0.0664 -1.5700
   59DOPE   H2S 7508   8.131   1.332   3.523 -0.2031 -1.3352  2.4271
   59DOPE    C3 7509   7.648   1.126   3.400  0.3763 -0.4686  0.6282
   59DOPE    HX 7510   7.574   1.099   3.322 -0.0196 -0.4088  0.9774
   59DOPE    HY 7511   7.617   1.224   3.443  0.5121  0.0955 -0.5344
   59DOPE   O31 7512   7.656   1.020   3.496 -0.4475  0.4261 -1.0571
   59DOPE   C31 7513   7.654   1.041   3.630  0.0017  1.1202 -0.6787
   59DOPE   O32 7514   7.616   1.146   3.681 -0.2776  0.2044  0.8037
   59DOPE   C32 7515   7.721   0.923   3.695 -0.3841 -0.5396  0.2147
   59DOPE   H2X 7516   7.664   0.829   3.676  0.0456 -0.7376 -0.1260
   59DOPE   H2Y 7517   7.826   0.918   3.659 -0.4332 -0.3489  0.0464
   59DOPE   C23 7518   7.990   1.294   3.674 -0.4878  0.6708 -0.8658
   59DOPE   H3R 7519   8.013   1.185   3.675  0.3539  0.6935  4.0298
   59DOPE   H3S 7520   7.879   1.298   3.679 -0.5770 -0.3886 -1.6027
   59DOPE   C24 7521   8.045   1.354   3.802  0.3345 -0.1784  0.6644
   59DOPE   H4R 7522   8.045   1.465   3.793  1.2426 -0.1395  1.0600
   59DOPE   H4S 7523   8.154   1.335   3.803  0.2893 -0.5024  0.0199
   59DOPE   C25 7524   7.970   1.305   3.932  0.0394  0.0812  0.4963
   59DOPE   H5R 7525   7.949   1.196   3.936 -1.1716  0.1024 -2.7742
   59DOPE   H5S 7526   7.867   1.347   3.930  0.3950  0.9506 -0.7736
   59DOPE   C26 7527   8.034   1.346   4.067 -0.6960 -0.2266  0.3898
   59DOPE   H6R 7528   8.045   1.456   4.058 -0.7205 -0.2763 -0.3024
   59DOPE   H6S 7529   8.137   1.304   4.068 -0.9187 -0.8667 -1.0870
   59DOPE   C27 7530   7.962   1.313   4.193 -0.7809 -0.4226 -0.3386
   59DOPE   H7R 7531   7.938   1.206   4.174 -1.3196 -0.3069 -0.3141
   59DOPE   H7S 7532   7.870   1.368   4.221  0.4468  0.4134  2.3751
   59DOPE   C28 7533   8.058   1.313   4.315 -0.6867 -0.6547 -0.4716
   59DOPE   H8R 7534   8.160   1.274   4.295 -0.5941 -1.0693  0.7095
   59DOPE   H8S 7535   7.997   1.261   4.391  0.4809 -0.1363  0.8588
   59DOPE   C29 7536   8.051   1.457   4.368 -0.5945 -0.1388 -0.2740
   59DOPE   H9R 7537   8.046   1.538   4.294  0.6651  0.1409 -0.0847
   59DOPE  C210 7538   8.074   1.492   4.497 -0.2916 -0.1984 -0.8590
   59DOPE  H10R 7539   8.068   1.596   4.532  1.9510 -0.0481 -0.8241
   59DOPE  C211 7540   8.110   1.396   4.604  0.6542  0.8518 -0.2405
   59DOPE  H11R 7541   8.200   1.423   4.665 -1.5120  0.6816  3.3069
   59DOPE  H11S 7542   8.119   1.290   4.573  0.1077  0.8103 -0.2567
   59DOPE  C212 7543   8.007   1.396   4.717 -0.3210 -0.0898 -0.0684
   59DOPE  H12R 7544   8.021   1.311   4.787 -0.4725  1.6015  2.1025
   59DOPE  H12S 7545   7.905   1.377   4.677 -0.8802  1.8493  0.3498
   59DOPE  C213 7546   7.995   1.525   4.795  0.1528 -0.0150  0.1404
   59DOPE  H13R 7547   8.001   1.616   4.732  0.4409 -0.1534 -0.0312
   59DOPE  H13S 7548   8.075   1.528   4.871  0.1732  1.8141  0.0983
   59DOPE  C214 7549   7.860   1.530   4.872 -0.4398  0.3421  0.3216
   59DOPE  H14R 7550   7.830   1.432   4.915 -3.5760  0.3500 -1.4755
   59DOPE  H14S 7551   7.778   1.539   4.796 -2.5754 -0.5301  2.3925
   59DOPE  C215 7552   7.844   1.650   4.961 -0.3036  0.3434 -0.1349
   59DOPE  H15R 7553   7.747   1.634   5.012  0.0938 -0.9954  0.2522
   59DOPE  H15S 7554   7.838   1.744   4.902 -2.2493 -0.7451 -1.7797
   59DOPE  C216 7555   7.946   1.666   5.077  0.2442 -0.3073  0.4293
   59DOPE  H16R 7556   7.917   1.763   5.122  0.9342  0.7462 -1.2613
   59DOPE  H16S 7557   8.043   1.667   5.022  0.0847 -2.2260  0.0646
   59DOPE  C217 7558   7.967   1.543   5.171 -0.1400  0.2244 -0.0425
   59DOPE  H17R 7559   8.033   1.572   5.255  0.5930 -0.8905 -0.2101
   59DOPE  H17S 7560   8.028   1.475   5.108  1.0654  2.1144 -1.0131
   59DOPE  C218 7561   7.836   1.492   5.222  0.3255 -0.4237 -0.7967
   59DOPE  H18R 7562   7.860   1.425   5.308 -1.6090  0.9642  0.9212
   59DOPE  H18S 7563   7.773   1.436   5.150  0.1302 -0.7470 -0.3843
   59DOPE  H18T 7564   7.776   1.570   5.274 -0.4195 -0.8569 -0.9855
   59DOPE   C33 7565   7.734   0.953   3.847  0.5046  0.4999  0.5540
   59DOPE   H3X 7566   7.629   0.985   3.867  0.2109  0.4049 -0.7273
   59DOPE   H3Y 7567   7.802   1.035   3.877  0.2069  1.1859 -0.5780
   59DOPE   C34 7568   7.752   0.827   3.932 -0.2129  0.2050  0.3514
   59DOPE   H4X 7569   7.673   0.758   3.894 -0.0713  0.1160  0.2153
   59DOPE   H4Y 7570   7.844   0.767   3.922 -1.0627 -0.9730 -0.8288
   59DOPE   C35 7571   7.703   0.841   4.080  0.2005 -0.3699  0.1296
   59DOPE   H5X 7572   7.710   0.741   4.128  1.6508  0.7142  2.3330
   59DOPE   H5Y 7573   7.599   0.880   4.076 -0.3661 -1.8029  0.5629
   59DOPE   C36 7574   7.782   0.932   4.173 -0.3498 -0.2223  0.5750
   59DOPE   H6X 7575   7.774   1.038   4.139 -1.8308 -0.2462  0.8035
   59DOPE   H6Y 7576   7.887   0.898   4.185 -0.5645 -0.4747  1.8328
   59DOPE   C37 7577   7.710   0.936   4.301 -0.2022  0.8813  0.0691
   59DOPE   H7X 7578   7.614   0.979   4.268 -2.1619 -2.3308  1.1349
   59DOPE   H7Y 7579   7.686   0.835   4.341 -0.3912  0.3674 -1.2759
   59DOPE   C38 7580   7.782   1.023   4.404  0.0433 -0.3452  0.6405
   59DOPE   H8X 7581   7.710   1.072   4.473  1.5448  1.0242  1.3248
   59DOPE   H8Y 7582   7.840   1.101   4.350  0.4279 -1.8517 -1.2128
   59DOPE   C39 7583   7.884   0.943   4.479 -0.4718 -0.2632 -0.1800
   59DOPE   H9X 7584   7.945   0.876   4.417  1.6504 -0.9247  2.4487
   59DOPE  C310 7585   7.911   0.962   4.612  0.4466 -0.2968  0.0567
   59DOPE  H10X 7586   7.972   0.887   4.664  0.3921  0.4234  1.2167
   59DOPE  C311 7587   7.853   1.056   4.712 -0.3982 -0.4930 -1.0447
   59DOPE  H11X 7588   7.933   1.073   4.787 -0.9057 -1.7409 -0.1886
   59DOPE  H11Y 7589   7.808   1.147   4.666  0.1563 -0.3397 -1.2810
   59DOPE  C312 7590   7.742   0.983   4.801 -0.4282 -0.2840  0.0466
   59DOPE  H12X 7591   7.785   0.890   4.843  2.3113  0.3197 -1.2298
   59DOPE  H12Y 7592   7.670   0.957   4.721  0.8002  2.3362 -2.0849
   59DOPE  C313 7593   7.679   1.074   4.913  0.5553  0.4438 -0.1437
   59DOPE  H13X 7594   7.633   1.163   4.866 -3.6334 -1.6923 -0.6158
   59DOPE  H13Y 7595   7.593   1.015   4.952  1.0063  0.0719  0.3080
   59DOPE  C314 7596   7.772   1.112   5.030 -0.3445 -0.3437  0.5279
   59DOPE  H14X 7597   7.718   1.177   5.103  0.6732  0.2193  0.7969
   59DOPE  H14Y 7598   7.863   1.168   4.997 -1.2186  0.8847  0.1073
   59DOPE  C315 7599   7.831   0.992   5.104 -0.2246  0.8460  0.8347
   59DOPE  H15X 7600   7.897   0.937   5.033 -2.2987 -0.6895  0.0037
   59DOPE  H15Y 7601   7.743   0.929   5.131 -1.3748  2.0775  0.0645
   59DOPE  C316 7602   7.897   1.037   5.236 -0.4687 -0.5131  0.5347
   59DOPE  H16X 7603   7.952   1.132   5.220 -0.8683  0.0225  2.2130
   59DOPE  H16Y 7604   7.967   0.957   5.269 -0.1429 -1.4259 -2.1082
   59DOPE  C317 7605   7.786   1.065   5.341  0.2599 -0.0156 -0.7241
   59DOPE  H17X 7606   7.728   1.153   5.306  1.8625  1.4103  0.0086
   59DOPE  H17Y 7607   7.722   0.975   5.350 -0.1326  0.2927 -0.4224
   59DOPE  C318 7608   7.843   1.101   5.481  0.0553  0.2505  0.2469
   59DOPE  H18X 7609   7.907   1.017   5.517  0.0235  1.1983  2.7157
   59DOPE  H18Y 7610   7.906   1.192   5.487 -0.8188  0.8124  1.2456
   59DOPE  H18Z 7611   7.766   1.115   5.559 -0.3063 -0.6221  0.0557
   60DOPE     N 7612   0.116   7.569   2.688  0.1358  0.3091 -0.5286
   60DOPE   HN1 7613   0.083   7.635   2.614  0.4294  1.7954  0.6066
   60DOPE   HN2 7614   0.210   7.541   2.654 -0.2024  1.3821 -2.4389
   60DOPE   HN3 7615   0.057   7.484   2.686  0.6320 -0.0492 -0.1463
   60DOPE   C12 7616   0.116   7.629   2.819 -0.7738 -0.2868  0.0425
   60DOPE  H12A 7617   0.053   7.721   2.823 -1.0032 -0.4587  0.3362
   60DOPE  H12B 7618   0.220   7.667   2.830 -0.8413  0.4576 -1.5596
   60DOPE   C11 7619   0.076   7.536   2.928 -0.4350 -0.1994  0.0036
   60DOPE  H11A 7620   0.096   7.588   3.024 -3.2553  2.0883 -0.5308
   60DOPE  H11B 7621   0.142   7.446   2.926  1.5772  1.2090 -1.9238
   60DOPE     P 7622  -0.133   7.378   2.970  0.1919  0.2598  0.5106
   60DOPE   O13 7623  -0.087   7.271   2.875  0.2294 -0.2362  0.8449
   60DOPE   O14 7624  -0.280   7.392   3.001 -0.0722  0.1494 -0.0717
   60DOPE   O11 7625  -0.064   7.360   3.105 -0.1449  0.4427 -0.4031
   60DOPE   O12 7626  -0.066   7.515   2.931  0.1405  0.4814  0.2380
   60DOPE    C1 7627  -0.073   7.453   3.209 -0.2197 -0.3850 -0.9544
   60DOPE    HA 7628  -0.142   7.538   3.193  0.2614  0.3525  0.6426
   60DOPE    HB 7629   0.027   7.502   3.221 -1.4035  1.8109  0.6658
   60DOPE    C2 7630  -0.121   7.379   3.336  0.3477  0.3707 -0.1134
   60DOPE    HS 7631  -0.150   7.463   3.403 -0.3075  2.1594 -2.5019
   60DOPE   O21 7632  -0.018   7.291   3.387 -0.3147 -0.3270 -0.5032
   60DOPE   C21 7633   0.090   7.352   3.445 -0.1083  0.2369  0.1460
   60DOPE   O22 7634   0.099   7.468   3.466  0.4340 -0.5019  0.0444
   60DOPE   C22 7635   0.200   7.245   3.478  0.5788 -0.1220 -0.0085
   60DOPE   H2R 7636   0.296   7.299   3.494  0.5422 -0.4018  1.2808
   60DOPE   H2S 7637   0.200   7.177   3.390  3.3499 -0.4793  0.1556
   60DOPE    C3 7638  -0.248   7.299   3.309  0.5760  1.2142 -0.3163
   60DOPE    HX 7639  -0.229   7.202   3.260 -0.1589  1.3559 -0.8973
   60DOPE    HY 7640  -0.315   7.366   3.251  0.1413  1.0028 -0.0549
   60DOPE   O31 7641  -0.321   7.289   3.442 -0.0462  0.3531  0.0778
   60DOPE   C31 7642  -0.280   7.200   3.521  0.9136 -0.1866  0.4194
   60DOPE   O32 7643  -0.212   7.100   3.487  0.5880 -0.2228  0.2080
   60DOPE   C32 7644  -0.308   7.233   3.662  0.2048 -0.6913  0.0228
   60DOPE   H2X 7645  -0.417   7.241   3.679  0.5497  1.2499  1.6278
   60DOPE   H2Y 7646  -0.257   7.164   3.732  1.6256  1.2585  1.0109
   60DOPE   C23 7647   0.159   7.172   3.603  0.1859  0.1778  0.3786
   60DOPE   H3R 7648   0.198   7.068   3.602  1.2353  0.5425  1.1312
   60DOPE   H3S 7649   0.050   7.155   3.612  0.2461  0.2213  1.2539
   60DOPE   C24 7650   0.210   7.243   3.732  0.3929  0.0605  0.3354
   60DOPE   H4R 7651   0.170   7.346   3.734 -1.2978 -0.4090 -2.4648
   60DOPE   H4S 7652   0.320   7.257   3.738  0.9150 -2.7263 -1.1192
   60DOPE   C25 7653   0.155   7.188   3.861 -0.2450  0.7993  0.5164
   60DOPE   H5R 7654   0.191   7.085   3.879 -0.0438  1.0526  1.6778
   60DOPE   H5S 7655   0.048   7.173   3.835  0.4751 -0.7880 -1.8111
   60DOPE   C26 7656   0.162   7.282   3.981 -0.4239  0.5538 -0.0884
   60DOPE   H6R 7657   0.145   7.389   3.959  0.5937  0.6178 -0.6325
   60DOPE   H6S 7658   0.267   7.282   4.018 -0.4305 -0.1433 -0.0572
   60DOPE   C27 7659   0.086   7.221   4.107 -0.5219 -0.0493 -0.1130
   60DOPE   H7R 7660   0.136   7.125   4.131 -0.5560 -0.8229 -2.7741
   60DOPE   H7S 7661  -0.020   7.199   4.083 -0.6131  0.6708 -0.4255
   60DOPE   C28 7662   0.085   7.327   4.214  0.5228 -1.0464  0.1343
   60DOPE   H8R 7663  -0.008   7.314   4.273 -1.1518  0.2462 -2.0698
   60DOPE   H8S 7664   0.082   7.433   4.181 -0.1346 -0.5892  1.6003
   60DOPE   C29 7665   0.212   7.321   4.293  0.1173  0.1176  0.4573
   60DOPE   H9R 7666   0.300   7.360   4.239  0.0496  0.5333  0.6491
   60DOPE  C210 7667   0.218   7.281   4.422  0.2340 -0.1364 -0.4243
   60DOPE  H10R 7668   0.315   7.283   4.472  0.4194  1.7399 -0.8146
   60DOPE  C211 7669   0.107   7.243   4.512  0.2656  0.1297  0.6778
   60DOPE  H11R 7670   0.125   7.134   4.517 -0.6560 -0.1216 -0.8353
   60DOPE  H11S 7671   0.006   7.249   4.466  0.8115 -0.5933 -0.6667
   60DOPE  C212 7672   0.111   7.313   4.649 -0.0810  0.3489  0.1384
   60DOPE  H12R 7673   0.075   7.417   4.634  0.8793  0.8613  1.2424
   60DOPE  H12S 7674   0.218   7.314   4.677 -0.0053  1.2050 -0.1601
   60DOPE  C213 7675   0.018   7.243   4.752  0.1422  0.7071  0.3973
   60DOPE  H13R 7676   0.041   7.135   4.744  2.2359  1.1798 -0.7808
   60DOPE  H13S 7677  -0.088   7.252   4.722  0.0143 -1.4126  0.0619
   60DOPE  C214 7678   0.028   7.310   4.893  0.2971  0.5768  0.4339
   60DOPE  H14R 7679  -0.004   7.412   4.863  2.0250  0.3840 -2.4827
   60DOPE  H14S 7680   0.133   7.324   4.926 -0.0828  0.4427  1.7653
   60DOPE  C215 7681  -0.056   7.245   4.997  0.4276  0.2379  0.7056
   60DOPE  H15R 7682  -0.014   7.150   5.035 -1.4979 -0.7202  0.5483
   60DOPE  H15S 7683  -0.156   7.234   4.950  0.7580 -1.9059  0.4245
   60DOPE  C216 7684  -0.070   7.340   5.121 -0.2950 -0.2178 -0.1295
   60DOPE  H16R 7685  -0.114   7.435   5.084  1.3480  0.0466 -1.4953
   60DOPE  H16S 7686   0.033   7.354   5.158 -0.6188  1.0851  0.3380
   60DOPE  C217 7687  -0.162   7.279   5.229  0.2632  0.6112 -0.2493
   60DOPE  H17R 7688  -0.119   7.179   5.251  0.9535  1.1828  1.0968
   60DOPE  H17S 7689  -0.269   7.270   5.202  0.2540  1.7331 -0.6173
   60DOPE  C218 7690  -0.153   7.358   5.357  0.2574 -1.1031 -0.0376
   60DOPE  H18R 7691  -0.124   7.294   5.443  0.0784 -0.6580  0.3547
   60DOPE  H18S 7692  -0.249   7.412   5.373  1.0374  0.7323 -1.2422
   60DOPE  H18T 7693  -0.074   7.434   5.343 -0.1104 -0.9419 -1.4134
   60DOPE   C33 7694  -0.259   7.369   3.705 -0.1269  0.8465 -0.5475
   60DOPE   H3X 7695  -0.291   7.457   3.645 -0.2187 -0.0197 -1.8023
   60DOPE   H3Y 7696  -0.148   7.374   3.710 -0.1362 -0.3177  1.6481
   60DOPE   C34 7697  -0.308   7.387   3.850 -0.0435 -0.6763 -0.6086
   60DOPE   H4X 7698  -0.418   7.378   3.865  0.1579 -0.9969  0.8674
   60DOPE   H4Y 7699  -0.273   7.296   3.903 -1.3730  0.1781  1.9455
   60DOPE   C35 7700  -0.259   7.513   3.918  0.3770  0.2094  0.3717
   60DOPE   H5X 7701  -0.306   7.601   3.870 -1.6297 -0.5602  0.8445
   60DOPE   H5Y 7702  -0.149   7.529   3.926  0.2073  1.0412  1.2309
   60DOPE   C36 7703  -0.296   7.504   4.070 -0.3898 -0.7329 -0.0406
   60DOPE   H6X 7704  -0.237   7.430   4.128 -2.1171 -1.3423  1.0280
   60DOPE   H6Y 7705  -0.403   7.480   4.092 -0.8092  1.8217  0.9753
   60DOPE   C37 7706  -0.267   7.644   4.122  0.0620  0.2830 -0.2788
   60DOPE   H7X 7707  -0.167   7.686   4.098  0.0801  0.3753 -0.0523
   60DOPE   H7Y 7708  -0.336   7.707   4.063 -2.8572 -4.0330 -1.9625
   60DOPE   C38 7709  -0.289   7.651   4.277 -0.4852 -0.7287 -0.1460
   60DOPE   H8X 7710  -0.385   7.613   4.318 -1.0520  0.6216 -0.1556
   60DOPE   H8Y 7711  -0.285   7.761   4.294  0.9803 -0.6710 -0.7202
   60DOPE   C39 7712  -0.179   7.587   4.356  0.4382  0.0694  0.0758
   60DOPE   H9X 7713  -0.077   7.606   4.320  1.0384 -0.1602  1.5645
   60DOPE  C310 7714  -0.184   7.516   4.469  0.0353 -0.2398 -0.4299
   60DOPE  H10X 7715  -0.083   7.492   4.507  1.4154  3.1956 -1.5056
   60DOPE  C311 7716  -0.305   7.482   4.552  0.4393 -0.1681  0.0724
   60DOPE  H11X 7717  -0.401   7.489   4.496 -0.1216  0.3258  1.0420
   60DOPE  H11Y 7718  -0.298   7.378   4.590 -0.7417 -0.1123  0.5074
   60DOPE  C312 7719  -0.318   7.576   4.674  0.5193 -0.2166 -0.0514
   60DOPE  H12X 7720  -0.225   7.571   4.734 -0.9251 -0.7409  2.2514
   60DOPE  H12Y 7721  -0.389   7.526   4.743  1.0055 -0.9663 -0.0871
   60DOPE  C313 7722  -0.364   7.718   4.637  0.2565  0.4467  0.8123
   60DOPE  H13X 7723  -0.277   7.774   4.597 -1.0952  1.4697 -0.8655
   60DOPE  H13Y 7724  -0.430   7.696   4.550  1.0115  2.5862 -0.3669
   60DOPE  C314 7725  -0.432   7.795   4.749 -0.2465  0.7809 -0.3180
   60DOPE  H14X 7726  -0.535   7.760   4.768 -0.3128  1.5355  0.8420
   60DOPE  H14Y 7727  -0.439   7.902   4.720 -1.3419  0.4981 -1.1277
   60DOPE  C315 7728  -0.361   7.770   4.888  0.5750 -0.5033  0.5913
   60DOPE  H15X 7729  -0.375   7.663   4.915 -0.7675 -0.4437  0.2471
   60DOPE  H15Y 7730  -0.415   7.814   4.974  1.8978 -1.3710  1.9205
   60DOPE  C316 7731  -0.209   7.815   4.893  0.0191  0.2682  0.0770
   60DOPE  H16X 7732  -0.220   7.925   4.892 -2.6247  0.1304  2.1064
   60DOPE  H16Y 7733  -0.160   7.785   4.798  1.5773  0.3863  0.8142
   60DOPE  C317 7734  -0.137   7.768   5.012 -0.0970  0.7021 -0.0269
   60DOPE  H17X 7735  -0.124   7.658   5.010 -2.3986  0.3763 -0.6047
   60DOPE  H17Y 7736  -0.032   7.804   5.006  0.3008 -0.5404 -1.0546
   60DOPE  C318 7737  -0.208   7.793   5.144  0.2993 -0.7901 -0.6279
   60DOPE  H18X 7738  -0.304   7.740   5.164 -0.0656 -0.1881 -0.7722
   60DOPE  H18Y 7739  -0.141   7.763   5.228 -0.8569 -0.8717  0.2891
   60DOPE  H18Z 7740  -0.240   7.899   5.151 -1.9762 -1.5089  1.3563
   6123SM     N 7741   3.198   4.146   7.916  0.0244 -0.2806  0.4832
   6123SM   C15 7742   3.160   4.001   7.936 -0.2002 -0.6042 -0.3611
   6123SM  H15A 7743   3.245   3.939   7.964  0.3036  0.4970  0.6781
   6123SM  H15B 7744   3.105   3.963   7.852 -2.3219  1.6924 -0.1097
   6123SM  H15C 7745   3.096   3.990   8.023 -1.4510  2.3659 -0.7976
   6123SM   C14 7746   3.074   4.237   7.903 -0.3216  0.1696  0.1116
   6123SM  H14A 7747   3.023   4.231   7.998 -0.6395  0.4494 -0.0401
   6123SM  H14B 7748   3.013   4.193   7.825 -0.4030  1.7948 -0.7987
   6123SM  H14C 7749   3.110   4.333   7.869 -0.6380  0.8558  1.6710
   6123SM   C13 7750   3.284   4.199   8.025 -0.8434 -0.3029 -0.0990
   6123SM  H13A 7751   3.216   4.201   8.109 -0.8264 -2.8517  0.0730
   6123SM  H13B 7752   3.325   4.294   7.994 -0.1590 -1.2342 -2.2957
   6123SM  H13C 7753   3.363   4.130   8.050 -0.9376 -0.2009  0.4862
   6123SM   C12 7754   3.274   4.157   7.780 -1.1532 -0.2596 -0.0392
   6123SM  H12A 7755   3.365   4.099   7.782 -2.7776 -2.9484  0.1043
   6123SM  H12B 7756   3.306   4.259   7.764  0.3629 -0.3833  1.7924
   6123SM   C11 7757   3.192   4.119   7.654 -0.0547  0.0471  0.4985
   6123SM  H11A 7758   3.251   4.139   7.562 -0.4299  2.9444  0.7943
   6123SM  H11B 7759   3.097   4.177   7.645 -1.0313 -1.7239 -1.0947
   6123SM     P 7760   3.236   3.883   7.550 -0.1298  0.1537  0.0349
   6123SM   O13 7761   3.374   3.890   7.599  0.3078  0.5203  0.1409
   6123SM   O14 7762   3.182   3.747   7.533  0.6459  0.2305  0.4659
   6123SM   O11 7763   3.227   3.964   7.412 -0.1324  0.2233  0.1343
   6123SM   O12 7764   3.154   3.978   7.649 -0.3257 -0.5929  0.2082
   6123SM   C1S 7765   3.097   3.975   7.347 -0.2853 -0.5362  0.5741
   6123SM   H1S 7766   3.032   4.051   7.395  0.6778 -0.3030  1.5397
   6123SM   H1T 7767   3.036   3.882   7.344 -2.5793  0.8789  1.0219
   6123SM    NF 7768   2.976   4.042   7.139 -0.2923 -1.2291  0.2688
   6123SM   HNF 7769   2.930   3.966   7.094 -1.7223 -0.9603  1.2348
   6123SM   C2S 7770   3.107   4.012   7.191  0.2846 -0.1766  0.3603
   6123SM   H2S 7771   3.178   4.096   7.177  0.7848 -0.8859 -1.6858
   6123SM   C3S 7772   3.170   3.893   7.110  0.2949 -0.5743 -0.1898
   6123SM   H3S 7773   3.109   3.800   7.115 -0.3258 -0.0932  2.2142
   6123SM    O3 7774   3.290   3.852   7.168 -0.6799  0.7952 -0.3411
   6123SM   HO3 7775   3.293   3.902   7.250  0.7208  0.2040 -0.0112
   6123SM   C4S 7776   3.186   3.930   6.967  0.7245 -0.0891 -0.6253
   6123SM   H4S 7777   3.091   3.907   6.918 -0.4842  2.3536  0.4389
   6123SM   C5S 7778   3.285   3.987   6.899 -0.4887  0.1029 -0.1203
   6123SM   H5S 7779   3.376   4.021   6.950 -0.8856 -0.6119  1.1057
   6123SM   C6S 7780   3.295   4.025   6.750  0.3156 -0.4632 -0.1548
   6123SM   H6S 7781   3.366   3.955   6.701  0.5171 -0.0005 -0.5313
   6123SM   H6T 7782   3.336   4.128   6.745 -2.6014  0.7715 -0.4953
   6123SM   C7S 7783   3.162   4.015   6.663 -0.6620  0.4650 -0.1730
   6123SM   H7S 7784   3.094   4.097   6.696  0.6203  1.5570 -0.1548
   6123SM   H7T 7785   3.112   3.916   6.677 -0.5472  0.3919 -0.2810
   6123SM   C8S 7786   3.191   4.042   6.516 -0.2417  0.6304 -0.2532
   6123SM   H8S 7787   3.252   3.965   6.463  0.7599  1.3857 -0.2317
   6123SM   H8T 7788   3.258   4.128   6.499  0.8567  0.1969  1.6131
   6123SM   C9S 7789   3.054   4.065   6.447 -0.3549  0.2067  0.0062
   6123SM   H9S 7790   3.004   4.153   6.494 -2.1968  0.2705 -1.9236
   6123SM   H9T 7791   2.998   3.973   6.471 -1.6617  1.2104  0.9517
   6123SM  C10S 7792   3.066   4.076   6.292  0.1475 -0.2869  0.3040
   6123SM  H10S 7793   2.980   4.026   6.242 -0.4566  2.6839 -1.8770
   6123SM  H10T 7794   3.152   4.015   6.256  0.6047  1.5033 -1.8461
   6123SM  C11S 7795   3.067   4.218   6.230 -0.3539 -0.0918  0.5183
   6123SM  H11S 7796   3.023   4.290   6.303  1.8505 -0.9558  2.8401
   6123SM  H11T 7797   2.994   4.210   6.147 -0.1603  0.0979  0.3284
   6123SM  C12S 7798   3.190   4.269   6.158  0.3445 -0.3885  0.9865
   6123SM  H12S 7799   3.221   4.185   6.092  1.0508  0.0752  0.7228
   6123SM  H12T 7800   3.267   4.277   6.237 -1.6706  2.4453  2.8646
   6123SM  C13S 7801   3.174   4.402   6.083 -0.0307 -0.3469  0.0378
   6123SM  H13S 7802   3.085   4.412   6.016 -1.1026 -2.1273  1.1366
   6123SM  H13T 7803   3.264   4.427   6.022  0.7863 -1.0002  0.9475
   6123SM  C14S 7804   3.164   4.523   6.185  0.3662  0.2935  0.0513
   6123SM  H14S 7805   3.079   4.505   6.253 -0.5285  0.0177 -1.1108
   6123SM  H14T 7806   3.144   4.618   6.130 -0.0531  1.3829  2.0053
   6123SM  C15S 7807   3.288   4.541   6.272  0.0771  0.4580  0.7821
   6123SM  H15S 7808   3.376   4.518   6.209  0.4820 -2.3298  2.2211
   6123SM  H15T 7809   3.296   4.466   6.353  2.3018  0.3717  0.5474
   6123SM  C16S 7810   3.311   4.683   6.327 -0.0413 -0.1260  0.1311
   6123SM  H16S 7811   3.244   4.693   6.415 -1.1351 -0.2934 -0.6628
   6123SM  H16T 7812   3.268   4.746   6.246 -1.6683  1.2485  1.9357
   6123SM  C17S 7813   3.458   4.709   6.361  0.5433  0.0118 -0.0876
   6123SM  H17S 7814   3.517   4.692   6.269  1.1979  0.1183  0.3044
   6123SM  H17T 7815   3.505   4.637   6.431 -0.3681 -0.3920  0.1234
   6123SM  C18S 7816   3.493   4.832   6.441  0.3645  0.3096  0.0675
   6123SM  H18S 7817   3.601   4.818   6.464  0.7550  0.6554 -1.4552
   6123SM  H18T 7818   3.432   4.846   6.532  0.1189 -0.2679 -0.0062
   6123SM  H18U 7819   3.477   4.918   6.372 -0.5495 -1.5951 -2.2106
   6123SM   C1F 7820   2.926   4.162   7.158 -0.5989 -0.7815 -0.1947
   6123SM    OF 7821   2.992   4.252   7.214 -0.1192  0.6560 -0.0193
   6123SM   C2F 7822   2.782   4.173   7.129 -0.0642 -0.1652  0.5125
   6123SM   H2F 7823   2.716   4.173   7.218 -0.9456  0.2222 -0.1327
   6123SM   H2G 7824   2.746   4.082   7.077  3.0877 -2.2660  1.6887
   6123SM   C3F 7825   2.736   4.289   7.035  0.2652  0.4804 -0.2212
   6123SM   H3F 7826   2.764   4.383   7.089 -1.0741  0.0531  1.2845
   6123SM   H3G 7827   2.625   4.282   7.028  0.1673  1.4324  0.1831
   6123SM   C4F 7828   2.797   4.267   6.900 -0.5996  1.0089  0.7555
   6123SM   H4F 7829   2.771   4.163   6.870  1.3016  1.1638 -1.7343
   6123SM   H4G 7830   2.907   4.279   6.900 -0.4131 -0.4954 -0.0039
   6123SM   C5F 7831   2.744   4.358   6.793 -0.3484  0.2401  0.2291
   6123SM   H5F 7832   2.779   4.460   6.819  1.8167 -1.0457  2.9131
   6123SM   H5G 7833   2.634   4.343   6.793 -0.2902 -1.9762  4.6833
   6123SM   C6F 7834   2.798   4.335   6.650 -0.0233  0.1337 -0.0185
   6123SM   H6F 7835   2.765   4.237   6.610 -0.8436  0.3714  0.0754
   6123SM   H6G 7836   2.909   4.346   6.650  0.0484 -0.4507 -1.0030
   6123SM   C7F 7837   2.740   4.434   6.553 -0.2752  0.0904  0.2629
   6123SM   H7F 7838   2.743   4.539   6.589 -0.7755  0.5961 -1.0962
   6123SM   H7G 7839   2.633   4.405   6.552 -0.8019  1.8609 -1.5569
   6123SM   C8F 7840   2.789   4.425   6.406 -0.7202 -0.5645  0.8211
   6123SM   H8F 7841   2.809   4.317   6.387 -0.1050 -0.4817  0.9820
   6123SM   H8G 7842   2.886   4.478   6.410 -0.7309 -0.5461  0.8387
   6123SM   C9F 7843   2.693   4.489   6.306 -0.4733 -0.2427  0.1456
   6123SM   H9F 7844   2.678   4.595   6.332  2.6494  0.5056 -0.6971
   6123SM   H9G 7845   2.594   4.437   6.307 -0.5706 -0.0678  1.3840
   6123SM  C10F 7846   2.743   4.491   6.159 -0.0102  0.1879  0.1717
   6123SM  H10F 7847   2.766   4.391   6.116 -0.0049 -0.2672  1.2187
   6123SM  H10G 7848   2.836   4.551   6.148 -1.5834  3.2060  2.0815
   6123SM  C11F 7849   2.649   4.552   6.055 -0.1375  0.1430 -0.3332
   6123SM  H11F 7850   2.619   4.649   6.100 -0.4344 -0.9271  1.8593
   6123SM  H11G 7851   2.552   4.499   6.060  0.8414 -1.6153  1.0749
   6123SM  C12F 7852   2.697   4.550   5.907 -0.2763  0.4310 -0.3078
   6123SM  H12F 7853   2.620   4.617   5.863 -1.7826 -1.5869 -0.8893
   6123SM  H12G 7854   2.686   4.448   5.865  0.3072  0.1186  0.2865
   6123SM  C13F 7855   2.836   4.604   5.893 -0.5131  0.6708  0.8205
   6123SM  H13F 7856   2.922   4.545   5.931 -1.0850 -0.1782  0.8144
   6123SM  H13G 7857   2.842   4.706   5.937  0.7474  0.4973  1.0723
   6123SM  C14F 7858   2.848   4.610   5.741  0.1695 -0.3041  0.1309
   6123SM  H14F 7859   2.760   4.656   5.691  0.5896 -0.6959 -1.0134
   6123SM  H14G 7860   2.868   4.511   5.694 -1.0410 -1.0038  1.0352
   6123SM  C15F 7861   2.959   4.702   5.693 -0.4017  0.6758  0.1243
   6123SM  H15F 7862   2.960   4.791   5.760  2.5083  0.3931  0.6076
   6123SM  H15G 7863   2.925   4.730   5.591 -0.0390 -0.3074 -0.2788
   6123SM  C16F 7864   3.103   4.638   5.687 -0.2293 -0.0013 -0.1957
   6123SM  H16F 7865   3.097   4.552   5.617 -1.4651 -0.1577  0.0743
   6123SM  H16G 7866   3.144   4.606   5.785 -1.5694  0.1849  0.4497
   6123SM  C17F 7867   3.197   4.735   5.622 -0.1726  0.7858 -0.1132
   6123SM  H17F 7868   3.214   4.823   5.689  0.9333  1.2493 -0.9591
   6123SM  H17G 7869   3.161   4.763   5.521  0.0094  1.9233  0.1163
   6123SM  C18F 7870   3.336   4.666   5.596 -0.5556 -0.0836 -0.0206
   6123SM  H18F 7871   3.335   4.598   5.508  0.8437  0.3576 -0.4062
   6123SM  H18G 7872   3.369   4.600   5.679  0.6979  1.8358  1.0988
   6123SM  C19F 7873   3.456   4.765   5.563 -0.1814 -0.0722  0.7114
   6123SM  H19F 7874   3.479   4.835   5.647  1.1522  0.2174  0.1328
   6123SM  H19G 7875   3.414   4.830   5.482  0.1955 -1.2850 -0.4935
   6123SM  C20F 7876   3.585   4.696   5.512 -0.6544  0.0204  0.0696
   6123SM  H20F 7877   3.582   4.635   5.419  2.6028  0.1803 -0.2558
   6123SM  H20G 7878   3.615   4.630   5.596 -0.9961 -1.7404 -1.1161
   6123SM  C21F 7879   3.693   4.798   5.494 -0.5093 -0.3293 -0.7257
   6123SM  H21F 7880   3.640   4.895   5.477 -1.6223 -0.9081 -0.6966
   6123SM  H21G 7881   3.768   4.777   5.416 -0.1210 -1.6393 -0.0182
   6123SM  C22F 7882   3.777   4.816   5.629  0.5079 -0.2467  0.2246
   6123SM  H22F 7883   3.850   4.733   5.616 -0.6466 -1.3160  0.3997
   6123SM  H22G 7884   3.712   4.796   5.717  0.6328 -2.0591 -0.0419
   6123SM  C23F 7885   3.847   4.946   5.642  0.5367  0.2180  0.8768
   6123SM  H23F 7886   3.916   4.943   5.730  2.6442 -2.3235 -0.7171
   6123SM  H23G 7887   3.785   5.037   5.658 -0.3144 -0.3109  0.6896
   6123SM  H23H 7888   3.927   4.956   5.566 -0.2117 -0.1872  0.0185
   6223SM     N 7889   2.563   3.617   7.725 -0.1941  0.4802  0.6060
   6223SM   C15 7890   2.588   3.471   7.751  0.4879 -0.0844  0.3118
   6223SM  H15A 7891   2.492   3.421   7.757 -0.4242  1.5381  0.0015
   6223SM  H15B 7892   2.654   3.434   7.829  0.4580 -0.2732  0.2485
   6223SM  H15C 7893   2.625   3.430   7.659 -0.1082  2.1700 -1.0070
   6223SM   C14 7894   2.479   3.671   7.840 -0.5681 -0.2220  0.2419
   6223SM  H14A 7895   2.469   3.779   7.839  1.7325  0.0413 -0.4821
   6223SM  H14B 7896   2.538   3.651   7.928 -1.4936 -4.2753  0.1215
   6223SM  H14C 7897   2.383   3.624   7.852 -0.9670 -0.0222 -1.7930
   6223SM   C13 7898   2.702   3.676   7.733 -0.1862  0.7674 -0.9658
   6223SM  H13A 7899   2.775   3.629   7.669 -0.6414 -0.3710 -0.6706
   6223SM  H13B 7900   2.725   3.661   7.837  0.0031 -0.4691 -1.1732
   6223SM  H13C 7901   2.694   3.781   7.708 -0.3072  0.4309 -2.4447
   6223SM   C12 7902   2.484   3.630   7.593  0.3565 -0.7436  0.3953
   6223SM  H12A 7903   2.471   3.736   7.575  0.3066 -0.3826  2.3617
   6223SM  H12B 7904   2.386   3.587   7.604  0.5977 -1.4166 -0.0177
   6223SM   C11 7905   2.540   3.558   7.462  0.4206 -0.3374 -0.7115
   6223SM  H11A 7906   2.475   3.566   7.373  0.7388 -0.4546 -0.9551
   6223SM  H11B 7907   2.541   3.447   7.469  1.4875 -0.3228 -0.4799
   6223SM     P 7908   2.683   3.757   7.378 -0.2743 -0.0354  0.2678
   6223SM   O13 7909   2.571   3.846   7.406 -0.0080 -0.6628  0.4527
   6223SM   O14 7910   2.822   3.793   7.410 -0.2747  0.0001  0.1900
   6223SM   O11 7911   2.675   3.719   7.227  0.3652 -0.4243  0.3749
   6223SM   O12 7912   2.666   3.615   7.442  0.2462 -0.1241 -0.0477
   6223SM   C1S 7913   2.718   3.596   7.179  0.3304  0.3469  0.1470
   6223SM   H1S 7914   2.642   3.517   7.196  2.9214 -2.2350  0.7174
   6223SM   H1T 7915   2.810   3.559   7.230  0.4813  1.2501  0.5381
   6223SM    NF 7916   2.774   3.449   6.998 -0.5649 -0.3263 -0.1398
   6223SM   HNF 7917   2.870   3.424   6.984 -0.6529  0.0361 -1.5602
   6223SM   C2S 7918   2.742   3.589   7.030 -0.4317  0.0508  0.5170
   6223SM   H2S 7919   2.646   3.618   6.983 -0.8384 -1.1273  0.5900
   6223SM   C3S 7920   2.857   3.682   6.987  0.1150  0.0599  0.4992
   6223SM   H3S 7921   2.944   3.646   7.047 -1.4177 -1.3594  1.9865
   6223SM    O3 7922   2.832   3.819   7.019  0.0235  0.1589  0.2935
   6223SM   HO3 7923   2.782   3.805   7.100  1.4409 -1.0755  1.0043
   6223SM   C4S 7924   2.886   3.667   6.847 -0.4229 -0.7835  0.9811
   6223SM   H4S 7925   2.797   3.699   6.792 -0.8676 -1.5245  1.2684
   6223SM   C5S 7926   2.998   3.631   6.788 -0.7901  0.0248  0.2285
   6223SM   H5S 7927   3.088   3.604   6.846  0.6849 -0.5473 -2.1698
   6223SM   C6S 7928   3.030   3.619   6.639  0.0263 -0.3090  0.0910
   6223SM   H6S 7929   3.078   3.520   6.621  2.7870  0.4464  2.4548
   6223SM   H6T 7930   3.092   3.707   6.612 -2.1385  0.9407 -1.0883
   6223SM   C7S 7931   2.907   3.635   6.543 -0.3393  0.2152  0.1178
   6223SM   H7S 7932   2.847   3.726   6.563 -1.7103 -0.1013 -2.1936
   6223SM   H7T 7933   2.842   3.546   6.557 -0.8201  0.3262 -1.3097
   6223SM   C8S 7934   2.942   3.654   6.396 -0.2837 -0.2278  0.3944
   6223SM   H8S 7935   3.002   3.564   6.371 -0.4869  0.5365 -3.4750
   6223SM   H8T 7936   3.005   3.745   6.385 -2.7016  1.5798  0.6412
   6223SM   C9S 7937   2.821   3.664   6.301  0.0440 -0.3141 -0.0800
   6223SM   H9S 7938   2.748   3.743   6.328  0.3023  0.5759 -1.9114
   6223SM   H9T 7939   2.759   3.571   6.305 -1.2410  0.4539 -1.3323
   6223SM  C10S 7940   2.857   3.672   6.149 -0.0553  0.2859 -0.2925
   6223SM  H10S 7941   2.767   3.652   6.087  0.6656  0.6625 -1.5041
   6223SM  H10T 7942   2.930   3.590   6.133  0.1521  0.5129 -0.5356
   6223SM  C11S 7943   2.928   3.801   6.113  0.3629 -0.3084  0.2199
   6223SM  H11S 7944   3.019   3.820   6.173 -1.0086 -0.6317  2.5474
   6223SM  H11T 7945   2.871   3.894   6.132 -1.6708 -1.6033  0.7598
   6223SM  C12S 7946   2.946   3.807   5.953 -0.5097 -0.4818  0.3507
   6223SM  H12S 7947   2.844   3.795   5.911 -0.2797 -2.5858  0.2732
   6223SM  H12T 7948   3.015   3.727   5.919  1.0125  0.9411 -0.0285
   6223SM  C13S 7949   3.014   3.946   5.919  0.3434  0.4810  0.5169
   6223SM  H13S 7950   3.115   3.944   5.964  0.1007 -2.0809  1.1208
   6223SM  H13T 7951   2.958   4.035   5.955  0.7844  0.3076  1.6411
   6223SM  C14S 7952   3.009   3.975   5.769  0.0452  0.7251  0.0916
   6223SM  H14S 7953   2.905   3.957   5.735  0.8078  0.5342 -2.3283
   6223SM  H14T 7954   3.078   3.910   5.711  1.2249  1.1086  1.0056
   6223SM  C15S 7955   3.055   4.117   5.742 -0.2965 -0.1053  0.7579
   6223SM  H15S 7956   3.162   4.119   5.770 -0.2507  1.6534  0.5621
   6223SM  H15T 7957   2.999   4.192   5.802 -0.0813  1.4704 -0.9223
   6223SM  C16S 7958   3.054   4.144   5.587  0.7727 -0.6324 -0.2944
   6223SM  H16S 7959   3.102   4.061   5.530 -0.1133 -1.3653 -0.0008
   6223SM  H16T 7960   3.112   4.238   5.576 -1.4870  0.8183 -0.3001
   6223SM  C17S 7961   2.911   4.179   5.531 -1.1707 -1.0012 -0.3616
   6223SM  H17S 7962   2.886   4.281   5.569  1.4110  0.0451 -1.2131
   6223SM  H17T 7963   2.832   4.108   5.562 -1.3967 -0.2039  0.9816
   6223SM  C18S 7964   2.914   4.183   5.378 -0.1270  0.0673 -0.3646
   6223SM  H18S 7965   2.929   4.078   5.343 -0.0740 -0.6567  1.6684
   6223SM  H18T 7966   2.995   4.251   5.347 -0.2047  0.5203  0.3793
   6223SM  H18U 7967   2.815   4.222   5.346 -0.5396 -0.3411  0.3797
   6223SM   C1F 7968   2.674   3.358   6.979 -0.4217  0.2369 -0.0614
   6223SM    OF 7969   2.557   3.388   6.987  0.1030 -0.2689  0.4653
   6223SM   C2F 7970   2.703   3.209   6.967  0.2625 -0.6452  0.5045
   6223SM   H2F 7971   2.628   3.141   7.011  2.9202 -1.8585  3.5811
   6223SM   H2G 7972   2.803   3.191   7.014  0.0865 -1.1427  0.7011
   6223SM   C3F 7973   2.704   3.167   6.817  0.8809 -0.0659  0.4933
   6223SM   H3F 7974   2.602   3.173   6.773  2.2951 -0.8384 -3.2301
   6223SM   H3G 7975   2.726   3.059   6.805  2.0851  0.3337 -1.2417
   6223SM   C4F 7976   2.808   3.247   6.726 -0.2301  0.5477 -0.2662
   6223SM   H4F 7977   2.900   3.244   6.790 -1.7788  0.5036  2.0812
   6223SM   H4G 7978   2.776   3.352   6.708 -0.3832  0.5615  0.0740
   6223SM   C5F 7979   2.839   3.161   6.609  0.9058 -0.3799 -0.0371
   6223SM   H5F 7980   2.743   3.133   6.561  1.1828 -2.1019  0.3274
   6223SM   H5G 7981   2.879   3.059   6.628  0.2033 -0.7685 -0.6296
   6223SM   C6F 7982   2.919   3.237   6.506  0.6534  0.1968 -0.1602
   6223SM   H6F 7983   3.011   3.287   6.543  1.4594 -1.3082 -0.0733
   6223SM   H6G 7984   2.857   3.324   6.475 -0.8021 -0.6208  0.3544
   6223SM   C7F 7985   2.955   3.156   6.385  0.5964 -0.0477 -0.0260
   6223SM   H7F 7986   2.856   3.137   6.338  0.1669  1.0812  0.3939
   6223SM   H7G 7987   3.003   3.059   6.412  2.2198  0.2986 -1.5261
   6223SM   C8F 7988   3.045   3.208   6.268 -0.1700 -0.4640 -0.3507
   6223SM   H8F 7989   3.022   3.313   6.238 -0.5378 -0.3659  0.2481
   6223SM   H8G 7990   3.037   3.147   6.176  1.0304 -0.6650 -0.3316
   6223SM   C9F 7991   3.194   3.203   6.310 -0.1626 -0.4425 -0.4539
   6223SM   H9F 7992   3.226   3.097   6.320  3.5015  0.6382  0.8436
   6223SM   H9G 7993   3.206   3.253   6.409  0.8285 -0.8493 -0.3515
   6223SM  C10F 7994   3.280   3.266   6.205 -0.7547 -0.1310  0.8608
   6223SM  H10F 7995   3.367   3.307   6.261 -0.4864 -1.4785  1.4630
   6223SM  H10G 7996   3.236   3.356   6.157 -0.9950 -0.6301  0.1329
   6223SM  C11F 7997   3.313   3.163   6.093  0.2283 -0.2934  0.2574
   6223SM  H11F 7998   3.219   3.146   6.037 -1.9988  2.1685  2.9784
   6223SM  H11G 7999   3.344   3.065   6.137  1.0205  0.5230  1.5815
   6223SM  C12F 8000   3.417   3.201   5.995  0.2251 -0.2425  0.3975
   6223SM  H12F 8001   3.517   3.206   6.042 -0.6908  2.7561  2.2678
   6223SM  H12G 8002   3.389   3.298   5.950  1.3892  0.6399  1.5245
   6223SM  C13F 8003   3.426   3.094   5.877  0.2152  0.0590 -0.4694
   6223SM  H13F 8004   3.322   3.067   5.847  0.8001 -1.3156 -1.3824
   6223SM  H13G 8005   3.470   2.998   5.912 -1.8075 -0.0109  2.1996
   6223SM  C14F 8006   3.496   3.155   5.756 -0.3523  0.1550  0.0062
   6223SM  H14F 8007   3.582   3.216   5.789 -0.1348 -1.1106  1.9593
   6223SM  H14G 8008   3.433   3.232   5.707 -1.1017  0.2759  1.1068
   6223SM  C15F 8009   3.535   3.052   5.653 -0.0264  0.3846 -0.0239
   6223SM  H15F 8010   3.452   2.982   5.629 -3.0728  2.7995  2.5910
   6223SM  H15G 8011   3.604   2.984   5.708 -0.5878  0.1400  0.3883
   6223SM  C16F 8012   3.584   3.092   5.516 -0.4876 -0.0642  0.8833
   6223SM  H16F 8013   3.490   3.103   5.459 -1.1262 -0.6274  1.8105
   6223SM  H16G 8014   3.645   3.003   5.490 -0.0827  0.7272 -1.0829
   6223SM  C17F 8015   3.673   3.213   5.505 -0.1299 -0.6063  0.6212
   6223SM  H17F 8016   3.736   3.215   5.597 -0.4571  0.8339  0.8345
   6223SM  H17G 8017   3.620   3.310   5.512 -0.8985 -0.9305 -0.4408
   6223SM  C18F 8018   3.763   3.206   5.376 -0.8944 -0.8095 -0.3820
   6223SM  H18F 8019   3.710   3.250   5.289  0.7959  1.9244 -0.1252
   6223SM  H18G 8020   3.800   3.101   5.366 -0.0251 -0.7131  1.5376
   6223SM  C19F 8021   3.892   3.275   5.400  0.0547 -0.1461  0.2672
   6223SM  H19F 8022   3.932   3.217   5.485 -0.6974 -0.7840  0.1986
   6223SM  H19G 8023   3.883   3.384   5.417 -2.5463 -0.4351  1.1922
   6223SM  C20F 8024   3.980   3.254   5.283  0.1686  0.0639  0.4584
   6223SM  H20F 8025   3.960   3.304   5.186 -1.6659 -0.7639  0.3746
   6223SM  H20G 8026   4.005   3.147   5.261  0.8657  0.2719  0.1842
   6223SM  C21F 8027   4.115   3.319   5.321  0.3964  0.6974 -0.2310
   6223SM  H21F 8028   4.156   3.267   5.410  0.8163 -0.9686 -1.3418
   6223SM  H21G 8029   4.107   3.428   5.341  1.0458  0.5644  0.8471
   6223SM  C22F 8030   4.218   3.288   5.208  0.3291 -0.0235 -0.4420
   6223SM  H22F 8031   4.296   3.367   5.216  0.7036 -0.0002 -3.3079
   6223SM  H22G 8032   4.172   3.298   5.107 -0.2514 -1.5181 -0.3441
   6223SM  C23F 8033   4.285   3.154   5.214  0.7895  0.0255 -0.4457
   6223SM  H23F 8034   4.208   3.075   5.232  0.1776  1.2837  3.5117
   6223SM  H23G 8035   4.344   3.140   5.307 -1.0812  0.0241  0.8030
   6223SM  H23H 8036   4.346   3.127   5.125 -1.9423 -4.2686 -1.3005
   6323SM     N 8037   4.516   4.280   7.266 -0.2061  0.8326  0.1322
   6323SM   C15 8038   4.476   4.250   7.127 -0.3143 -0.4828 -0.0637
   6323SM  H15A 8039   4.487   4.146   7.100  1.2464  0.2071 -2.3256
   6323SM  H15B 8040   4.536   4.314   7.065 -0.0832 -0.4634  0.1787
   6323SM  H15C 8041   4.370   4.269   7.113 -1.2345 -1.8991  3.6459
   6323SM   C14 8042   4.418   4.201   7.346  0.3832 -0.0313 -0.2519
   6323SM  H14A 8043   4.430   4.230   7.449  1.3363  1.8220 -0.8543
   6323SM  H14B 8044   4.428   4.094   7.334  0.1866  0.0031 -0.7610
   6323SM  H14C 8045   4.314   4.220   7.322  0.8289  2.4912 -0.3660
   6323SM   C13 8046   4.658   4.241   7.298  0.0971 -0.2311 -0.0343
   6323SM  H13A 8047   4.686   4.140   7.274 -2.0219 -1.1541  1.1096
   6323SM  H13B 8048   4.677   4.251   7.404  2.1359 -0.2151 -0.3644
   6323SM  H13C 8049   4.729   4.303   7.245 -0.6794 -0.1860 -1.0298
   6323SM   C12 8050   4.488   4.427   7.305 -0.2645 -0.1254 -0.0779
   6323SM  H12A 8051   4.522   4.443   7.406 -0.8349 -1.1380  0.2808
   6323SM  H12B 8052   4.383   4.449   7.304 -0.6146 -1.5778  1.7571
   6323SM   C11 8053   4.545   4.539   7.227  0.0227  0.3452 -0.1392
   6323SM  H11A 8054   4.487   4.629   7.257  0.5062  0.5440  0.2293
   6323SM  H11B 8055   4.519   4.525   7.121 -1.2369  0.3095  0.1616
   6323SM     P 8056   4.740   4.669   7.343  0.4257  0.1954 -0.2384
   6323SM   O13 8057   4.654   4.698   7.461 -0.0179 -0.0760  0.6122
   6323SM   O14 8058   4.873   4.615   7.379 -0.0246  0.0164 -0.1059
   6323SM   O11 8059   4.750   4.805   7.258  0.6300  0.2212 -0.0244
   6323SM   O12 8060   4.682   4.570   7.244  0.1098  0.0772 -0.0969
   6323SM   C1S 8061   4.825   4.815   7.145 -0.2080 -0.1597 -0.2379
   6323SM   H1S 8062   4.926   4.771   7.158 -0.7924 -1.8426 -1.1652
   6323SM   H1T 8063   4.846   4.924   7.136  2.5479 -0.5051  0.9788
   6323SM    NF 8064   4.838   4.757   6.897 -0.3050 -0.5090 -0.4056
   6323SM   HNF 8065   4.839   4.819   6.819 -0.6479 -1.4478 -1.1720
   6323SM   C2S 8066   4.749   4.773   7.018  0.1627  0.2685 -0.3453
   6323SM   H2S 8067   4.691   4.680   7.034 -1.5134  0.9901 -1.8890
   6323SM   C3S 8068   4.638   4.886   7.000 -0.2554  0.2415 -0.3438
   6323SM   H3S 8069   4.674   4.986   6.969  0.7744 -0.1111 -0.3311
   6323SM    O3 8070   4.559   4.891   7.121  0.1402 -0.1752  0.2607
   6323SM   HO3 8071   4.616   4.848   7.185  0.9797  1.0045  0.3501
   6323SM   C4S 8072   4.542   4.847   6.889  0.1005 -0.2366 -0.8563
   6323SM   H4S 8073   4.487   4.753   6.906  1.1928 -0.7408  0.0626
   6323SM   C5S 8074   4.509   4.939   6.792 -0.3102  0.1792  0.2250
   6323SM   H5S 8075   4.547   5.041   6.807  1.9484 -0.5006 -0.5554
   6323SM   C6S 8076   4.413   4.924   6.680  0.0115  0.0250  0.0361
   6323SM   H6S 8077   4.341   5.008   6.681  0.6623  0.5905  0.2596
   6323SM   H6T 8078   4.346   4.838   6.699  0.4393 -0.7702 -1.8190
   6323SM   C7S 8079   4.492   4.912   6.542 -0.2663  0.5882 -0.1895
   6323SM   H7S 8080   4.544   4.813   6.541 -0.4244  0.5088 -0.5677
   6323SM   H7T 8081   4.566   4.994   6.535 -0.6258  1.4290  3.4695
   6323SM   C8S 8082   4.397   4.907   6.418 -0.1102  0.4535  0.9835
   6323SM   H8S 8083   4.335   4.997   6.439 -0.3666  0.1120  1.7322
   6323SM   H8T 8084   4.345   4.809   6.425  0.8239 -0.1028  0.2527
   6323SM   C9S 8085   4.470   4.921   6.284  0.0714  0.6218 -0.1806
   6323SM   H9S 8086   4.553   4.847   6.271 -1.9808 -1.7916 -0.2576
   6323SM   H9T 8087   4.510   5.024   6.272  0.1807  0.8121  1.5641
   6323SM  C10S 8088   4.384   4.893   6.157 -0.1856 -0.2987  0.8007
   6323SM  H10S 8089   4.311   4.810   6.171 -0.6890  0.1037  0.5904
   6323SM  H10T 8090   4.445   4.861   6.070 -0.0227 -0.2505  0.8958
   6323SM  C11S 8091   4.309   5.025   6.112  0.1293 -0.3385 -0.5661
   6323SM  H11S 8092   4.386   5.103   6.100  1.7344 -1.6414  0.7224
   6323SM  H11T 8093   4.243   5.055   6.197 -0.8651 -0.8681 -1.1230
   6323SM  C12S 8094   4.226   5.016   5.984  0.3468 -0.2233  0.0965
   6323SM  H12S 8095   4.154   5.101   5.978 -0.1503 -0.6341  0.1088
   6323SM  H12T 8096   4.167   4.922   5.990  0.6181 -0.4379 -0.5814
   6323SM  C13S 8097   4.309   5.010   5.854  0.2027  0.0155  0.6920
   6323SM  H13S 8098   4.367   4.915   5.857 -3.3738 -2.3904 -0.1969
   6323SM  H13T 8099   4.375   5.100   5.855 -0.2249  0.3360  0.1407
   6323SM  C14S 8100   4.227   5.014   5.726  0.5860 -0.7483 -0.6471
   6323SM  H14S 8101   4.173   5.111   5.726 -1.1531 -1.6594 -1.3828
   6323SM  H14T 8102   4.148   4.936   5.713 -1.0520  0.5846  0.8481
   6323SM  C15S 8103   4.293   5.008   5.582  0.2307 -0.3982 -0.0117
   6323SM  H15S 8104   4.360   4.920   5.596  1.9671  0.6979 -1.1065
   6323SM  H15T 8105   4.352   5.101   5.568 -0.6818  0.2162  0.1721
   6323SM  C16S 8106   4.192   4.979   5.469 -0.2490  0.1213 -0.3547
   6323SM  H16S 8107   4.123   5.066   5.468  0.7910  0.9706 -0.1645
   6323SM  H16T 8108   4.140   4.885   5.496 -0.9636  0.9991  1.4904
   6323SM  C17S 8109   4.263   4.972   5.335  0.0107  0.0937 -0.2084
   6323SM  H17S 8110   4.353   4.909   5.351  0.7916  1.2285 -0.0650
   6323SM  H17T 8111   4.306   5.073   5.320  0.0974  0.1419  0.3397
   6323SM  C18S 8112   4.180   4.918   5.208 -0.5300 -0.7602  0.0831
   6323SM  H18S 8113   4.102   4.993   5.186 -0.0549 -0.1059  0.5871
   6323SM  H18T 8114   4.133   4.819   5.226 -0.0932 -0.8391  0.8159
   6323SM  H18U 8115   4.255   4.915   5.126  0.0571 -2.5574  0.6385
   6323SM   C1F 8116   4.914   4.653   6.894  0.4576  0.4807  0.9731
   6323SM    OF 8117   4.930   4.580   6.990  0.5995  0.6410 -0.1942
   6323SM   C2F 8118   4.990   4.626   6.761 -0.7429 -0.3360 -0.7771
   6323SM   H2F 8119   5.070   4.701   6.744 -0.6966 -0.3612 -0.6698
   6323SM   H2G 8120   4.920   4.640   6.676  0.2571 -0.5454 -1.6645
   6323SM   C3F 8121   5.051   4.487   6.768 -0.6585  0.2344 -0.2694
   6323SM   H3F 8122   4.960   4.423   6.766 -1.8831  1.8754 -2.7060
   6323SM   H3G 8123   5.116   4.472   6.856  0.0358  0.7319 -0.6892
   6323SM   C4F 8124   5.134   4.458   6.639 -0.0814 -0.0787 -0.6170
   6323SM   H4F 8125   5.232   4.510   6.640  0.6379 -1.4008 -0.4802
   6323SM   H4G 8126   5.075   4.504   6.556 -1.9922 -0.6879  0.3453
   6323SM   C5F 8127   5.141   4.308   6.611 -0.3697  0.1010 -0.2588
   6323SM   H5F 8128   5.036   4.272   6.621 -0.9329  2.1158  2.1481
   6323SM   H5G 8129   5.190   4.248   6.691 -2.2140 -1.3361 -0.1209
   6323SM   C6F 8130   5.207   4.274   6.478 -0.5374 -0.3432 -0.5938
   6323SM   H6F 8131   5.232   4.166   6.489 -2.5768 -0.7039  1.0900
   6323SM   H6G 8132   5.303   4.328   6.467  0.7206 -2.5165 -0.7444
   6323SM   C7F 8133   5.117   4.303   6.358 -0.1161  0.1328 -0.5157
   6323SM   H7F 8134   5.112   4.414   6.351 -1.3518  0.1458  0.2429
   6323SM   H7G 8135   5.020   4.253   6.375  0.9553 -1.2424  1.9800
   6323SM   C8F 8136   5.178   4.242   6.231  0.1145 -0.1532  0.2988
   6323SM   H8F 8137   5.183   4.131   6.233  0.9591 -0.1252  0.0739
   6323SM   H8G 8138   5.277   4.289   6.216 -0.4150  0.3706 -1.9017
   6323SM   C9F 8139   5.116   4.286   6.095 -0.6801  0.1188 -0.2368
   6323SM   H9F 8140   5.192   4.294   6.015 -1.6360 -0.6830 -1.2764
   6323SM   H9G 8141   5.066   4.385   6.102 -2.0900 -0.6273  0.9793
   6323SM  C10F 8142   5.012   4.181   6.054 -0.7540 -0.2038 -0.0699
   6323SM  H10F 8143   4.943   4.164   6.140 -2.0748  0.6812 -0.9154
   6323SM  H10G 8144   5.056   4.087   6.013 -1.0411  0.6266 -2.4366
   6323SM  C11F 8145   4.922   4.244   5.947 -0.3820 -0.7290 -0.1384
   6323SM  H11F 8146   4.975   4.263   5.851  0.4053 -1.7981  0.0724
   6323SM  H11G 8147   4.891   4.342   5.989  1.8850  0.4153 -0.9799
   6323SM  C12F 8148   4.788   4.178   5.914  0.7140  0.0575 -0.6388
   6323SM  H12F 8149   4.726   4.165   6.005 -0.0799  1.3963 -0.9543
   6323SM  H12G 8150   4.814   4.078   5.872 -0.0555 -0.3557 -0.1558
   6323SM  C13F 8151   4.718   4.254   5.806  0.5605 -0.5274 -0.0913
   6323SM  H13F 8152   4.793   4.258   5.724 -0.7427 -0.8635 -1.3470
   6323SM  H13G 8153   4.680   4.355   5.832 -1.0787 -1.3785  0.9390
   6323SM  C14F 8154   4.602   4.169   5.747  0.0233 -0.6760  0.2453
   6323SM  H14F 8155   4.642   4.066   5.738  1.3276 -0.2244  0.5929
   6323SM  H14G 8156   4.580   4.213   5.648  0.4459 -0.2688  0.3287
   6323SM  C15F 8157   4.477   4.148   5.838  0.3747  0.8842 -0.0361
   6323SM  H15F 8158   4.437   4.247   5.869 -0.4081  0.5751 -0.0558
   6323SM  H15G 8159   4.502   4.076   5.918  2.1068  0.9771 -0.4447
   6323SM  C16F 8160   4.350   4.093   5.768  0.3785  0.6576  0.6165
   6323SM  H16F 8161   4.367   3.996   5.718  0.3666  2.4000 -3.0571
   6323SM  H16G 8162   4.327   4.170   5.692  1.0528 -0.0081 -0.2760
   6323SM  C17F 8163   4.226   4.087   5.860 -0.3015 -0.0286 -0.2777
   6323SM  H17F 8164   4.204   4.190   5.896  0.4272  0.1558 -0.3279
   6323SM  H17G 8165   4.253   4.015   5.941  1.9936 -0.1305 -1.0493
   6323SM  C18F 8166   4.090   4.048   5.790  0.0160 -0.5724 -0.2871
   6323SM  H18F 8167   4.088   4.080   5.684  2.4019  0.1342 -0.1722
   6323SM  H18G 8168   4.002   4.098   5.836  1.3683  2.3987 -0.7252
   6323SM  C19F 8169   4.066   3.894   5.792 -0.1712 -1.1696  0.7761
   6323SM  H19F 8170   4.049   3.854   5.895  1.5612  0.5969  1.8141
   6323SM  H19G 8171   4.148   3.837   5.743  0.1704 -0.7682  0.8830
   6323SM  C20F 8172   3.936   3.865   5.709 -0.2854 -0.4119  0.1520
   6323SM  H20F 8173   3.965   3.885   5.604 -0.2278 -0.7869  0.0950
   6323SM  H20G 8174   3.862   3.944   5.733  1.5099  1.7108 -0.9110
   6323SM  C21F 8175   3.890   3.721   5.723 -0.2371 -0.3198  0.3065
   6323SM  H21F 8176   3.866   3.698   5.830  1.7821 -0.6324  0.7282
   6323SM  H21G 8177   3.976   3.655   5.702  0.4502  0.4932  0.5272
   6323SM  C22F 8178   3.778   3.685   5.634  0.4305  0.0003  0.3623
   6323SM  H22F 8179   3.695   3.759   5.636  0.0531 -0.4295  0.8163
   6323SM  H22G 8180   3.734   3.585   5.656 -3.1810  1.3219 -0.0650
   6323SM  C23F 8181   3.828   3.690   5.487  0.0135  0.3077 -0.5350
   6323SM  H23F 8182   3.861   3.792   5.461 -0.5952  0.5805 -0.2468
   6323SM  H23G 8183   3.738   3.665   5.427  0.8636 -1.5033 -1.1447
   6323SM  H23H 8184   3.907   3.613   5.470 -2.5435 -2.4932 -0.6256
   6423SM     N 8185   5.163   3.656   7.396  0.1709  0.1229  0.4532
   6423SM   C15 8186   5.132   3.600   7.257  0.3578  0.3172 -0.0346
   6423SM  H15A 8187   5.029   3.587   7.228  0.7323 -2.2665 -0.4409
   6423SM  H15B 8188   5.158   3.495   7.256  2.8500  0.8527  0.8421
   6423SM  H15C 8189   5.184   3.658   7.183  1.0653 -0.8229 -0.4592
   6423SM   C14 8190   5.141   3.811   7.388 -0.3546 -0.0517 -0.0792
   6423SM  H14A 8191   5.042   3.841   7.358 -0.9557 -1.9596 -0.1794
   6423SM  H14B 8192   5.205   3.846   7.308 -1.7676  0.1029 -1.1850
   6423SM  H14C 8193   5.172   3.855   7.481 -0.1135 -0.5973  0.0998
   6423SM   C13 8194   5.071   3.601   7.496  0.2728 -0.0870  0.1041
   6423SM  H13A 8195   5.103   3.506   7.537 -1.5931 -1.6704 -1.8330
   6423SM  H13B 8196   4.970   3.591   7.458 -0.5332 -2.4136  2.5186
   6423SM  H13C 8197   5.061   3.667   7.581 -0.1179  1.5056 -1.1329
   6423SM   C12 8198   5.307   3.617   7.424 -0.5486 -0.2793 -0.0540
   6423SM  H12A 8199   5.362   3.619   7.331 -1.3896 -1.2482 -0.5895
   6423SM  H12B 8200   5.298   3.511   7.441 -1.9560 -0.2171 -0.3322
   6423SM   C11 8201   5.377   3.690   7.535 -0.2415 -0.0287 -0.2163
   6423SM  H11A 8202   5.475   3.637   7.538 -2.1765 -3.9719  0.7282
   6423SM  H11B 8203   5.322   3.674   7.630 -1.4560 -1.2062 -1.0840
   6423SM     P 8204   5.521   3.895   7.441  0.3382  0.5690 -0.0058
   6423SM   O13 8205   5.481   4.026   7.383  0.6103  0.2710  0.2795
   6423SM   O14 8206   5.633   3.893   7.538 -0.2187 -0.6222 -0.1728
   6423SM   O11 8207   5.552   3.797   7.319  0.0434 -0.1608 -0.2974
   6423SM   O12 8208   5.391   3.836   7.509 -0.0273 -0.3628 -0.0618
   6423SM   C1S 8209   5.484   3.818   7.196  0.9006 -0.0359 -0.1328
   6423SM   H1S 8210   5.466   3.925   7.172 -0.4016 -0.1340  0.3417
   6423SM   H1T 8211   5.380   3.783   7.208  0.9007  0.4855  1.8175
   6423SM    NF 8212   5.498   3.782   6.939  0.0150  0.2056  0.4845
   6423SM   HNF 8213   5.414   3.738   6.909  1.7281 -1.6608 -1.8897
   6423SM   C2S 8214   5.543   3.735   7.076  0.1112  0.1198 -0.1418
   6423SM   H2S 8215   5.653   3.747   7.079 -0.0226  1.1794  1.2946
   6423SM   C3S 8216   5.513   3.588   7.096  0.2455 -1.4079 -0.6573
   6423SM   H3S 8217   5.408   3.564   7.123 -0.2304  0.1922 -0.9795
   6423SM    O3 8218   5.580   3.544   7.213 -0.1463  0.0391  0.3733
   6423SM   HO3 8219   5.602   3.628   7.255 -0.1916 -0.6725  1.8833
   6423SM   C4S 8220   5.577   3.502   6.987 -0.3524  0.1883  0.5048
   6423SM   H4S 8221   5.673   3.458   7.016  1.3345  2.2668 -1.5173
   6423SM   C5S 8222   5.522   3.458   6.869  0.8885 -0.3144 -0.3783
   6423SM   H5S 8223   5.422   3.499   6.851  1.0551  0.7257  0.9278
   6423SM   C6S 8224   5.581   3.373   6.759 -0.1084  0.6996 -0.0947
   6423SM   H6S 8225   5.512   3.297   6.716  2.3118 -0.7910 -1.5771
   6423SM   H6T 8226   5.664   3.311   6.798  0.2858  1.2102 -0.1103
   6423SM   C7S 8227   5.633   3.459   6.640 -0.6932 -0.1451 -0.0774
   6423SM   H7S 8228   5.656   3.384   6.561 -0.3473 -1.0155  0.8161
   6423SM   H7T 8229   5.734   3.503   6.657 -0.7593  1.0531 -2.4195
   6423SM   C8S 8230   5.534   3.566   6.598 -0.1246  0.0244 -0.2346
   6423SM   H8S 8231   5.540   3.659   6.659 -1.1447 -0.7475  1.0864
   6423SM   H8T 8232   5.429   3.530   6.591  0.2082 -1.4272  1.4478
   6423SM   C9S 8233   5.562   3.612   6.461  0.1580 -0.0091  0.1564
   6423SM   H9S 8234   5.565   3.518   6.401  0.3271 -1.0148  1.6800
   6423SM   H9T 8235   5.662   3.660   6.458 -0.1951  0.6910 -0.7908
   6423SM  C10S 8236   5.457   3.711   6.403 -0.9012  0.1327 -0.1094
   6423SM  H10S 8237   5.519   3.785   6.348 -1.6546  0.6757 -0.2363
   6423SM  H10T 8238   5.416   3.764   6.491 -1.6511  1.6809 -1.3319
   6423SM  C11S 8239   5.350   3.657   6.312 -0.2543  0.0541 -0.5280
   6423SM  H11S 8240   5.301   3.574   6.368  1.4219  0.1294  1.1446
   6423SM  H11T 8241   5.391   3.619   6.216 -0.2650  0.6010 -0.7526
   6423SM  C12S 8242   5.245   3.758   6.272 -0.8929  0.4178  0.9476
   6423SM  H12S 8243   5.284   3.840   6.208 -0.7681  0.0726  0.5777
   6423SM  H12T 8244   5.186   3.801   6.355 -1.7162 -0.0026  0.5935
   6423SM  C13S 8245   5.129   3.697   6.189  0.4610 -0.0923  0.3347
   6423SM  H13S 8246   5.089   3.609   6.245 -1.1386  0.2480 -0.2091
   6423SM  H13T 8247   5.173   3.652   6.097 -1.1502 -2.6599  0.6980
   6423SM  C14S 8248   5.003   3.782   6.160 -0.3348  0.1468 -0.2837
   6423SM  H14S 8249   4.921   3.725   6.112 -0.0087 -1.6327  1.1802
   6423SM  H14T 8250   5.022   3.877   6.104 -0.3477  0.1252 -0.3248
   6423SM  C15S 8251   4.923   3.826   6.289  0.1367  0.2641  0.0837
   6423SM  H15S 8252   4.972   3.911   6.340  2.6237  1.1453 -3.3786
   6423SM  H15T 8253   4.899   3.742   6.358  3.6031 -0.0397  1.1306
   6423SM  C16S 8254   4.783   3.885   6.250 -1.2796 -0.0662 -0.5654
   6423SM  H16S 8255   4.743   3.823   6.166 -2.0404 -0.6270  0.1954
   6423SM  H16T 8256   4.790   3.990   6.214  1.4993 -0.1532 -0.4998
   6423SM  C17S 8257   4.677   3.892   6.366 -0.8550 -0.4343 -0.2515
   6423SM  H17S 8258   4.719   3.955   6.447 -1.0563 -0.5377 -0.0668
   6423SM  H17T 8259   4.659   3.797   6.420 -0.4205  0.1898  1.0305
   6423SM  C18S 8260   4.547   3.948   6.315  0.0119 -0.7248  0.0361
   6423SM  H18S 8261   4.487   3.868   6.265 -0.5233 -0.6179  0.5013
   6423SM  H18T 8262   4.552   4.027   6.237 -1.1208 -0.0134  0.6645
   6423SM  H18U 8263   4.479   3.979   6.397 -0.9937  0.7835 -1.3017
   6423SM   C1F 8264   5.523   3.903   6.893 -0.1433  0.0626 -0.5363
   6423SM    OF 8265   5.593   3.986   6.957  0.1544 -0.1533  0.3465
   6423SM   C2F 8266   5.460   3.942   6.766 -0.0505 -0.2471  0.5042
   6423SM   H2F 8267   5.405   4.036   6.785 -0.3088 -0.2479 -0.2144
   6423SM   H2G 8268   5.396   3.857   6.732 -0.7991  1.0966 -1.6592
   6423SM   C3F 8269   5.576   3.969   6.662  0.5129 -0.3926 -0.1211
   6423SM   H3F 8270   5.633   3.874   6.648 -2.6892 -2.2766 -1.5718
   6423SM   H3G 8271   5.651   4.043   6.697 -0.0087 -0.2296  0.6739
   6423SM   C4F 8272   5.522   4.023   6.527 -0.1780 -0.0852 -0.1530
   6423SM   H4F 8273   5.474   4.120   6.553 -0.0343 -0.3049  1.0124
   6423SM   H4G 8274   5.439   3.961   6.486 -0.0681  0.3353 -1.0178
   6423SM   C5F 8275   5.631   4.045   6.418  0.9646 -0.0599  0.0232
   6423SM   H5F 8276   5.676   3.949   6.382  0.0521  0.1567 -1.8079
   6423SM   H5G 8277   5.712   4.101   6.469  0.0903  1.2185  0.0293
   6423SM   C6F 8278   5.565   4.128   6.305 -0.0459 -0.6422 -0.3887
   6423SM   H6F 8279   5.644   4.203   6.284  0.5079 -1.3244 -0.8103
   6423SM   H6G 8280   5.476   4.182   6.342 -0.8357 -0.2570 -2.6789
   6423SM   C7F 8281   5.528   4.036   6.185 -0.2130  0.0935  0.3997
   6423SM   H7F 8282   5.461   3.951   6.212 -2.6188  1.0559 -2.0454
   6423SM   H7G 8283   5.632   4.004   6.164 -1.5825 -2.2293 -4.2644
   6423SM   C8F 8284   5.472   4.118   6.067 -0.1434  0.2165 -0.0847
   6423SM   H8F 8285   5.502   4.221   6.096  2.2072 -0.8087  1.4364
   6423SM   H8G 8286   5.361   4.123   6.068 -0.1553 -0.0507  0.4053
   6423SM   C9F 8287   5.527   4.066   5.936 -0.2060 -0.8833 -0.3570
   6423SM   H9F 8288   5.515   3.955   5.937 -1.1794 -0.7834  0.2736
   6423SM   H9G 8289   5.631   4.100   5.921 -1.0261  1.6216 -0.9100
   6423SM  C10F 8290   5.446   4.118   5.816  1.1050 -0.7344  0.3856
   6423SM  H10F 8291   5.506   4.109   5.724 -1.3687 -0.8787 -1.3176
   6423SM  H10G 8292   5.433   4.227   5.829 -0.1068 -1.0240  1.9960
   6423SM  C11F 8293   5.314   4.037   5.788 -0.1534 -0.1740 -0.5238
   6423SM  H11F 8294   5.260   4.021   5.884 -2.9778 -1.0503 -2.1608
   6423SM  H11G 8295   5.344   3.941   5.741 -2.6854 -0.4621 -1.7010
   6423SM  C12F 8296   5.228   4.109   5.690 -0.5813  0.0111  0.1936
   6423SM  H12F 8297   5.285   4.143   5.601  1.3840  1.4852  1.9146
   6423SM  H12G 8298   5.178   4.199   5.734 -2.7425 -0.9329 -0.2115
   6423SM  C13F 8299   5.101   4.031   5.639 -0.2652  0.8628  0.3684
   6423SM  H13F 8300   5.051   3.978   5.723  2.4395 -3.0924 -0.2072
   6423SM  H13G 8301   5.138   3.950   5.572 -1.0616  0.8046 -0.0147
   6423SM  C14F 8302   5.006   4.104   5.538 -0.0719  0.2197  0.1865
   6423SM  H14F 8303   5.063   4.119   5.444  1.5189  1.4027  1.2803
   6423SM  H14G 8304   4.981   4.206   5.573  0.5819  0.7990 -0.9891
   6423SM  C15F 8305   4.876   4.030   5.512 -1.1531 -0.3939  0.3980
   6423SM  H15F 8306   4.815   4.031   5.605 -0.1945  0.6962  1.0438
   6423SM  H15G 8307   4.885   3.921   5.493 -1.9322 -0.5514  0.8934
   6423SM  C16F 8308   4.794   4.101   5.403  0.1208 -0.6472 -0.3688
   6423SM  H16F 8309   4.849   4.105   5.307 -0.2709 -1.7829 -0.6499
   6423SM  H16G 8310   4.775   4.207   5.432 -0.4880 -0.2342 -2.1797
   6423SM  C17F 8311   4.666   4.029   5.371 -0.4296  0.1625 -0.1275
   6423SM  H17F 8312   4.608   4.105   5.314  0.2842  0.1847 -0.8537
   6423SM  H17G 8313   4.605   3.994   5.457  0.3330  2.2184  1.3243
   6423SM  C18F 8314   4.685   3.912   5.284 -0.1897  0.3317  0.0028
   6423SM  H18F 8315   4.723   3.821   5.335  0.2118  0.7700  0.4801
   6423SM  H18G 8316   4.754   3.935   5.200  0.8211 -2.1923  0.0559
   6423SM  C19F 8317   4.556   3.866   5.219 -0.4224 -0.4658 -0.3533
   6423SM  H19F 8318   4.586   3.788   5.145 -0.9968 -0.1891 -0.8808
   6423SM  H19G 8319   4.514   3.947   5.156  0.2210  0.5088  0.4383
   6423SM  C20F 8320   4.450   3.814   5.317 -0.5892 -0.2455  0.8980
   6423SM  H20F 8321   4.420   3.904   5.375  1.3761  2.5609 -2.1207
   6423SM  H20G 8322   4.509   3.745   5.381  0.5719  0.5707  0.7243
   6423SM  C21F 8323   4.323   3.767   5.249  0.6916  0.6723  0.1660
   6423SM  H21F 8324   4.343   3.682   5.179  0.9303  0.8691 -0.0084
   6423SM  H21G 8325   4.271   3.838   5.182 -1.3227 -1.3074 -0.5138
   6423SM  C22F 8326   4.214   3.731   5.351 -0.2911  0.1782 -0.1543
   6423SM  H22F 8327   4.117   3.712   5.301 -1.2949  1.9354  1.0179
   6423SM  H22G 8328   4.198   3.827   5.405 -0.3168  0.5527 -0.8191
   6423SM  C23F 8329   4.249   3.621   5.459  0.1487  0.4620  0.6651
   6423SM  H23F 8330   4.312   3.541   5.415  0.4781  0.5380  0.9926
   6423SM  H23G 8331   4.159   3.574   5.503 -0.9197  0.4392 -1.4240
   6423SM  H23H 8332   4.304   3.665   5.545  0.2844 -0.5962  1.1428
   6523SM     N 8333   5.664   4.483   7.613  0.4349 -0.1620 -0.0296
   6523SM   C15 8334   5.631   4.368   7.520  0.3584  0.3929  0.2868
   6523SM  H15A 8335   5.599   4.280   7.573 -2.4816  1.5470  0.7026
   6523SM  H15B 8336   5.713   4.346   7.453 -0.6945  0.1763 -0.9813
   6523SM  H15C 8337   5.556   4.406   7.451 -1.0104  1.2732  2.1830
   6523SM   C14 8338   5.533   4.527   7.677  0.4487  0.3176 -0.0905
   6523SM  H14A 8339   5.548   4.615   7.738 -0.0755  0.0865  0.3722
   6523SM  H14B 8340   5.497   4.445   7.737 -0.1597  2.0542  2.0574
   6523SM  H14C 8341   5.458   4.554   7.605  1.1142  0.0677 -0.8925
   6523SM   C13 8342   5.764   4.437   7.712 -0.8320  1.0180 -0.5979
   6523SM  H13A 8343   5.722   4.377   7.791  0.0030 -0.2072 -1.0505
   6523SM  H13B 8344   5.806   4.514   7.775 -0.3996 -1.4828  2.3682
   6523SM  H13C 8345   5.838   4.384   7.654 -0.7202  0.4546  0.0604
   6523SM   C12 8346   5.718   4.594   7.529  0.5380 -0.3004  0.2403
   6523SM  H12A 8347   5.734   4.682   7.589 -0.2140 -0.0687  0.1042
   6523SM  H12B 8348   5.646   4.627   7.456 -0.0800 -0.7519  0.6370
   6523SM   C11 8349   5.859   4.568   7.464 -0.2249 -0.1756  0.1135
   6523SM  H11A 8350   5.933   4.562   7.546 -0.2624  1.4493  0.3006
   6523SM  H11B 8351   5.893   4.645   7.391 -0.6277 -1.6186 -1.6862
   6523SM     P 8352   5.964   4.338   7.392 -0.1023 -0.0376 -0.3612
   6523SM   O13 8353   6.069   4.349   7.289  0.3268 -0.4123  0.3353
   6523SM   O14 8354   6.013   4.324   7.534 -0.5622  0.4800 -0.4005
   6523SM   O11 8355   5.880   4.209   7.368  0.3520  0.1916  0.3368
   6523SM   O12 8356   5.860   4.455   7.383 -0.5505 -0.4897 -0.3077
   6523SM   C1S 8357   5.784   4.207   7.255 -0.7076 -0.0766  0.5246
   6523SM   H1S 8358   5.737   4.305   7.231  3.7852  2.3183  0.3539
   6523SM   H1T 8359   5.700   4.140   7.283  0.2484 -1.7825 -0.4834
   6523SM    NF 8360   5.775   4.181   7.010  0.3059 -0.3528  0.0682
   6523SM   HNF 8361   5.714   4.111   6.973  2.3308 -1.3441 -1.6326
   6523SM   C2S 8362   5.850   4.141   7.126  0.1576  0.5220  0.3775
   6523SM   H2S 8363   5.951   4.183   7.111  0.2592 -0.0014 -0.4682
   6523SM   C3S 8364   5.856   3.986   7.148  0.1611 -0.1173 -0.5640
   6523SM   H3S 8365   5.760   3.936   7.176  0.6424 -1.7211 -1.6347
   6523SM    O3 8366   5.930   3.956   7.266 -0.4831 -0.1447  0.1798
   6523SM   HO3 8367   5.938   4.046   7.298  1.0119  0.0243 -0.5648
   6523SM   C4S 8368   5.902   3.915   7.025 -0.6074 -0.1542 -0.0770
   6523SM   H4S 8369   5.822   3.889   6.954 -0.5600 -0.5594  0.0128
   6523SM   C5S 8370   6.032   3.879   6.991  0.1290  0.0152  0.7176
   6523SM   H5S 8371   6.118   3.905   7.054  0.2103  1.4245  0.0590
   6523SM   C6S 8372   6.077   3.817   6.862  0.5786  0.4820 -0.6325
   6523SM   H6S 8373   6.115   3.715   6.883  1.6941  1.2044  1.2476
   6523SM   H6T 8374   6.171   3.870   6.836  1.1676  1.0749  2.3138
   6523SM   C7S 8375   5.981   3.802   6.744 -0.5466 -0.6693  0.2201
   6523SM   H7S 8376   5.954   3.905   6.714  0.3672  0.3537  2.5969
   6523SM   H7T 8377   5.888   3.746   6.766 -1.1479 -0.3676 -1.4211
   6523SM   C8S 8378   6.041   3.731   6.622  0.0450  0.3335 -0.1065
   6523SM   H8S 8379   6.066   3.627   6.653 -0.8237  0.5688  1.5032
   6523SM   H8T 8380   6.141   3.774   6.601  0.6788 -1.0524 -0.0753
   6523SM   C9S 8381   5.955   3.746   6.496 -0.2215  0.7647  0.4748
   6523SM   H9S 8382   5.852   3.769   6.530 -0.5491  1.6259 -1.0220
   6523SM   H9T 8383   5.960   3.652   6.437 -0.0625 -0.4219  2.3010
   6523SM  C10S 8384   6.000   3.856   6.402 -0.5962 -0.2908 -0.4441
   6523SM  H10S 8385   6.111   3.848   6.401 -0.6068 -2.2665  2.5040
   6523SM  H10T 8386   5.975   3.951   6.454  0.9751  0.1847 -0.4954
   6523SM  C11S 8387   5.952   3.850   6.255 -0.5694  0.4454  0.2464
   6523SM  H11S 8388   5.843   3.834   6.241 -0.0282 -2.6247 -1.3883
   6523SM  H11T 8389   6.011   3.774   6.198 -3.4643 -0.8692 -1.2216
   6523SM  C12S 8390   6.004   3.979   6.192 -0.7824 -1.4162  0.2575
   6523SM  H12S 8391   6.112   3.992   6.217 -0.7053  1.1719 -1.1345
   6523SM  H12T 8392   5.966   4.074   6.236  0.7548 -0.4518 -0.3936
   6523SM  C13S 8393   5.954   3.997   6.045  0.1860 -0.3287 -0.5947
   6523SM  H13S 8394   5.982   4.100   6.015 -0.7368  0.4129  1.0275
   6523SM  H13T 8395   5.843   4.003   6.040  0.2366  0.5961 -0.7267
   6523SM  C14S 8396   6.012   3.888   5.946 -0.4385 -0.0954 -0.4858
   6523SM  H14S 8397   6.001   3.788   5.993  0.5499  0.2457  0.5225
   6523SM  H14T 8398   6.122   3.902   5.956  0.0414 -3.9709  2.1687
   6523SM  C15S 8399   5.968   3.884   5.800 -0.9538 -0.8034  0.1815
   6523SM  H15S 8400   6.014   3.792   5.760  3.8938  1.0518  0.8381
   6523SM  H15T 8401   6.015   3.966   5.741 -3.3236  1.7887  1.6304
   6523SM  C16S 8402   5.815   3.873   5.782  0.2655  0.2643 -0.3583
   6523SM  H16S 8403   5.769   3.961   5.831  0.4672 -0.1322  0.5592
   6523SM  H16T 8404   5.778   3.787   5.842 -0.4793 -0.1257 -1.3571
   6523SM  C17S 8405   5.764   3.846   5.643  0.1782 -0.6250  0.3025
   6523SM  H17S 8406   5.824   3.765   5.596 -0.4446 -0.4535 -0.8192
   6523SM  H17T 8407   5.776   3.941   5.587 -2.4515  0.9891  2.2859
   6523SM  C18S 8408   5.619   3.817   5.631  0.8109 -0.0749 -0.4739
   6523SM  H18S 8409   5.596   3.734   5.702 -0.9495  2.7660  2.5519
   6523SM  H18T 8410   5.590   3.787   5.528  1.0607  0.1792 -0.6179
   6523SM  H18U 8411   5.548   3.897   5.662 -1.2021 -0.9979 -2.4057
   6523SM   C1F 8412   5.780   4.301   6.956  0.4831  0.3758 -0.3842
   6523SM    OF 8413   5.837   4.396   7.013 -0.0453 -0.0342 -0.1853
   6523SM   C2F 8414   5.712   4.324   6.823  0.2116  0.1492 -0.1823
   6523SM   H2F 8415   5.614   4.273   6.827 -0.2855  1.1560  1.4435
   6523SM   H2G 8416   5.776   4.276   6.746  0.5081 -0.6621  0.5609
   6523SM   C3F 8417   5.701   4.470   6.788  0.0017 -0.2832  0.7111
   6523SM   H3F 8418   5.805   4.509   6.789  0.0433 -0.3351 -0.1788
   6523SM   H3G 8419   5.643   4.530   6.861  2.2928  2.4860  0.4235
   6523SM   C4F 8420   5.640   4.515   6.649 -0.3061 -0.6904  0.7433
   6523SM   H4F 8421   5.535   4.478   6.640 -0.2121 -1.2589  1.7399
   6523SM   H4G 8422   5.703   4.462   6.574  1.7814 -0.3441  2.1654
   6523SM   C5F 8423   5.638   4.672   6.629  0.2851  0.6306  0.2221
   6523SM   H5F 8424   5.743   4.705   6.637 -0.8130  5.2849 -1.4029
   6523SM   H5G 8425   5.581   4.712   6.715  0.2528  1.5023 -0.1967
   6523SM   C6F 8426   5.571   4.721   6.501 -0.2476 -0.2216  0.7363
   6523SM   H6F 8427   5.639   4.704   6.414  0.8680  0.2210  1.4945
   6523SM   H6G 8428   5.555   4.831   6.500 -0.0024 -0.1862  0.2446
   6523SM   C7F 8429   5.435   4.655   6.477  0.3629 -0.0611  0.0889
   6523SM   H7F 8430   5.368   4.682   6.562 -0.6240  0.8168 -0.9436
   6523SM   H7G 8431   5.455   4.546   6.473 -1.1233 -0.3896  0.8767
   6523SM   C8F 8432   5.359   4.712   6.358  0.5635  0.5023 -0.2633
   6523SM   H8F 8433   5.381   4.820   6.346 -0.7804  0.5830 -2.4170
   6523SM   H8G 8434   5.249   4.708   6.368  0.5530  1.1542 -0.0642
   6523SM   C9F 8435   5.415   4.650   6.232 -0.3294  0.2070 -0.0697
   6523SM   H9F 8436   5.373   4.548   6.213 -0.0868  0.0447  0.2484
   6523SM   H9G 8437   5.523   4.642   6.253 -0.1068 -0.4434 -1.3642
   6523SM  C10F 8438   5.388   4.730   6.103 -0.4000 -0.4166  0.2795
   6523SM  H10F 8439   5.416   4.660   6.022  0.7254  0.9915 -0.5756
   6523SM  H10G 8440   5.450   4.821   6.090 -0.7449 -0.2137  0.0506
   6523SM  C11F 8441   5.248   4.766   6.074 -0.0215  0.6921  0.7571
   6523SM  H11F 8442   5.226   4.857   6.133 -1.9042  1.6547 -1.2994
   6523SM  H11G 8443   5.187   4.678   6.105  1.4452 -0.0998  1.5287
   6523SM  C12F 8444   5.218   4.808   5.928 -0.2859  0.0084  0.2893
   6523SM  H12F 8445   5.270   4.905   5.915 -2.4224  1.1141 -0.6055
   6523SM  H12G 8446   5.112   4.838   5.913 -0.1840  1.5961  2.3483
   6523SM  C13F 8447   5.247   4.698   5.813 -0.4633 -0.6189 -0.4130
   6523SM  H13F 8448   5.191   4.604   5.831 -0.3978 -0.6900 -0.5771
   6523SM  H13G 8449   5.353   4.663   5.810 -0.4150 -0.4225 -1.4969
   6523SM  C14F 8450   5.218   4.761   5.669  0.7461  0.4151  0.2555
   6523SM  H14F 8451   5.297   4.837   5.654  0.4924  1.5413  3.8198
   6523SM  H14G 8452   5.118   4.810   5.668  1.6427  2.2988 -0.5810
   6523SM  C15F 8453   5.231   4.658   5.556 -0.1539  0.3409 -0.1098
   6523SM  H15F 8454   5.339   4.631   5.553  0.1087  1.4569 -1.1808
   6523SM  H15G 8455   5.213   4.715   5.462  0.9776  1.3240  0.2494
   6523SM  C16F 8456   5.134   4.538   5.566 -0.6670  0.0860 -0.6818
   6523SM  H16F 8457   5.030   4.566   5.592 -1.0852 -0.9004 -1.2344
   6523SM  H16G 8458   5.167   4.473   5.650 -1.2660  1.6844  0.8581
   6523SM  C17F 8459   5.131   4.450   5.442 -0.0638  0.4036  0.2897
   6523SM  H17F 8460   5.175   4.350   5.465  2.6355  1.4447  0.0276
   6523SM  H17G 8461   5.196   4.484   5.358  0.0927 -1.9533 -0.6196
   6523SM  C18F 8462   4.990   4.441   5.387  0.7022 -0.5491 -0.1194
   6523SM  H18F 8463   4.916   4.428   5.468  1.4892 -2.3884  0.3563
   6523SM  H18G 8464   4.981   4.361   5.309  1.7949 -1.5427  0.7354
   6523SM  C19F 8465   4.949   4.572   5.322 -0.7318 -0.1532  0.2582
   6523SM  H19F 8466   5.017   4.610   5.243 -1.9923 -1.0396 -1.3104
   6523SM  H19G 8467   4.934   4.645   5.404  0.7431  0.2156  0.2244
   6523SM  C20F 8468   4.815   4.561   5.251  0.9183 -0.3305 -0.0751
   6523SM  H20F 8469   4.763   4.480   5.306 -1.2314  0.5351 -0.7187
   6523SM  H20G 8470   4.815   4.511   5.152 -3.3772 -1.1575  0.1742
   6523SM  C21F 8471   4.751   4.701   5.215 -0.0662 -0.6980 -0.0766
   6523SM  H21F 8472   4.657   4.676   5.162 -0.2994  0.7478 -0.3743
   6523SM  H21G 8473   4.807   4.762   5.141 -1.2419 -0.5528 -0.8679
   6523SM  C22F 8474   4.706   4.788   5.345  0.6721  0.1555  0.3689
   6523SM  H22F 8475   4.648   4.871   5.299  1.7255  0.0883 -1.1707
   6523SM  H22G 8476   4.786   4.839   5.403 -0.4840  3.1769 -0.4845
   6523SM  C23F 8477   4.612   4.712   5.446  0.5217  0.1527  0.4571
   6523SM  H23F 8478   4.531   4.650   5.401  0.4445 -1.5453  2.7238
   6523SM  H23G 8479   4.560   4.772   5.523 -1.4484 -0.0710 -0.6365
   6523SM  H23H 8480   4.687   4.638   5.481 -1.4823 -1.4756  1.5530
   6623SM     N 8481   3.572   2.237   7.842  0.9215 -0.1524 -0.3526
   6623SM   C15 8482   3.703   2.199   7.803  0.1368 -0.2064  0.2363
   6623SM  H15A 8483   3.741   2.260   7.723  2.2371 -2.5500 -0.6719
   6623SM  H15B 8484   3.715   2.098   7.768  2.2621  1.0158 -3.0550
   6623SM  H15C 8485   3.773   2.215   7.884  0.4787 -1.7182  0.2659
   6623SM   C14 8486   3.482   2.214   7.725  0.8679  0.2054 -0.1295
   6623SM  H14A 8487   3.508   2.127   7.666  1.2306  0.2314 -0.0118
   6623SM  H14B 8488   3.490   2.299   7.660 -0.7774 -0.9376 -1.9516
   6623SM  H14C 8489   3.376   2.203   7.744  0.2082 -0.1082 -3.3477
   6623SM   C13 8490   3.527   2.147   7.954  0.1518 -0.0920 -0.0315
   6623SM  H13A 8491   3.554   2.048   7.919  0.4117  0.7581 -2.3758
   6623SM  H13B 8492   3.419   2.151   7.954  0.0668 -1.5501  0.4327
   6623SM  H13C 8493   3.577   2.177   8.046  0.7647 -0.2262 -0.3126
   6623SM   C12 8494   3.567   2.385   7.885  0.1640 -0.5769  0.0621
   6623SM  H12A 8495   3.644   2.403   7.958  1.7364  2.1375 -2.0560
   6623SM  H12B 8496   3.471   2.401   7.932  0.3539  1.7865 -0.2293
   6623SM   C11 8497   3.587   2.497   7.784 -0.6376  0.1431 -0.5467
   6623SM  H11A 8498   3.683   2.490   7.728  1.5684  0.7510  2.8535
   6623SM  H11B 8499   3.604   2.592   7.840 -0.3716  1.0212 -2.0574
   6623SM     P 8500   3.498   2.546   7.540 -0.0388  0.0338  0.4465
   6623SM   O13 8501   3.364   2.571   7.480 -0.5325  0.4756 -0.0944
   6623SM   O14 8502   3.591   2.659   7.527 -0.1029  0.1484  0.2176
   6623SM   O11 8503   3.561   2.422   7.474  0.7875  0.5965  0.0398
   6623SM   O12 8504   3.478   2.509   7.690 -0.2332 -0.4967 -0.6099
   6623SM   C1S 8505   3.486   2.320   7.402 -0.1124  0.0812  0.6581
   6623SM   H1S 8506   3.392   2.355   7.355  0.7084  2.0356  0.3966
   6623SM   H1T 8507   3.446   2.241   7.469 -0.1978 -0.7989 -0.4092
   6623SM    NF 8508   3.522   2.165   7.218 -0.2343 -1.0416 -0.1284
   6623SM   HNF 8509   3.555   2.071   7.217 -1.0943 -1.3485 -1.4585
   6623SM   C2S 8510   3.589   2.254   7.309  0.2771  0.2130  0.2212
   6623SM   H2S 8511   3.649   2.322   7.244 -1.6373 -0.0816 -1.9848
   6623SM   C3S 8512   3.689   2.171   7.395 -0.1132  0.2350  0.6152
   6623SM   H3S 8513   3.628   2.087   7.436 -2.1724  0.7143 -1.2292
   6623SM    O3 8514   3.748   2.242   7.504 -0.2198 -0.7501  0.1345
   6623SM   HO3 8515   3.699   2.324   7.502 -2.0580 -1.8040 -0.5053
   6623SM   C4S 8516   3.796   2.112   7.301 -0.6409  0.1989 -0.4632
   6623SM   H4S 8517   3.854   2.194   7.255 -0.1568 -0.3885 -0.9103
   6623SM   C5S 8518   3.832   1.987   7.273  0.4184 -0.4689  0.1373
   6623SM   H5S 8519   3.779   1.902   7.319 -0.5728 -0.3559 -0.7535
   6623SM   C6S 8520   3.946   1.963   7.177 -0.2372  0.5273 -0.0121
   6623SM   H6S 8521   3.982   1.858   7.175  3.6870  1.6997  0.3245
   6623SM   H6T 8522   4.032   2.021   7.216  1.0363 -0.9847 -0.4580
   6623SM   C7S 8523   3.911   2.007   7.037  0.0357 -0.0022  0.0864
   6623SM   H7S 8524   4.002   2.032   6.977 -0.2472  0.8030 -0.0211
   6623SM   H7T 8525   3.851   2.100   7.038  0.8709  0.6676 -2.6892
   6623SM   C8S 8526   3.824   1.901   6.963 -0.1015 -0.1037 -0.1563
   6623SM   H8S 8527   3.721   1.893   7.002  0.2118  0.9769  0.9560
   6623SM   H8T 8528   3.877   1.806   6.987  0.0919  0.4831  1.9291
   6623SM   C9S 8529   3.828   1.932   6.808  0.0074  0.0301  0.0917
   6623SM   H9S 8530   3.931   1.918   6.771  0.1407 -0.6018  0.6890
   6623SM   H9T 8531   3.794   2.038   6.805 -2.3236 -0.6344  0.9946
   6623SM  C10S 8532   3.735   1.838   6.740  0.2982 -0.0329 -0.5040
   6623SM  H10S 8533   3.637   1.850   6.792  0.6764 -1.9020  0.7305
   6623SM  H10T 8534   3.778   1.737   6.755  1.0563  0.4137  0.3843
   6623SM  C11S 8535   3.723   1.875   6.593 -0.8694 -0.3566  0.4283
   6623SM  H11S 8536   3.684   1.979   6.587 -2.3032 -0.9405 -1.2745
   6623SM  H11T 8537   3.651   1.819   6.529  0.2036  0.2386 -1.3916
   6623SM  C12S 8538   3.854   1.871   6.515 -0.0838 -0.5869  0.5582
   6623SM  H12S 8539   3.835   1.819   6.419  2.6087 -0.6937 -0.0110
   6623SM  H12T 8540   3.935   1.819   6.570 -0.7204 -2.1028  0.1071
   6623SM  C13S 8541   3.909   2.013   6.501  0.1752 -0.1073 -0.7655
   6623SM  H13S 8542   3.883   2.070   6.593 -2.2602  0.4973 -1.7686
   6623SM  H13T 8543   3.862   2.064   6.415  0.8690  1.5657 -0.1877
   6623SM  C14S 8544   4.056   2.010   6.483  0.4118 -0.0598 -0.1148
   6623SM  H14S 8545   4.099   1.948   6.565 -0.7454  3.5655  3.5277
   6623SM  H14T 8546   4.093   2.114   6.495 -0.5234  0.1955  0.6797
   6623SM  C15S 8547   4.104   1.969   6.340 -0.4575 -0.0191 -0.5251
   6623SM  H15S 8548   4.041   2.007   6.256 -0.6527  0.9528  0.0436
   6623SM  H15T 8549   4.103   1.859   6.350  1.9127  0.1389  3.9413
   6623SM  C16S 8550   4.251   2.007   6.320  0.2582 -0.5465  0.4804
   6623SM  H16S 8551   4.306   1.960   6.405  1.3784 -0.0899  0.0328
   6623SM  H16T 8552   4.261   2.115   6.343  1.6537 -0.4666 -0.3887
   6623SM  C17S 8553   4.305   1.998   6.179  1.1556 -0.4347 -0.4034
   6623SM  H17S 8554   4.400   2.052   6.156  1.3582  0.1787  1.6320
   6623SM  H17T 8555   4.225   2.043   6.117  1.2368  0.0524 -0.1612
   6623SM  C18S 8556   4.330   1.858   6.134  0.1588 -0.0001 -0.2655
   6623SM  H18S 8557   4.350   1.856   6.024 -0.5070  0.8003 -0.4098
   6623SM  H18T 8558   4.247   1.789   6.159  1.2246 -1.2171  0.0305
   6623SM  H18U 8559   4.419   1.812   6.181 -0.9725 -1.3804  0.6141
   6623SM   C1F 8560   3.409   2.183   7.137  0.0808  0.6838  0.5686
   6623SM    OF 8561   3.352   2.287   7.135  0.9851 -0.0050  0.2370
   6623SM   C2F 8562   3.370   2.066   7.052 -0.6395 -0.2755  0.0851
   6623SM   H2F 8563   3.260   2.052   7.057 -0.7378  0.8243  1.6259
   6623SM   H2G 8564   3.412   1.978   7.106  0.7805  1.4439  1.8879
   6623SM   C3F 8565   3.430   2.084   6.908 -0.5534 -0.2281  0.8072
   6623SM   H3F 8566   3.425   1.986   6.857 -2.0089 -0.1378  0.7504
   6623SM   H3G 8567   3.539   2.105   6.911 -0.8629  1.6347  0.2189
   6623SM   C4F 8568   3.357   2.186   6.821 -0.3693 -0.1390  0.0259
   6623SM   H4F 8569   3.414   2.280   6.836  0.5817 -0.5664 -0.7913
   6623SM   H4G 8570   3.257   2.204   6.865 -0.3603 -1.6268  0.6988
   6623SM   C5F 8571   3.345   2.138   6.674  0.2441  0.1668 -0.0343
   6623SM   H5F 8572   3.306   2.034   6.677  3.0783 -1.0973  4.6443
   6623SM   H5G 8573   3.449   2.121   6.638 -0.1717  1.0929 -1.7569
   6623SM   C6F 8574   3.254   2.225   6.589  0.4878  0.0323 -0.9256
   6623SM   H6F 8575   3.288   2.330   6.595  0.1944  0.1243 -0.8744
   6623SM   H6G 8576   3.149   2.220   6.624  0.3131  0.1549 -1.4167
   6623SM   C7F 8577   3.274   2.178   6.438  0.1999  0.3613 -0.1233
   6623SM   H7F 8578   3.236   2.074   6.433 -0.8849  0.6536  1.3139
   6623SM   H7G 8579   3.383   2.172   6.417 -0.0056  2.0499 -1.9386
   6623SM   C8F 8580   3.209   2.273   6.340 -0.5523  0.4340  0.6272
   6623SM   H8F 8581   3.263   2.370   6.348  0.6990 -0.1540 -0.2856
   6623SM   H8G 8582   3.101   2.290   6.360 -0.8095 -2.5614  2.3662
   6623SM   C9F 8583   3.244   2.233   6.191  0.5314 -0.3324 -0.6700
   6623SM   H9F 8584   3.219   2.125   6.180 -1.2530 -0.0388  0.0781
   6623SM   H9G 8585   3.353   2.248   6.177  0.0418  2.2724 -2.4389
   6623SM  C10F 8586   3.177   2.317   6.077 -0.5086 -0.3294 -0.3965
   6623SM  H10F 8587   3.068   2.301   6.085 -0.2091 -1.9975  0.9074
   6623SM  H10G 8588   3.211   2.274   5.981  0.1379  1.6669 -1.1108
   6623SM  C11F 8589   3.206   2.474   6.073  0.7248  0.8402 -0.0694
   6623SM  H11F 8590   3.315   2.497   6.065  0.4897  1.5932 -1.3136
   6623SM  H11G 8591   3.165   2.509   6.171  0.0201 -3.0129  1.1825
   6623SM  C12F 8592   3.133   2.527   5.953 -1.0309  0.3604  0.5432
   6623SM  H12F 8593   3.025   2.518   5.979 -1.0781  0.0887  0.2658
   6623SM  H12G 8594   3.157   2.476   5.857  0.9528  0.2383  1.0791
   6623SM  C13F 8595   3.168   2.679   5.932  0.6040  0.0364 -0.8793
   6623SM  H13F 8596   3.276   2.695   5.952  0.8300  1.2022 -2.8153
   6623SM  H13G 8597   3.106   2.741   5.999 -0.5656 -2.0769  0.1057
   6623SM  C14F 8598   3.155   2.732   5.784 -0.1472  0.1127 -0.4837
   6623SM  H14F 8599   3.158   2.842   5.795  0.3638 -0.0550  1.2953
   6623SM  H14G 8600   3.053   2.700   5.752 -2.0453  1.1607  3.7468
   6623SM  C15F 8601   3.258   2.677   5.678  0.3186  0.5585 -0.2304
   6623SM  H15F 8602   3.236   2.732   5.584  2.2638  0.5704 -0.7186
   6623SM  H15G 8603   3.225   2.572   5.662  0.2943  0.5809 -0.3278
   6623SM  C16F 8604   3.397   2.708   5.717 -0.2536  0.0782 -0.0969
   6623SM  H16F 8605   3.411   2.646   5.808 -0.7257 -1.4588 -1.0187
   6623SM  H16G 8606   3.427   2.809   5.751 -0.8676  0.3237 -0.2585
   6623SM  C17F 8607   3.497   2.653   5.614  0.0723  0.2680  0.1992
   6623SM  H17F 8608   3.475   2.545   5.599  0.1522  0.6515 -3.4478
   6623SM  H17G 8609   3.597   2.666   5.661  0.4529 -1.4999 -0.0487
   6623SM  C18F 8610   3.496   2.711   5.471 -0.8555  0.2224 -0.4729
   6623SM  H18F 8611   3.523   2.818   5.488  1.3171 -0.4877  1.0449
   6623SM  H18G 8612   3.395   2.699   5.426 -1.1783  1.8752 -0.2674
   6623SM  C19F 8613   3.614   2.662   5.387 -0.0126  0.2519  0.2362
   6623SM  H19F 8614   3.705   2.652   5.450  2.0469  1.3300 -2.3506
   6623SM  H19G 8615   3.637   2.727   5.299  0.3122  0.2409  0.3127
   6623SM  C20F 8616   3.581   2.521   5.330 -0.3991 -0.2621 -0.3908
   6623SM  H20F 8617   3.496   2.540   5.260 -1.0541  1.0990  0.7332
   6623SM  H20G 8618   3.551   2.452   5.411  0.3747 -2.7091 -2.0643
   6623SM  C21F 8619   3.695   2.449   5.258  0.3579 -0.6032 -0.4416
   6623SM  H21F 8620   3.779   2.430   5.329 -0.9143  1.0707  1.6259
   6623SM  H21G 8621   3.727   2.518   5.177 -0.8839 -0.5808 -0.9203
   6623SM  C22F 8622   3.633   2.322   5.206  0.4989 -0.7256 -0.1037
   6623SM  H22F 8623   3.532   2.335   5.160 -0.5976 -3.4348  1.3043
   6623SM  H22G 8624   3.618   2.255   5.293  0.9432 -0.8451 -0.1177
   6623SM  C23F 8625   3.716   2.251   5.081  0.3638  0.5129 -0.0765
   6623SM  H23F 8626   3.661   2.157   5.056 -2.7941  1.4597  2.6015
   6623SM  H23G 8627   3.819   2.223   5.111  0.3649  0.1875 -0.3782
   6623SM  H23H 8628   3.724   2.325   4.999 -1.3564  0.4321 -0.3523
   6723SM     N 8629   3.986   5.672   7.833  0.0540  0.1768  0.4130
   6723SM   C15 8630   4.067   5.792   7.834 -0.1381 -1.2598 -0.2263
   6723SM  H15A 8631   4.080   5.823   7.731  0.1965  1.1450  0.4836
   6723SM  H15B 8632   4.161   5.780   7.885 -0.3716 -1.2192  0.2193
   6723SM  H15C 8633   4.028   5.877   7.887  0.4659 -2.4235  2.2165
   6723SM   C14 8634   3.984   5.605   7.962  0.0688 -0.3616  0.2812
   6723SM  H14A 8635   4.083   5.566   7.983  0.2587  1.4816  3.3952
   6723SM  H14B 8636   3.906   5.531   7.974  0.1934 -0.7398 -1.0914
   6723SM  H14C 8637   3.969   5.682   8.036  0.2616  0.4214 -0.4768
   6723SM   C13 8638   3.849   5.715   7.790  0.0358  0.0139 -0.4354
   6723SM  H13A 8639   3.801   5.780   7.862  0.2771  1.4519 -1.5258
   6723SM  H13B 8640   3.795   5.622   7.776  1.5487 -0.8706 -0.6318
   6723SM  H13C 8641   3.859   5.775   7.701 -2.7990  0.6549 -0.4275
   6723SM   C12 8642   4.030   5.582   7.714 -0.1869  0.3116 -0.8715
   6723SM  H12A 8643   3.973   5.492   7.729 -1.1875  1.1961  1.0253
   6723SM  H12B 8644   4.135   5.556   7.713 -0.7172 -2.1473 -2.9298
   6723SM   C11 8645   4.029   5.633   7.565  0.3871 -0.1639  0.3081
   6723SM  H11A 8646   3.924   5.652   7.535  0.3670  1.1020  1.0768
   6723SM  H11B 8647   4.076   5.549   7.510 -0.7596  0.3431 -1.5570
   6723SM     P 8648   4.246   5.744   7.484 -0.6440 -0.1713 -0.2434
   6723SM   O13 8649   4.307   5.876   7.476  0.2151 -0.8490  0.2470
   6723SM   O14 8650   4.325   5.638   7.547 -0.3422 -0.5227  0.1414
   6723SM   O11 8651   4.202   5.685   7.339 -0.2504 -0.1402 -0.2999
   6723SM   O12 8652   4.108   5.753   7.557 -0.2005 -0.3364 -0.1567
   6723SM   C1S 8653   4.097   5.760   7.269 -0.1648  0.8333 -0.0634
   6723SM   H1S 8654   4.095   5.868   7.292  0.9576  0.9975 -0.6958
   6723SM   H1T 8655   3.994   5.728   7.296  0.3681 -0.3136  0.7030
   6723SM    NF 8656   4.034   5.844   7.042 -0.1640 -0.4438 -0.1132
   6723SM   HNF 8657   3.946   5.812   7.009 -0.5035  0.2903  0.0732
   6723SM   C2S 8658   4.111   5.749   7.115 -0.5433  0.1376 -0.3964
   6723SM   H2S 8659   4.218   5.767   7.088  0.3096 -0.9620  1.9672
   6723SM   C3S 8660   4.084   5.604   7.065  0.1112 -0.2364 -0.7228
   6723SM   H3S 8661   3.979   5.568   7.073  0.7382 -2.9809 -3.1742
   6723SM    O3 8662   4.164   5.506   7.132 -0.4990  0.0845  0.0043
   6723SM   HO3 8663   4.190   5.549   7.214  2.2314  0.5339 -0.9935
   6723SM   C4S 8664   4.115   5.594   6.913  0.1119  0.5917 -0.2764
   6723SM   H4S 8665   4.218   5.606   6.875 -0.3920  1.6372 -1.3967
   6723SM   C5S 8666   4.024   5.576   6.817  0.2265 -0.2795  0.9364
   6723SM   H5S 8667   3.918   5.553   6.835 -0.2901  1.3666  0.1153
   6723SM   C6S 8668   4.053   5.574   6.665  0.8399 -0.5593 -1.1643
   6723SM   H6S 8669   3.969   5.620   6.608  0.6988 -2.1534 -2.2887
   6723SM   H6T 8670   4.077   5.475   6.622  1.5447 -0.1226 -1.8037
   6723SM   C7S 8671   4.182   5.654   6.625 -0.4623 -0.0069 -0.3241
   6723SM   H7S 8672   4.205   5.647   6.517 -0.2944 -2.1144 -0.1959
   6723SM   H7T 8673   4.279   5.614   6.662  0.0979  2.3192  0.9407
   6723SM   C8S 8674   4.200   5.803   6.665  0.0045  0.6357  0.0998
   6723SM   H8S 8675   4.307   5.827   6.678  0.5767 -1.2530 -0.8393
   6723SM   H8T 8676   4.145   5.833   6.757  1.4822  0.5921  1.0299
   6723SM   C9S 8677   4.148   5.913   6.568 -0.0076  0.3282 -0.1199
   6723SM   H9S 8678   4.161   6.008   6.623  1.3787  0.1367 -0.0782
   6723SM   H9T 8679   4.037   5.900   6.571  0.2684 -2.3801  2.2067
   6723SM  C10S 8680   4.207   5.921   6.425  0.8683 -0.1564 -0.1179
   6723SM  H10S 8681   4.223   5.815   6.395 -2.4372 -0.1734 -2.4057
   6723SM  H10T 8682   4.300   5.981   6.424  0.2320  0.9228  1.3290
   6723SM  C11S 8683   4.115   5.997   6.327 -0.1878 -0.2462 -0.6686
   6723SM  H11S 8684   4.102   6.099   6.370  0.0738 -0.4053 -0.2080
   6723SM  H11T 8685   4.012   5.957   6.334 -0.3128 -0.2944 -2.3655
   6723SM  C12S 8686   4.179   6.002   6.187 -0.2317 -0.3118  0.3758
   6723SM  H12S 8687   4.191   5.898   6.149 -0.1935 -0.3502  0.4926
   6723SM  H12T 8688   4.278   6.053   6.185  0.9196 -2.3825 -1.9383
   6723SM  C13S 8689   4.093   6.080   6.090  0.3741  0.1626  0.2984
   6723SM  H13S 8690   4.095   6.189   6.110 -1.7049  0.4163 -0.6516
   6723SM  H13T 8691   3.992   6.036   6.106  0.5863 -0.2093  0.6288
   6723SM  C14S 8692   4.134   6.045   5.947  0.1499 -0.3814  0.0057
   6723SM  H14S 8693   4.122   5.935   5.940 -0.9656 -0.1769 -2.1076
   6723SM  H14T 8694   4.241   6.069   5.928  0.7320 -2.7035  0.0236
   6723SM  C15S 8695   4.037   6.115   5.848 -0.7548  0.6356 -0.6147
   6723SM  H15S 8696   4.050   6.225   5.863 -3.3462  0.7113  1.9807
   6723SM  H15T 8697   3.931   6.103   5.878 -0.6894  1.3997 -0.0302
   6723SM  C16S 8698   4.059   6.072   5.706 -0.3993  0.2127  0.0781
   6723SM  H16S 8699   4.026   5.967   5.702 -1.7940  0.6530 -0.5139
   6723SM  H16T 8700   4.168   6.078   5.684 -0.4925 -1.1451 -0.8486
   6723SM  C17S 8701   3.966   6.137   5.603  0.2265  0.0566  0.1934
   6723SM  H17S 8702   3.974   6.246   5.622 -0.1824  0.3170 -1.0375
   6723SM  H17T 8703   3.863   6.101   5.624 -0.1861  1.2669  0.3387
   6723SM  C18S 8704   4.001   6.097   5.458  1.1822  0.1591  0.2874
   6723SM  H18S 8705   4.103   6.124   5.421  0.7182  1.1863 -0.2692
   6723SM  H18T 8706   3.929   6.144   5.388 -0.2252  0.0073  1.5963
   6723SM  H18U 8707   3.989   5.987   5.444 -2.2417  0.5998 -1.1816
   6723SM   C1F 8708   4.055   5.974   7.044  0.9720  0.1142 -0.1648
   6723SM    OF 8709   4.155   6.023   7.104  0.1707  0.4793  0.3430
   6723SM   C2F 8710   3.952   6.046   6.968 -0.4012  0.2779 -0.6001
   6723SM   H2F 8711   3.876   6.081   7.041  0.2543  0.0138  0.2230
   6723SM   H2G 8712   3.903   5.970   6.904  0.0582 -1.5885  1.1572
   6723SM   C3F 8713   4.009   6.167   6.889 -0.2808  0.0533 -0.1469
   6723SM   H3F 8714   4.099   6.131   6.834  0.1895  1.6665 -0.4739
   6723SM   H3G 8715   4.036   6.255   6.951 -2.7526  0.3890  0.5939
   6723SM   C4F 8716   3.916   6.210   6.777  0.5440  0.0172 -0.3712
   6723SM   H4F 8717   3.827   6.253   6.829  0.5126  0.5444 -0.8533
   6723SM   H4G 8718   3.875   6.134   6.708 -2.4453 -0.0778  1.3055
   6723SM   C5F 8719   3.972   6.318   6.691 -0.0231 -0.2420  0.0963
   6723SM   H5F 8720   4.062   6.270   6.648  0.9877  0.5561  1.2477
   6723SM   H5G 8721   4.003   6.409   6.748  1.7863 -0.0505 -1.1373
   6723SM   C6F 8722   3.875   6.362   6.579 -0.6088  0.5099  0.1380
   6723SM   H6F 8723   3.776   6.395   6.618 -0.5469 -0.3355  1.0616
   6723SM   H6G 8724   3.870   6.275   6.510  2.1632 -0.2512  0.7744
   6723SM   C7F 8725   3.923   6.479   6.502  0.3292  0.1493  0.2750
   6723SM   H7F 8726   4.015   6.455   6.444 -0.2402 -1.0382 -0.1503
   6723SM   H7G 8727   3.955   6.561   6.571 -2.8111  1.3849  0.4144
   6723SM   C8F 8728   3.816   6.554   6.426  0.0820  0.2701 -0.5049
   6723SM   H8F 8729   3.853   6.652   6.389 -0.6222  0.4309 -0.8007
   6723SM   H8G 8730   3.729   6.582   6.490  0.0967  0.4302 -0.5548
   6723SM   C9F 8731   3.755   6.481   6.301  0.1341  0.4988 -0.1605
   6723SM   H9F 8732   3.691   6.540   6.231  1.0394  0.9222 -0.6483
   6723SM   H9G 8733   3.696   6.399   6.347  1.0281  0.2491  0.5642
   6723SM  C10F 8734   3.871   6.412   6.225  0.2659  0.4554  0.7976
   6723SM  H10F 8735   3.893   6.318   6.279 -0.2818 -0.5617 -0.6751
   6723SM  H10G 8736   3.964   6.472   6.231  0.4980 -0.0362  3.0660
   6723SM  C11F 8737   3.834   6.384   6.080 -0.0805 -0.3675  0.1230
   6723SM  H11F 8738   3.727   6.354   6.069 -0.2068  0.1471 -0.0496
   6723SM  H11G 8739   3.890   6.294   6.049  0.1875 -0.6560  1.3764
   6723SM  C12F 8740   3.868   6.504   5.982  0.0229 -0.4654  0.1078
   6723SM  H12F 8741   3.978   6.515   5.974 -0.0032 -0.3570 -0.1140
   6723SM  H12G 8742   3.824   6.590   6.036  0.4962  0.7761 -1.4155
   6723SM  C13F 8743   3.796   6.499   5.842 -0.1680  0.1301 -0.1569
   6723SM  H13F 8744   3.686   6.489   5.858 -0.3832  0.8183 -1.1361
   6723SM  H13G 8745   3.834   6.405   5.795 -0.8395 -0.6784  0.8642
   6723SM  C14F 8746   3.831   6.625   5.755  0.0837 -0.2709  0.1911
   6723SM  H14F 8747   3.843   6.717   5.815  2.4219 -1.1133  1.1394
   6723SM  H14G 8748   3.742   6.628   5.688 -1.1367  2.4579  1.7676
   6723SM  C15F 8749   3.967   6.627   5.670  0.4858 -0.5098  0.2365
   6723SM  H15F 8750   3.974   6.534   5.610  0.2435 -0.4326  0.0855
   6723SM  H15G 8751   4.056   6.631   5.736  1.6574 -0.7646 -1.2811
   6723SM  C16F 8752   3.967   6.747   5.573 -0.0383  0.6549 -0.8398
   6723SM  H16F 8753   3.972   6.844   5.628 -3.0551  0.7315 -0.5698
   6723SM  H16G 8754   3.878   6.741   5.507  1.5887 -0.5308 -3.0741
   6723SM  C17F 8755   4.081   6.732   5.467 -0.1119 -0.6527  1.0175
   6723SM  H17F 8756   4.030   6.690   5.378 -0.4964  1.5771  0.1310
   6723SM  H17G 8757   4.148   6.656   5.512 -2.6736 -2.3926  2.1206
   6723SM  C18F 8758   4.171   6.859   5.438 -0.1110  0.8257  0.4663
   6723SM  H18F 8759   4.271   6.822   5.407  0.0266  0.7644  0.9710
   6723SM  H18G 8760   4.191   6.900   5.539 -1.0518  0.2060  0.9215
   6723SM  C19F 8761   4.140   6.957   5.325  0.0763 -0.6295 -0.4247
   6723SM  H19F 8762   4.055   7.013   5.369  0.3589 -0.9402  0.5270
   6723SM  H19G 8763   4.098   6.908   5.234  0.3912 -1.6382 -0.0443
   6723SM  C20F 8764   4.261   7.050   5.297  0.2389  0.2970 -0.4421
   6723SM  H20F 8765   4.334   6.981   5.251  0.9350  1.3720 -1.0054
   6723SM  H20G 8766   4.297   7.079   5.398 -1.7475  0.5265  0.2502
   6723SM  C21F 8767   4.241   7.163   5.198  0.1848  0.0344  0.0558
   6723SM  H21F 8768   4.153   7.222   5.232  0.6364  1.1081 -0.5775
   6723SM  H21G 8769   4.228   7.121   5.096  1.1554  1.2944 -0.6225
   6723SM  C22F 8770   4.353   7.267   5.179  0.4787 -0.3973  0.0344
   6723SM  H22F 8771   4.323   7.342   5.102 -2.3839 -1.4569 -0.0107
   6723SM  H22G 8772   4.437   7.214   5.130  0.6500 -0.4581  0.3930
   6723SM  C23F 8773   4.402   7.333   5.304 -0.5864 -0.8781 -0.2649
   6723SM  H23F 8774   4.458   7.263   5.370 -0.9832 -1.1764 -0.2449
   6723SM  H23G 8775   4.314   7.375   5.357  2.1498 -1.1281  5.1780
   6723SM  H23H 8776   4.476   7.412   5.280 -1.5694  0.3365  0.5756
   6823SM     N 8777   1.990   1.574   7.636  0.2964 -0.2371 -0.0236
   6823SM   C15 8778   2.075   1.627   7.748 -0.2114 -0.5279  0.1538
   6823SM  H15A 8779   2.016   1.663   7.831 -1.5801 -1.4827 -0.3709
   6823SM  H15B 8780   2.132   1.713   7.714  0.7672  0.2274  3.3638
   6823SM  H15C 8781   2.145   1.553   7.783  1.4581  0.2629 -1.3152
   6823SM   C14 8782   1.911   1.458   7.679 -0.3265  1.0233  0.0618
   6823SM  H14A 8783   1.843   1.484   7.758 -0.6624 -3.2472  1.4010
   6823SM  H14B 8784   1.977   1.380   7.715 -3.5086 -2.3797 -0.9100
   6823SM  H14C 8785   1.858   1.417   7.595  0.2739 -1.2659  0.7264
   6823SM   C13 8786   1.899   1.688   7.585  0.2056 -0.4971 -0.1314
   6823SM  H13A 8787   1.809   1.697   7.643 -0.9922 -1.4849 -1.7461
   6823SM  H13B 8788   1.866   1.672   7.483  0.3098  0.9294 -0.3998
   6823SM  H13C 8789   1.952   1.781   7.588  0.8078 -0.5953 -3.5098
   6823SM   C12 8790   2.078   1.538   7.524  0.1292  0.0425  0.2379
   6823SM  H12A 8791   2.018   1.504   7.440 -1.2352  0.2118  1.1074
   6823SM  H12B 8792   2.146   1.460   7.554  3.9101  2.9310 -0.1367
   6823SM   C11 8793   2.168   1.650   7.473 -0.0618 -0.3822 -0.4159
   6823SM  H11A 8794   2.114   1.747   7.472 -1.4657 -1.0806  1.3132
   6823SM  H11B 8795   2.194   1.616   7.371 -1.0146  0.2505 -0.8793
   6823SM     P 8796   2.418   1.575   7.537  0.6161  0.1754  0.0739
   6823SM   O13 8797   2.519   1.621   7.633 -0.4230  0.0665  0.0539
   6823SM   O14 8798   2.377   1.438   7.542  0.8097  0.2938 -0.0922
   6823SM   O11 8799   2.459   1.615   7.391  0.1274  0.4007 -0.6676
   6823SM   O12 8800   2.288   1.666   7.552 -0.2923  0.4047  0.3983
   6823SM   C1S 8801   2.495   1.754   7.364  0.1338  0.4823 -0.4082
   6823SM   H1S 8802   2.575   1.780   7.436 -1.0188  0.8382  0.8036
   6823SM   H1T 8803   2.405   1.817   7.384 -0.1673  0.3808 -1.4030
   6823SM    NF 8804   2.608   1.908   7.205  0.5813 -0.0429  0.1075
   6823SM   HNF 8805   2.554   1.973   7.152  1.4851  2.5487  2.1207
   6823SM   C2S 8806   2.546   1.777   7.222  0.1542 -0.0450  1.2359
   6823SM   H2S 8807   2.628   1.704   7.201 -1.0656 -1.1053 -0.0463
   6823SM   C3S 8808   2.429   1.750   7.113 -0.0396 -0.1872 -0.0992
   6823SM   H3S 8809   2.355   1.832   7.130  1.3250  1.4525 -1.6756
   6823SM    O3 8810   2.368   1.620   7.116 -0.2288  0.2632  0.0086
   6823SM   HO3 8811   2.407   1.577   7.192  0.5851  2.7667  1.1295
   6823SM   C4S 8812   2.479   1.789   6.980 -0.4839 -0.3809  0.3500
   6823SM   H4S 8813   2.454   1.890   6.945  0.3205 -0.8772 -1.9019
   6823SM   C5S 8814   2.545   1.717   6.896  0.4392 -0.0077 -0.1915
   6823SM   H5S 8815   2.583   1.615   6.916  1.0598 -0.3410 -2.6885
   6823SM   C6S 8816   2.592   1.774   6.760 -0.6014  0.1552  0.8067
   6823SM   H6S 8817   2.701   1.759   6.740 -0.9735 -0.8076 -0.6101
   6823SM   H6T 8818   2.578   1.884   6.763  1.4825  0.4840  0.4839
   6823SM   C7S 8819   2.515   1.710   6.652  0.0878 -0.4336  0.1863
   6823SM   H7S 8820   2.408   1.729   6.672 -0.0091 -0.3676 -0.3674
   6823SM   H7T 8821   2.543   1.602   6.653 -0.4824 -0.5829  1.3750
   6823SM   C8S 8822   2.556   1.761   6.509 -0.3414  0.0345 -0.1958
   6823SM   H8S 8823   2.664   1.748   6.488 -0.4824  0.1348 -0.9995
   6823SM   H8T 8824   2.552   1.872   6.504  0.7752  0.2263  1.9106
   6823SM   C9S 8825   2.474   1.704   6.389  0.7837 -0.2141 -0.5558
   6823SM   H9S 8826   2.366   1.706   6.412  1.3497 -2.6359  3.1912
   6823SM   H9T 8827   2.496   1.596   6.382 -1.8801 -0.8907  0.5070
   6823SM  C10S 8828   2.500   1.781   6.257  0.1772  0.7878  0.4747
   6823SM  H10S 8829   2.608   1.802   6.244  0.7133 -2.0070 -0.2163
   6823SM  H10T 8830   2.450   1.880   6.263 -0.5198  0.4547  0.3251
   6823SM  C11S 8831   2.455   1.707   6.126 -0.0862  0.0593 -0.2305
   6823SM  H11S 8832   2.348   1.688   6.148 -0.1071 -1.2689 -1.3099
   6823SM  H11T 8833   2.506   1.613   6.095 -1.7197 -0.3658 -1.8357
   6823SM  C12S 8834   2.468   1.798   5.997  0.0945 -0.3254  0.2454
   6823SM  H12S 8835   2.573   1.833   5.994 -0.2873  1.1109  1.9156
   6823SM  H12T 8836   2.400   1.884   6.011 -0.0946 -0.5691  0.9057
   6823SM  C13S 8837   2.422   1.734   5.861 -0.6082  0.2628 -0.1805
   6823SM  H13S 8838   2.312   1.715   5.858 -0.9264  1.8605  0.4666
   6823SM  H13T 8839   2.485   1.646   5.835 -0.3601  0.1734  0.7068
   6823SM  C14S 8840   2.443   1.819   5.734 -0.4532 -0.4689  0.0679
   6823SM  H14S 8841   2.551   1.843   5.730 -0.9141  1.9474  0.6855
   6823SM  H14T 8842   2.385   1.914   5.735 -0.1320 -0.1802 -2.3929
   6823SM  C15S 8843   2.388   1.744   5.607 -0.2164 -0.1687  0.1759
   6823SM  H15S 8844   2.278   1.726   5.613 -0.2785 -0.5366 -1.5403
   6823SM  H15T 8845   2.431   1.641   5.611 -1.5284 -0.8624 -2.0127
   6823SM  C16S 8846   2.428   1.799   5.472 -0.2645  1.0648  0.1166
   6823SM  H16S 8847   2.432   1.724   5.391  3.2668 -1.7569  2.5885
   6823SM  H16T 8848   2.532   1.837   5.481 -0.1704  2.2282 -3.9558
   6823SM  C17S 8849   2.336   1.920   5.434 -0.7009 -0.2365 -0.4752
   6823SM  H17S 8850   2.332   1.992   5.518 -2.3816  1.4985 -1.9174
   6823SM  H17T 8851   2.234   1.879   5.417 -0.3364 -2.7405  2.5114
   6823SM  C18S 8852   2.388   1.994   5.306 -0.4790 -0.0282  0.0043
   6823SM  H18S 8853   2.476   2.056   5.334 -1.4875  1.3872  0.0937
   6823SM  H18T 8854   2.302   2.054   5.272 -0.6441  0.9087  1.9440
   6823SM  H18U 8855   2.422   1.919   5.232  0.6866  0.1310  0.3466
   6823SM   C1F 8856   2.713   1.960   7.277 -0.0797  0.6498  0.7825
   6823SM    OF 8857   2.762   1.901   7.373 -0.1739 -0.3001  0.3230
   6823SM   C2F 8858   2.776   2.086   7.228 -0.4952  0.0147  0.3763
   6823SM   H2F 8859   2.765   2.168   7.302  0.8177  0.7988 -0.2545
   6823SM   H2G 8860   2.714   2.121   7.142 -0.7773  0.7417  0.8640
   6823SM   C3F 8861   2.930   2.069   7.182  0.7431  0.5675  0.1979
   6823SM   H3F 8862   2.973   2.008   7.265 -0.8934  0.5550  1.0793
   6823SM   H3G 8863   2.986   2.165   7.175  2.3497 -0.4465 -2.5118
   6823SM   C4F 8864   2.948   1.985   7.055 -0.0388 -0.0922 -0.1536
   6823SM   H4F 8865   2.875   1.902   7.061  1.1567 -1.1416  0.3526
   6823SM   H4G 8866   3.050   1.940   7.056  0.0362 -0.0052 -1.4042
   6823SM   C5F 8867   2.927   2.063   6.930  0.4084 -0.3447  0.2348
   6823SM   H5F 8868   2.998   2.148   6.926 -0.1388  0.2589  2.1701
   6823SM   H5G 8869   2.826   2.106   6.914  0.8380  0.6754  0.2210
   6823SM   C6F 8870   2.959   1.973   6.807 -0.0365 -0.0092  0.1956
   6823SM   H6F 8871   2.911   1.873   6.816  1.9185 -0.9501  0.8612
   6823SM   H6G 8872   3.069   1.959   6.811  0.0537  0.9503  1.3822
   6823SM   C7F 8873   2.911   2.051   6.683 -0.2362 -0.2183 -0.2742
   6823SM   H7F 8874   2.956   2.152   6.692 -1.9602  0.4292  1.7089
   6823SM   H7G 8875   2.801   2.061   6.689 -0.1841 -0.3220  1.0846
   6823SM   C8F 8876   2.948   1.986   6.551  0.5676  0.4367 -0.9078
   6823SM   H8F 8877   2.908   1.883   6.547 -1.6397  1.2262 -0.5341
   6823SM   H8G 8878   3.059   1.988   6.544  0.6300  1.4189  0.1387
   6823SM   C9F 8879   2.891   2.064   6.431  0.0172 -0.1447  0.6776
   6823SM   H9F 8880   2.948   2.158   6.419  1.5789 -0.8826  1.8613
   6823SM   H9G 8881   2.782   2.079   6.444 -0.2902  1.6454 -2.9547
   6823SM  C10F 8882   2.894   1.983   6.297 -0.0742  0.3543 -0.3390
   6823SM  H10F 8883   2.845   1.884   6.306 -0.0971  0.5008  1.7710
   6823SM  H10G 8884   3.000   1.955   6.277  0.8889  3.7401 -0.6978
   6823SM  C11F 8885   2.838   2.045   6.165  0.0962 -0.1492  0.0427
   6823SM  H11F 8886   2.891   2.141   6.151 -0.5836  0.7475  2.9712
   6823SM  H11G 8887   2.729   2.057   6.187 -0.0837 -0.5815 -0.5723
   6823SM  C12F 8888   2.868   1.942   6.053 -0.1445 -0.8167 -0.1367
   6823SM  H12F 8889   2.818   1.971   5.958 -0.3361 -1.9383 -0.3963
   6823SM  H12G 8890   2.820   1.843   6.072 -1.3865 -0.4961 -1.3810
   6823SM  C13F 8891   3.017   1.907   6.017  0.5059 -0.1493 -0.3850
   6823SM  H13F 8892   3.058   1.846   6.100  0.8350 -0.3891 -0.7207
   6823SM  H13G 8893   3.068   2.004   6.006 -1.8237  0.9589 -2.4948
   6823SM  C14F 8894   3.039   1.823   5.889 -0.4250 -0.7195 -0.8689
   6823SM  H14F 8895   2.992   1.723   5.897  0.1237 -0.9556 -0.5656
   6823SM  H14G 8896   3.149   1.814   5.877 -0.0464  1.0445  0.6702
   6823SM  C15F 8897   3.007   1.895   5.758  0.0656 -0.8964 -0.1994
   6823SM  H15F 8898   3.056   1.995   5.761 -0.5176 -0.6122  0.1722
   6823SM  H15G 8899   2.897   1.911   5.751  0.0994 -0.3063  0.4462
   6823SM  C16F 8900   3.067   1.828   5.633 -0.5232 -0.0049  0.2551
   6823SM  H16F 8901   3.032   1.722   5.630  0.2115 -0.3396  2.0476
   6823SM  H16G 8902   3.178   1.828   5.636 -0.5455  0.4579  1.9645
   6823SM  C17F 8903   3.025   1.904   5.502  0.0592 -0.5368  0.2880
   6823SM  H17F 8904   3.063   1.853   5.410 -1.8747 -2.9126  0.6889
   6823SM  H17G 8905   3.065   2.007   5.499  1.8002 -1.1941 -0.6789
   6823SM  C18F 8906   2.864   1.908   5.485  0.0605 -0.4981 -0.1218
   6823SM  H18F 8907   2.831   1.983   5.560  1.6368  1.8078 -1.6082
   6823SM  H18G 8908   2.816   1.810   5.509 -2.3816  0.4660 -0.7266
   6823SM  C19F 8909   2.835   1.957   5.342  0.0505  0.1520  0.3897
   6823SM  H19F 8910   2.726   1.970   5.330  0.1394 -1.0313 -3.0678
   6823SM  H19G 8911   2.865   1.876   5.272  1.2860 -0.1283  1.2153
   6823SM  C20F 8912   2.906   2.086   5.287  0.0069 -0.3622 -0.2194
   6823SM  H20F 8913   3.011   2.083   5.322 -0.1366  2.2667  0.6172
   6823SM  H20G 8914   2.862   2.171   5.343  1.6509 -0.8632  1.9730
   6823SM  C21F 8915   2.906   2.115   5.135  0.0892 -0.1207  0.2288
   6823SM  H21F 8916   2.960   2.041   5.073  1.3511  0.0452  1.1002
   6823SM  H21G 8917   2.951   2.216   5.123 -0.6723  0.2008  0.0035
   6823SM  C22F 8918   2.758   2.123   5.082  0.7194 -0.1567  0.1703
   6823SM  H22F 8919   2.693   2.175   5.155 -1.7071  0.6968 -2.4325
   6823SM  H22G 8920   2.707   2.024   5.083 -0.0513  0.2357  0.3880
   6823SM  C23F 8921   2.731   2.189   4.951 -0.3265 -0.1138  0.4254
   6823SM  H23F 8922   2.630   2.173   4.908 -0.6948  1.3817  0.6661
   6823SM  H23G 8923   2.802   2.159   4.871 -1.0861  2.8073 -1.5351
   6823SM  H23H 8924   2.747   2.297   4.970 -1.2779 -0.3190  2.6703
   6923SM     N 8925   5.031   1.778   7.636  0.2769  0.6575  0.4727
   6923SM   C15 8926   5.122   1.883   7.583 -0.7372  0.1787  0.0203
   6923SM  H15A 8927   5.224   1.853   7.597 -1.2061 -0.8993  1.3359
   6923SM  H15B 8928   5.109   1.978   7.633  1.0898  0.9369 -0.8664
   6923SM  H15C 8929   5.109   1.889   7.476  1.0528 -1.6552 -0.3527
   6923SM   C14 8930   5.072   1.644   7.565  0.1771 -0.1000  0.4831
   6923SM  H14A 8931   5.000   1.564   7.579 -0.1521  0.3492  1.4153
   6923SM  H14B 8932   5.169   1.620   7.604  0.3794  0.1569  0.1359
   6923SM  H14C 8933   5.082   1.655   7.458  0.1317  2.4358  0.6993
   6923SM   C13 8934   5.040   1.760   7.788  0.8960 -0.3934  0.3526
   6923SM  H13A 8935   4.957   1.698   7.817 -0.7505  0.9709 -1.1512
   6923SM  H13B 8936   5.018   1.854   7.836 -0.2875 -0.0105 -0.8495
   6923SM  H13C 8937   5.136   1.724   7.821  1.4176 -0.9188 -1.5667
   6923SM   C12 8938   4.888   1.807   7.593 -0.1940 -0.1842  0.2201
   6923SM  H12A 8939   4.828   1.720   7.613 -0.2955 -0.3921 -0.9315
   6923SM  H12B 8940   4.878   1.817   7.486 -1.5721 -1.0386  0.2476
   6923SM   C11 8941   4.818   1.934   7.651 -0.9126  0.1577  0.0271
   6923SM  H11A 8942   4.796   1.932   7.760  1.2694 -0.0090  0.5142
   6923SM  H11B 8943   4.715   1.929   7.610 -0.2340 -2.3821 -1.5691
   6923SM     P 8944   4.880   2.122   7.466 -0.5362  0.0534  0.0754
   6923SM   O13 8945   4.784   2.233   7.470 -0.5559  0.2028  0.3284
   6923SM   O14 8946   5.022   2.158   7.429 -0.3846  0.2574 -0.4511
   6923SM   O11 8947   4.831   1.998   7.381  0.6871 -0.5532  0.0129
   6923SM   O12 8948   4.881   2.057   7.607  0.1741 -0.2007 -0.8428
   6923SM   C1S 8949   4.708   1.991   7.306 -0.4712 -0.0695 -0.1585
   6923SM   H1S 8950   4.653   2.086   7.298  0.6886  0.7359  0.9782
   6923SM   H1T 8951   4.638   1.917   7.349 -1.3227  1.2234  0.7430
   6923SM    NF 8952   4.638   1.996   7.055  0.2153  0.5127  0.0000
   6923SM   HNF 8953   4.586   1.922   7.013  2.2440 -1.3436  0.5978
   6923SM   C2S 8954   4.748   1.961   7.153 -0.2452 -0.4261 -0.5056
   6923SM   H2S 8955   4.836   2.027   7.135  0.1557  0.2435  3.1211
   6923SM   C3S 8956   4.792   1.817   7.145  0.1827  0.0973  0.3212
   6923SM   H3S 8957   4.705   1.751   7.124 -0.3391  0.3474  1.6253
   6923SM    O3 8958   4.846   1.754   7.265 -0.2987  0.5281 -0.2643
   6923SM   HO3 8959   4.846   1.830   7.325 -0.9496  0.1272  0.2575
   6923SM   C4S 8960   4.896   1.796   7.034  0.1631 -0.2325 -0.3273
   6923SM   H4S 8961   4.977   1.871   7.035 -0.9416  0.9884  0.6552
   6923SM   C5S 8962   4.895   1.703   6.940 -0.3540  0.5275 -0.7493
   6923SM   H5S 8963   4.809   1.635   6.937  0.6112 -0.9055  1.4510
   6923SM   C6S 8964   4.999   1.708   6.828 -0.4427  0.1071  0.3490
   6923SM   H6S 8965   5.084   1.773   6.858  0.0637 -0.5940  0.4518
   6923SM   H6T 8966   4.959   1.739   6.729  0.5145 -0.8547 -0.3642
   6923SM   C7S 8967   5.065   1.571   6.806  0.1430 -0.0773  0.0991
   6923SM   H7S 8968   4.994   1.494   6.771  3.9905 -2.7362 -2.6454
   6923SM   H7T 8969   5.099   1.535   6.906 -1.2449 -1.7374  0.0084
   6923SM   C8S 8970   5.178   1.578   6.700 -0.1121  0.1097  0.4850
   6923SM   H8S 8971   5.233   1.483   6.720 -0.8517 -1.0056 -2.2926
   6923SM   H8T 8972   5.243   1.665   6.723 -0.9781  0.9099 -0.0426
   6923SM   C9S 8973   5.125   1.584   6.559 -0.1664  0.2180 -0.1906
   6923SM   H9S 8974   5.085   1.682   6.528 -0.5858 -0.7924 -3.1623
   6923SM   H9T 8975   5.034   1.521   6.567  0.1687  0.0119  4.4305
   6923SM  C10S 8976   5.221   1.528   6.453  0.3387 -0.8099  0.7257
   6923SM  H10S 8977   5.272   1.433   6.482  1.6795 -0.8031 -1.3791
   6923SM  H10T 8978   5.315   1.588   6.450  1.7940 -2.8065  2.7418
   6923SM  C11S 8979   5.152   1.506   6.317 -0.3828 -0.3718 -0.8514
   6923SM  H11S 8980   5.098   1.602   6.306  0.8210  0.5784  0.9992
   6923SM  H11T 8981   5.086   1.417   6.333  0.8281 -1.0498  0.6197
   6923SM  C12S 8982   5.246   1.491   6.198 -0.1978  0.2873  0.5510
   6923SM  H12S 8983   5.307   1.405   6.234 -0.0324 -0.1335 -0.7126
   6923SM  H12T 8984   5.311   1.581   6.192 -1.7985  1.5261  1.0168
   6923SM  C13S 8985   5.164   1.468   6.071  0.6521 -0.0022  0.3779
   6923SM  H13S 8986   5.075   1.406   6.092 -1.0403  1.1393 -2.7782
   6923SM  H13T 8987   5.233   1.418   5.999 -0.6121  1.2079 -1.7716
   6923SM  C14S 8988   5.104   1.599   6.010  0.2207  0.2123 -0.3473
   6923SM  H14S 8989   5.188   1.665   5.980 -0.0215  0.3460 -0.7343
   6923SM  H14T 8990   5.043   1.643   6.092  2.4738  1.3538  0.7977
   6923SM  C15S 8991   5.005   1.571   5.896  0.0498 -0.4343  0.3363
   6923SM  H15S 8992   4.949   1.667   5.887 -1.0193 -1.0849 -0.1857
   6923SM  H15T 8993   4.935   1.490   5.923 -1.0676  0.6318  0.7510
   6923SM  C16S 8994   5.071   1.530   5.773  0.1097 -0.0506  0.4712
   6923SM  H16S 8995   5.116   1.429   5.791  0.3384  0.1344  0.9560
   6923SM  H16T 8996   5.151   1.605   5.755  0.1213 -0.2924 -0.5591
   6923SM  C17S 8997   4.989   1.530   5.645  0.5832 -0.5115  0.7662
   6923SM  H17S 8998   4.961   1.636   5.623  0.0096 -1.0792 -1.4843
   6923SM  H17T 8999   4.889   1.483   5.648  0.1249  0.3407 -0.4204
   6923SM  C18S 9000   5.076   1.486   5.519  0.2240 -0.3208 -0.1443
   6923SM  H18S 9001   5.175   1.536   5.524  1.4165 -2.5805  0.4770
   6923SM  H18T 9002   5.014   1.500   5.427 -1.4412 -1.3466  0.7687
   6923SM  H18U 9003   5.091   1.377   5.534 -1.8188 -0.5314  0.7200
   6923SM   C1F 9004   4.591   2.116   7.040  0.1816 -0.4198 -0.3853
   6923SM    OF 9005   4.662   2.214   7.074 -0.1888  0.1481  0.4602
   6923SM   C2F 9006   4.457   2.126   6.981  0.2904 -0.6582  0.3835
   6923SM   H2F 9007   4.445   2.233   6.954  1.4280 -0.3425  1.0460
   6923SM   H2G 9008   4.392   2.101   7.067 -1.8351  1.2842 -0.5534
   6923SM   C3F 9009   4.417   2.030   6.868 -0.9506  0.4571 -0.6319
   6923SM   H3F 9010   4.317   2.063   6.834 -1.2727  1.3708  1.1047
   6923SM   H3G 9011   4.394   1.928   6.906 -0.0909  0.0365 -1.1957
   6923SM   C4F 9012   4.517   2.018   6.752 -0.2929 -0.2455  0.2426
   6923SM   H4F 9013   4.602   2.082   6.784 -0.7380 -0.3360  1.7143
   6923SM   H4G 9014   4.478   2.068   6.661 -0.4259 -2.4862 -1.0003
   6923SM   C5F 9015   4.577   1.877   6.718 -0.2486  0.1242  0.2121
   6923SM   H5F 9016   4.508   1.825   6.649  1.3738  2.1604 -3.2100
   6923SM   H5G 9017   4.581   1.820   6.813 -1.9214 -1.2121 -0.4870
   6923SM   C6F 9018   4.706   1.887   6.643 -0.3577 -0.1068 -0.3066
   6923SM   H6F 9019   4.756   1.791   6.616  1.2601  0.8682 -0.9629
   6923SM   H6G 9020   4.766   1.948   6.714 -3.0764  0.5640  1.5676
   6923SM   C7F 9021   4.701   1.968   6.513 -0.2604 -0.1075 -0.0805
   6923SM   H7F 9022   4.656   2.068   6.526  1.1213  0.5328 -0.1201
   6923SM   H7G 9023   4.624   1.923   6.446 -0.7816  0.7808 -0.0916
   6923SM   C8F 9024   4.833   1.975   6.434  0.6602 -0.2684  0.0481
   6923SM   H8F 9025   4.868   1.873   6.409  3.0984  0.3997  0.4429
   6923SM   H8G 9026   4.907   2.034   6.493 -0.8553  0.8080  0.9523
   6923SM   C9F 9027   4.806   2.049   6.299 -0.2132  0.4596 -0.2172
   6923SM   H9F 9028   4.766   2.151   6.314 -0.2527  0.3459  0.4628
   6923SM   H9G 9029   4.727   1.988   6.251  0.5156 -0.5294 -0.1929
   6923SM  C10F 9030   4.937   2.057   6.224  0.3209 -0.0256  0.0416
   6923SM  H10F 9031   4.954   1.956   6.182  0.4333  0.2447 -0.5715
   6923SM  H10G 9032   5.020   2.088   6.291  0.2319  2.1769 -0.7598
   6923SM  C11F 9033   4.926   2.174   6.114  0.4985  0.1397 -0.1286
   6923SM  H11F 9034   4.924   2.271   6.169 -0.2902  0.2377 -0.3280
   6923SM  H11G 9035   4.826   2.158   6.068  0.4604 -0.4154  0.1320
   6923SM  C12F 9036   5.031   2.173   6.003  0.3723  0.3213  0.9008
   6923SM  H12F 9037   5.137   2.165   6.036  0.6410  0.4976  0.1031
   6923SM  H12G 9038   5.037   2.272   5.955  1.9036  0.4203  1.2387
   6923SM  C13F 9039   4.995   2.059   5.909 -0.6600  0.3877 -0.0854
   6923SM  H13F 9040   4.909   2.093   5.847  0.5852  3.3612 -0.3514
   6923SM  H13G 9041   4.964   1.967   5.964  0.7550  0.8624  1.6201
   6923SM  C14F 9042   5.113   2.018   5.815 -0.0108 -0.2871  0.1525
   6923SM  H14F 9043   5.205   1.991   5.872  0.9971  0.4810 -1.0593
   6923SM  H14G 9044   5.142   2.109   5.760  0.8653 -1.4197 -1.3314
   6923SM  C15F 9045   5.087   1.907   5.709 -0.7843 -0.3839  0.4499
   6923SM  H15F 9046   5.038   1.954   5.621 -2.7016 -2.2357  0.4445
   6923SM  H15G 9047   5.013   1.830   5.742 -1.1354 -1.1292 -1.8696
   6923SM  C16F 9048   5.208   1.836   5.638  0.1006  0.1258  0.5329
   6923SM  H16F 9049   5.172   1.752   5.575 -0.2031  0.5974  0.0685
   6923SM  H16G 9050   5.260   1.780   5.718  1.5646  0.1952 -0.3453
   6923SM  C17F 9051   5.295   1.934   5.566 -0.2752  0.1054  0.3096
   6923SM  H17F 9052   5.393   1.882   5.567  0.4966  1.5081  0.0396
   6923SM  H17G 9053   5.297   2.034   5.614  1.5062 -0.3017  1.1653
   6923SM  C18F 9054   5.254   1.959   5.421 -0.2785 -0.4373  0.5349
   6923SM  H18F 9055   5.155   2.009   5.408 -0.4248 -0.9393 -0.3025
   6923SM  H18G 9056   5.245   1.864   5.365 -0.1661  0.3384 -0.8340
   6923SM  C19F 9057   5.334   2.054   5.343 -0.1286 -0.4871 -0.3458
   6923SM  H19F 9058   5.364   2.140   5.406  1.9130  0.5327 -2.5547
   6923SM  H19G 9059   5.287   2.091   5.250  1.4848  0.1113 -0.9521
   6923SM  C20F 9060   5.466   1.980   5.321 -0.1575 -0.5228 -0.4387
   6923SM  H20F 9061   5.443   1.876   5.289  0.6025 -0.4373 -1.3018
   6923SM  H20G 9062   5.519   1.982   5.418 -0.5025  0.7514 -0.2628
   6923SM  C21F 9063   5.551   2.051   5.205 -0.8896  0.2794 -0.4795
   6923SM  H21F 9064   5.552   2.162   5.213  3.9086  0.4078 -0.0604
   6923SM  H21G 9065   5.521   2.022   5.102  0.9879  0.9716 -1.2794
   6923SM  C22F 9066   5.702   2.013   5.229 -0.5106  0.2432  0.8783
   6923SM  H22F 9067   5.711   2.000   5.339  0.7113  2.4423  1.1028
   6923SM  H22G 9068   5.757   2.108   5.209 -0.9964  0.3304 -0.0832
   6923SM  C23F 9069   5.758   1.891   5.146 -0.0167 -0.0970 -0.0876
   6923SM  H23F 9070   5.864   1.870   5.167  0.5695 -1.9624 -4.0575
   6923SM  H23G 9071   5.736   1.892   5.037  2.3608 -1.4179 -0.6387
   6923SM  H23H 9072   5.703   1.800   5.179 -0.0072 -0.2344 -0.4485
   7023SM     N 9073   4.332   1.442   7.543 -0.3506  0.4357 -0.1318
   7023SM   C15 9074   4.406   1.503   7.433 -0.2060 -1.0159  0.1422
   7023SM  H15A 9075   4.342   1.551   7.361 -1.0454 -0.4066  1.2705
   7023SM  H15B 9076   4.468   1.426   7.389  4.7226  1.9030  1.1937
   7023SM  H15C 9077   4.469   1.585   7.464 -2.0171  0.6228 -0.3023
   7023SM   C14 9078   4.214   1.363   7.498  0.3299  0.5518  0.2387
   7023SM  H14A 9079   4.176   1.299   7.577  2.4559 -0.1661  0.7432
   7023SM  H14B 9080   4.230   1.300   7.411 -1.1855  1.7236 -0.9483
   7023SM  H14C 9081   4.137   1.435   7.475 -0.5005 -0.1928  0.6159
   7023SM   C13 9082   4.432   1.345   7.600  0.3241  0.5406 -0.4255
   7023SM  H13A 9083   4.386   1.262   7.652  0.5091  1.0241  0.5406
   7023SM  H13B 9084   4.499   1.394   7.669 -0.6362 -0.2265  1.1236
   7023SM  H13C 9085   4.501   1.302   7.529  0.7743 -0.2156  0.4393
   7023SM   C12 9086   4.282   1.546   7.645 -0.0838  0.2490  0.1409
   7023SM  H12A 9087   4.367   1.596   7.689  1.6282 -0.0983 -2.5708
   7023SM  H12B 9088   4.232   1.492   7.724 -0.0625  3.2632  2.4147
   7023SM   C11 9089   4.189   1.662   7.600 -0.3489 -0.6660 -0.6696
   7023SM  H11A 9090   4.236   1.704   7.509  0.1041  0.8240  0.2283
   7023SM  H11B 9091   4.189   1.745   7.673 -0.8890 -1.5959  0.4261
   7023SM     P 9092   3.943   1.715   7.523 -0.7089  0.2392  0.0617
   7023SM   O13 9093   3.806   1.668   7.560  0.5385 -0.5345  0.0501
   7023SM   O14 9094   3.984   1.855   7.561  0.3821  0.2394  0.6717
   7023SM   O11 9095   3.972   1.690   7.372 -0.2302 -0.0176 -0.1250
   7023SM   O12 9096   4.052   1.623   7.586  0.2464  0.1334 -0.0473
   7023SM   C1S 9097   3.928   1.575   7.304  0.1330  0.6970 -0.1416
   7023SM   H1S 9098   3.818   1.580   7.289 -0.1539 -1.5982  0.8214
   7023SM   H1T 9099   3.953   1.483   7.361 -0.9775  0.7238  0.4155
   7023SM    NF 9100   3.938   1.434   7.103  0.2480 -0.3626  0.5265
   7023SM   HNF 9101   3.991   1.352   7.124 -1.5018 -1.0608  2.6242
   7023SM   C2S 9102   3.989   1.557   7.158  0.7066  0.2547  0.4697
   7023SM   H2S 9103   3.944   1.639   7.098 -0.6117 -1.4474 -1.0170
   7023SM   C3S 9104   4.144   1.559   7.163 -0.2752  0.2578  0.1329
   7023SM   H3S 9105   4.177   1.468   7.217  2.4190  0.4648 -0.9898
   7023SM    O3 9106   4.196   1.672   7.233  0.1949  0.4864  0.7194
   7023SM   HO3 9107   4.125   1.681   7.297 -1.1211  0.6711 -0.7009
   7023SM   C4S 9108   4.199   1.561   7.023 -0.1731 -0.2229 -0.1149
   7023SM   H4S 9109   4.277   1.489   6.995  2.0012  2.0443 -0.2693
   7023SM   C5S 9110   4.178   1.659   6.935 -0.3226  0.1720  1.0098
   7023SM   H5S 9111   4.101   1.735   6.951 -0.8331  0.5808 -2.5867
   7023SM   C6S 9112   4.236   1.684   6.796  0.2837  0.5310 -0.5047
   7023SM   H6S 9113   4.341   1.648   6.797 -0.0289 -0.4032 -0.4781
   7023SM   H6T 9114   4.226   1.791   6.766  3.4917  0.6588 -1.5619
   7023SM   C7S 9115   4.166   1.594   6.692 -0.6447  0.2908 -0.6825
   7023SM   H7S 9116   4.066   1.632   6.664 -1.7678 -0.1915  2.3317
   7023SM   H7T 9117   4.150   1.494   6.737 -3.8130  0.2426 -1.7086
   7023SM   C8S 9118   4.248   1.579   6.563  0.2467  0.0422  0.1924
   7023SM   H8S 9119   4.330   1.507   6.581 -0.4347 -0.7046  0.3821
   7023SM   H8T 9120   4.295   1.673   6.526 -3.1525  1.5648 -0.7382
   7023SM   C9S 9121   4.167   1.515   6.450 -0.0782 -0.2526 -0.8779
   7023SM   H9S 9122   4.092   1.593   6.423  0.7196  0.1850 -1.9154
   7023SM   H9T 9123   4.123   1.421   6.488 -0.7391 -0.1015 -1.2559
   7023SM  C10S 9124   4.255   1.486   6.329 -0.5256  0.1849  0.2017
   7023SM  H10S 9125   4.337   1.419   6.363 -0.6707 -0.8734 -1.4294
   7023SM  H10T 9126   4.299   1.584   6.303  0.2949  0.2996  1.9045
   7023SM  C11S 9127   4.182   1.430   6.207  0.0509  0.0753 -0.1714
   7023SM  H11S 9128   4.083   1.479   6.195  0.4350  0.9879  0.3149
   7023SM  H11T 9129   4.156   1.323   6.221 -0.8917  0.2051 -0.8260
   7023SM  C12S 9130   4.263   1.433   6.070 -0.0905  0.2009 -0.5885
   7023SM  H12S 9131   4.352   1.367   6.079 -1.4036 -1.5034  0.5394
   7023SM  H12T 9132   4.301   1.536   6.060 -1.2455  1.0484  2.4942
   7023SM  C13S 9133   4.184   1.385   5.940  0.6580 -0.3050  0.3533
   7023SM  H13S 9134   4.168   1.276   5.959 -0.3014 -0.3409 -0.5612
   7023SM  H13T 9135   4.252   1.400   5.854  0.8616  1.7714  0.8346
   7023SM  C14S 9136   4.049   1.448   5.908  0.9577  0.7624 -0.5287
   7023SM  H14S 9137   4.057   1.559   5.901  1.6061  0.9711  2.1948
   7023SM  H14T 9138   3.971   1.425   5.985 -0.5705 -1.9915 -2.6787
   7023SM  C15S 9139   3.974   1.413   5.779 -0.0114  0.2660 -0.8964
   7023SM  H15S 9140   3.962   1.303   5.776 -0.2831  0.2285  0.6961
   7023SM  H15T 9141   4.042   1.450   5.698  0.7040 -0.8121 -0.8046
   7023SM  C16S 9142   3.836   1.481   5.753  0.0797  0.5672  0.6242
   7023SM  H16S 9143   3.769   1.456   5.838 -0.5754 -0.3178 -0.1427
   7023SM  H16T 9144   3.785   1.431   5.668  0.4626  0.8391  0.2287
   7023SM  C17S 9145   3.831   1.625   5.721 -0.4432 -0.7067 -0.1301
   7023SM  H17S 9146   3.911   1.666   5.786 -1.2966 -0.3179  0.6890
   7023SM  H17T 9147   3.739   1.671   5.762  1.0493  0.6349  1.9010
   7023SM  C18S 9148   3.849   1.657   5.569  0.1586 -0.7034 -0.2826
   7023SM  H18S 9149   3.844   1.568   5.502  0.6527  0.2906 -1.7070
   7023SM  H18T 9150   3.949   1.701   5.549  0.2880 -1.1796 -0.7031
   7023SM  H18U 9151   3.772   1.733   5.543 -1.0579 -1.3475  1.2899
   7023SM   C1F 9152   3.814   1.427   7.053  0.7823  0.5145  1.1668
   7023SM    OF 9153   3.732   1.520   7.042  0.3829  0.2732  0.3918
   7023SM   C2F 9154   3.777   1.291   7.000 -0.0363  0.2860 -0.1079
   7023SM   H2F 9155   3.668   1.295   6.979 -0.0087  3.7556 -0.1857
   7023SM   H2G 9156   3.807   1.217   7.077  1.2454  1.7674  0.8746
   7023SM   C3F 9157   3.849   1.253   6.872 -0.5069  0.0743  0.3273
   7023SM   H3F 9158   3.826   1.145   6.865 -1.3743  0.2491  0.4561
   7023SM   H3G 9159   3.959   1.271   6.878 -0.6882  1.0339  1.1381
   7023SM   C4F 9160   3.794   1.314   6.741  0.6095  0.3118 -0.6627
   7023SM   H4F 9161   3.808   1.425   6.734 -1.0801  0.5444 -0.7252
   7023SM   H4G 9162   3.687   1.284   6.746  1.2723 -2.0570  0.8903
   7023SM   C5F 9163   3.861   1.261   6.610  0.3633 -0.4846 -0.0186
   7023SM   H5F 9164   3.856   1.150   6.613 -3.4661 -0.4261  0.7634
   7023SM   H5G 9165   3.965   1.298   6.609  0.7767 -1.5096  1.2166
   7023SM   C6F 9166   3.786   1.310   6.494  0.3049  0.3300 -0.0766
   7023SM   H6F 9167   3.770   1.420   6.494  0.8173  0.5751  3.9231
   7023SM   H6G 9168   3.684   1.266   6.491 -0.2819  1.7071 -1.2618
   7023SM   C7F 9169   3.858   1.277   6.361  0.7386 -0.4815  0.8188
   7023SM   H7F 9170   3.892   1.171   6.356 -0.7664 -0.9307 -1.8499
   7023SM   H7G 9171   3.948   1.341   6.349  1.3860 -1.3739  0.8171
   7023SM   C8F 9172   3.763   1.302   6.244 -0.3272  0.0742 -0.0590
   7023SM   H8F 9173   3.794   1.403   6.212  0.7855  0.4932  2.1114
   7023SM   H8G 9174   3.655   1.314   6.266 -0.1972  0.1755  0.5412
   7023SM   C9F 9175   3.787   1.201   6.134 -0.8106  0.5710 -0.2764
   7023SM   H9F 9176   3.799   1.099   6.177  2.3255  0.1010 -1.9223
   7023SM   H9G 9177   3.886   1.212   6.085  0.1521  0.0696  1.4535
   7023SM  C10F 9178   3.670   1.198   6.031 -0.3549 -0.6090  0.3352
   7023SM  H10F 9179   3.656   1.300   5.989 -0.6413 -1.7091 -2.3774
   7023SM  H10G 9180   3.579   1.162   6.083 -0.0299 -0.2766  1.1585
   7023SM  C11F 9181   3.707   1.101   5.919 -0.1312  0.2295 -0.2176
   7023SM  H11F 9182   3.698   0.995   5.950  0.1490  0.2754  0.0150
   7023SM  H11G 9183   3.817   1.100   5.906 -0.0772  0.5031  0.2017
   7023SM  C12F 9184   3.634   1.124   5.782  1.0536 -0.4887 -0.8454
   7023SM  H12F 9185   3.614   1.231   5.756  1.8569  0.0613  0.6983
   7023SM  H12G 9186   3.537   1.071   5.791  0.3292  0.9093 -0.1693
   7023SM  C13F 9187   3.715   1.068   5.668 -0.2571  0.0809 -0.0170
   7023SM  H13F 9188   3.727   0.958   5.677 -2.0071 -0.1669 -0.3207
   7023SM  H13G 9189   3.815   1.116   5.672 -0.1271 -0.2832  1.8753
   7023SM  C14F 9190   3.638   1.083   5.534 -0.2395  0.3476 -0.6852
   7023SM  H14F 9191   3.539   1.126   5.561  1.1112  1.6208  2.8727
   7023SM  H14G 9192   3.638   0.987   5.477  0.8933 -1.1813  1.7513
   7023SM  C15F 9193   3.721   1.186   5.449 -0.3589  0.9010  0.0648
   7023SM  H15F 9194   3.747   1.283   5.495 -0.3904  1.1613 -0.4593
   7023SM  H15G 9195   3.661   1.223   5.363 -0.0394  1.2871  0.0046
   7023SM  C16F 9196   3.845   1.115   5.407  0.0523 -0.0816 -0.9347
   7023SM  H16F 9197   3.826   1.015   5.361 -0.8382  0.3629 -1.5662
   7023SM  H16G 9198   3.916   1.095   5.490 -0.4958 -0.0335 -0.4528
   7023SM  C17F 9199   3.930   1.198   5.308  0.0459  0.1711  0.6700
   7023SM  H17F 9200   3.949   1.296   5.356  1.2222  0.3878 -0.2086
   7023SM  H17G 9201   3.874   1.218   5.213  1.0380 -0.7992 -0.1499
   7023SM  C18F 9202   4.069   1.149   5.264 -0.5452 -0.3644 -0.2006
   7023SM  H18F 9203   4.049   1.044   5.234 -0.2186 -0.1785 -1.1256
   7023SM  H18G 9204   4.133   1.149   5.354 -1.6013 -1.0574  0.5727
   7023SM  C19F 9205   4.127   1.221   5.145 -0.4905 -0.6278  0.4479
   7023SM  H19F 9206   4.147   1.328   5.168 -0.7161 -0.8099  1.5767
   7023SM  H19G 9207   4.055   1.210   5.061 -0.9895  0.5588  0.6992
   7023SM  C20F 9208   4.274   1.187   5.105 -0.3835 -0.1455 -0.3095
   7023SM  H20F 9209   4.281   1.082   5.067 -0.7185 -0.0764 -0.5707
   7023SM  H20G 9210   4.334   1.180   5.198  1.7249 -2.3530 -1.7175
   7023SM  C21F 9211   4.319   1.293   5.003 -0.7191 -0.4681  0.3199
   7023SM  H21F 9212   4.296   1.396   5.037  0.7202 -0.0039 -0.0495
   7023SM  H21G 9213   4.262   1.268   4.910 -0.2463 -0.3656  0.0012
   7023SM  C22F 9214   4.470   1.283   4.961  0.6022  0.8334 -0.0162
   7023SM  H22F 9215   4.489   1.182   4.919  0.8779 -0.5269  3.0868
   7023SM  H22G 9216   4.548   1.289   5.041  2.4796  2.1004 -1.8514
   7023SM  C23F 9217   4.496   1.380   4.854  0.5522 -0.3670  0.0122
   7023SM  H23F 9218   4.457   1.477   4.894 -0.1420  0.0320 -1.5719
   7023SM  H23G 9219   4.440   1.370   4.759 -3.2848 -0.7595  2.0959
   7023SM  H23H 9220   4.604   1.385   4.831  0.3538 -1.8409 -1.3759
   7123SM     N 9221   5.064   6.764   7.597 -0.3614  0.0326  0.2900
   7123SM   C15 9222   5.122   6.848   7.703 -0.2673  0.4245  0.6802
   7123SM  H15A 9223   5.051   6.856   7.784  0.3536  0.4659  1.2320
   7123SM  H15B 9224   5.143   6.951   7.677 -1.6468  0.2763 -1.2200
   7123SM  H15C 9225   5.214   6.804   7.740  0.6118  2.5742  1.2138
   7123SM   C14 9226   4.952   6.848   7.547 -0.7847  0.4690 -0.2747
   7123SM  H14A 9227   4.896   6.805   7.466 -1.0702  0.6638 -0.1793
   7123SM  H14B 9228   4.984   6.947   7.521 -0.0641  0.6453  1.1722
   7123SM  H14C 9229   4.880   6.864   7.626 -3.0063 -2.0532 -1.6158
   7123SM   C13 9230   5.168   6.749   7.493  0.2679 -0.5410  0.4353
   7123SM  H13A 9231   5.148   6.684   7.410 -1.7676 -0.6119  0.9393
   7123SM  H13B 9232   5.266   6.716   7.526  1.2987 -0.9062 -2.7039
   7123SM  H13C 9233   5.181   6.845   7.446 -2.1881 -0.2755  0.2180
   7123SM   C12 9234   5.024   6.630   7.648  0.0780 -0.7393  0.6065
   7123SM  H12A 9235   4.963   6.643   7.737 -3.6749  0.1209 -1.8558
   7123SM  H12B 9236   5.112   6.569   7.665  0.1100 -1.2745 -1.3145
   7123SM   C11 9237   4.933   6.536   7.564 -0.5334 -0.3597 -0.0064
   7123SM  H11A 9238   4.944   6.430   7.597 -1.5104  0.1827  2.2838
   7123SM  H11B 9239   4.968   6.537   7.459 -0.1596  1.8815  0.1058
   7123SM     P 9240   4.704   6.492   7.475 -0.0912  0.0170  0.2573
   7123SM   O13 9241   4.721   6.348   7.501 -0.3744  0.1286  0.5052
   7123SM   O14 9242   4.568   6.544   7.495 -0.4194 -0.6774 -0.0897
   7123SM   O11 9243   4.754   6.531   7.331 -0.4469 -0.4515 -0.7129
   7123SM   O12 9244   4.796   6.579   7.572  0.4719  0.5023 -0.2604
   7123SM   C1S 9245   4.750   6.669   7.289  0.8518  0.0770 -0.1425
   7123SM   H1S 9246   4.849   6.713   7.315  1.1130  0.7982 -2.2073
   7123SM   H1T 9247   4.676   6.735   7.339 -0.2503 -1.3830  0.2208
   7123SM    NF 9248   4.611   6.626   7.092 -0.3306 -0.4717 -0.3798
   7123SM   HNF 9249   4.621   6.533   7.057 -1.6668 -0.3988 -1.0328
   7123SM   C2S 9250   4.736   6.685   7.142  0.1017 -0.2386  0.5360
   7123SM   H2S 9251   4.734   6.794   7.121  1.3136  0.0610  1.8077
   7123SM   C3S 9252   4.868   6.629   7.077 -0.2513 -0.0011  0.3317
   7123SM   H3S 9253   4.876   6.519   7.096 -0.6024  0.0152  0.5769
   7123SM    O3 9254   4.987   6.696   7.127 -0.0714  0.1899 -0.3080
   7123SM   HO3 9255   4.955   6.782   7.157  1.1193  0.8620 -0.8980
   7123SM   C4S 9256   4.866   6.647   6.923  1.1441 -0.2124  0.5777
   7123SM   H4S 9257   4.852   6.752   6.891 -0.1996 -0.2171  1.0766
   7123SM   C5S 9258   4.868   6.550   6.830 -0.3674  0.5458 -0.0468
   7123SM   H5S 9259   4.881   6.448   6.867  1.3769  0.8084  0.1135
   7123SM   C6S 9260   4.865   6.565   6.678 -0.4836 -0.4173 -0.7232
   7123SM   H6S 9261   4.777   6.507   6.644 -1.2920 -0.2319  0.9370
   7123SM   H6T 9262   4.955   6.516   6.636 -0.1002 -1.3004  1.0296
   7123SM   C7S 9263   4.872   6.703   6.610  0.4828 -0.3348 -0.1211
   7123SM   H7S 9264   4.896   6.691   6.502 -1.1015 -0.3220 -0.5028
   7123SM   H7T 9265   4.953   6.768   6.651  0.6662 -0.6734  0.0562
   7123SM   C8S 9266   4.735   6.775   6.599 -0.0462  0.1340 -0.3288
   7123SM   H8S 9267   4.699   6.803   6.700 -3.8492  1.8196 -1.9269
   7123SM   H8T 9268   4.662   6.708   6.549  1.9912 -2.4562 -0.0375
   7123SM   C9S 9269   4.745   6.904   6.519  0.2076  0.4600  0.2535
   7123SM   H9S 9270   4.844   6.950   6.540  1.1479 -0.9157 -0.9875
   7123SM   H9T 9271   4.669   6.975   6.557  0.8129  0.8895  0.6732
   7123SM  C10S 9272   4.723   6.892   6.366  0.1221 -0.4010  0.3948
   7123SM  H10S 9273   4.625   6.847   6.341  0.2782  1.2847 -4.1400
   7123SM  H10T 9274   4.790   6.813   6.325 -0.5084 -1.1344  0.7396
   7123SM  C11S 9275   4.740   7.015   6.283  0.5492 -0.6173 -0.2722
   7123SM  H11S 9276   4.844   7.055   6.287  1.1503 -2.1309 -0.0109
   7123SM  H11T 9277   4.673   7.094   6.323 -0.4885 -0.4277 -2.2466
   7123SM  C12S 9278   4.705   6.982   6.135 -0.3797  0.5036 -0.3751
   7123SM  H12S 9279   4.601   6.944   6.138 -0.1896 -0.2291 -2.0849
   7123SM  H12T 9280   4.776   6.901   6.107  0.7231  1.6959 -1.1469
   7123SM  C13S 9281   4.714   7.102   6.042  0.1732 -0.4205 -0.0056
   7123SM  H13S 9282   4.748   7.069   5.942 -2.2122 -1.9476 -0.3957
   7123SM  H13T 9283   4.785   7.173   6.090 -1.1215  1.2204 -0.4212
   7123SM  C14S 9284   4.580   7.170   6.025  0.1383 -0.3427  0.5086
   7123SM  H14S 9285   4.594   7.271   5.982  2.5843 -0.4887  0.8194
   7123SM  H14T 9286   4.530   7.185   6.122 -0.5004  0.4830  0.0634
   7123SM  C15S 9287   4.486   7.090   5.930 -0.0288 -0.0373 -0.3203
   7123SM  H15S 9288   4.475   6.986   5.969  0.9535 -0.3682 -0.8865
   7123SM  H15T 9289   4.542   7.071   5.836  2.5407 -1.0773  1.3259
   7123SM  C16S 9290   4.354   7.160   5.906  0.1849 -0.2539  0.4148
   7123SM  H16S 9291   4.372   7.236   5.828  0.0467 -1.0658 -0.4304
   7123SM  H16T 9292   4.311   7.212   5.995 -0.6345  0.5532 -0.4386
   7123SM  C17S 9293   4.254   7.060   5.836 -0.2212 -0.2696 -0.0164
   7123SM  H17S 9294   4.298   7.012   5.746 -2.1236 -0.1072 -1.0851
   7123SM  H17T 9295   4.168   7.117   5.796 -0.3641 -0.5138 -0.0587
   7123SM  C18S 9296   4.192   6.946   5.927 -0.6387 -0.6956  0.0670
   7123SM  H18S 9297   4.275   6.885   5.968  1.6355 -0.6298 -3.9222
   7123SM  H18T 9298   4.134   6.877   5.861  1.2455 -0.8320 -1.5538
   7123SM  H18U 9299   4.127   7.001   5.998  1.5424  1.4312  0.5564
   7123SM   C1F 9300   4.489   6.666   7.120 -0.4019 -0.6501 -0.1119
   7123SM    OF 9301   4.469   6.761   7.202 -0.5200 -1.1708  0.3595
   7123SM   C2F 9302   4.385   6.600   7.042  0.3759 -0.2882 -0.6324
   7123SM   H2F 9303   4.334   6.529   7.110  1.4379 -0.4500  0.0248
   7123SM   H2G 9304   4.421   6.548   6.951 -1.7654 -0.2739 -1.5220
   7123SM   C3F 9305   4.297   6.709   6.970  0.2405 -0.4208  0.2288
   7123SM   H3F 9306   4.257   6.782   7.044  1.2289  0.5401 -0.1510
   7123SM   H3G 9307   4.204   6.666   6.927 -0.8614  0.6004  1.5068
   7123SM   C4F 9308   4.386   6.784   6.865  0.7997  0.4128  0.0206
   7123SM   H4F 9309   4.446   6.706   6.814 -0.4999  0.0538 -1.0204
   7123SM   H4G 9310   4.459   6.853   6.913 -0.0324  0.2684  1.5585
   7123SM   C5F 9311   4.301   6.859   6.762  0.2627 -0.0753 -0.3667
   7123SM   H5F 9312   4.362   6.940   6.719  1.0212 -0.5084 -0.1222
   7123SM   H5G 9313   4.227   6.914   6.824  2.6026  1.7278  0.9787
   7123SM   C6F 9314   4.251   6.785   6.635 -0.3764 -0.6484  0.5854
   7123SM   H6F 9315   4.170   6.712   6.657  0.3137 -1.5176  0.3146
   7123SM   H6G 9316   4.319   6.720   6.575 -2.5169  0.0360 -2.8842
   7123SM   C7F 9317   4.191   6.883   6.536  0.4980 -0.3282 -0.8565
   7123SM   H7F 9318   4.127   6.959   6.585  0.0489 -0.6706 -0.9117
   7123SM   H7G 9319   4.115   6.831   6.474 -2.0812  2.6147 -0.3911
   7123SM   C8F 9320   4.291   6.949   6.445 -0.1005 -0.4720  0.4742
   7123SM   H8F 9321   4.360   6.865   6.421  1.9875  1.1262  0.5810
   7123SM   H8G 9322   4.352   7.024   6.499 -0.1904 -0.8820  1.1626
   7123SM   C9F 9323   4.230   7.008   6.319 -0.0614  0.0447  0.3084
   7123SM   H9F 9324   4.167   6.934   6.266  2.5975 -1.9915 -0.2269
   7123SM   H9G 9325   4.317   7.026   6.253  0.3786 -1.0597  0.5641
   7123SM  C10F 9326   4.159   7.133   6.339 -0.1050 -0.2581 -0.3316
   7123SM  H10F 9327   4.234   7.203   6.382 -2.1509  0.8420  1.6198
   7123SM  H10G 9328   4.082   7.110   6.415  0.7755 -1.4058  0.2521
   7123SM  C11F 9329   4.102   7.206   6.212  0.1996  0.4059 -0.5257
   7123SM  H11F 9330   4.015   7.145   6.179  0.4577  0.4654 -1.3239
   7123SM  H11G 9331   4.170   7.202   6.124 -1.4578 -1.6624 -1.8246
   7123SM  C12F 9332   4.057   7.341   6.247 -0.2922 -0.4435  0.2438
   7123SM  H12F 9333   4.139   7.404   6.289 -0.8245 -0.6940  1.7345
   7123SM  H12G 9334   3.981   7.326   6.327 -0.9199 -1.8022 -0.5712
   7123SM  C13F 9335   4.005   7.421   6.130  0.7842 -0.5701 -0.5981
   7123SM  H13F 9336   3.992   7.518   6.183  0.7574 -0.7274 -0.3135
   7123SM  H13G 9337   3.903   7.383   6.109  1.2049 -2.4633  0.4887
   7123SM  C14F 9338   4.095   7.433   6.007 -0.4985 -0.0597  0.9020
   7123SM  H14F 9339   4.107   7.335   5.955  0.0534  0.3845  0.1837
   7123SM  H14G 9340   4.195   7.467   6.040  1.6368 -0.4777 -4.2503
   7123SM  C15F 9341   4.040   7.538   5.910  0.1196  0.1115 -0.0238
   7123SM  H15F 9342   4.010   7.632   5.961 -0.3085  0.6448 -1.2108
   7123SM  H15G 9343   3.948   7.495   5.866  0.7572 -2.3245  0.8562
   7123SM  C16F 9344   4.140   7.572   5.799  0.5371  0.4979  1.0109
   7123SM  H16F 9345   4.168   7.479   5.745  3.0461  2.1425 -0.7250
   7123SM  H16G 9346   4.230   7.609   5.853  0.4361 -2.1235  3.2237
   7123SM  C17F 9347   4.089   7.667   5.691  0.0093  0.1014 -0.5527
   7123SM  H17F 9348   4.045   7.759   5.735  0.4166  0.7193 -1.4273
   7123SM  H17G 9349   4.002   7.613   5.648 -0.2282  0.1708 -0.1595
   7123SM  C18F 9350   4.183   7.711   5.577  0.8092 -0.2655 -0.1515
   7123SM  H18F 9351   4.220   7.627   5.514 -0.2588 -1.4474  0.7452
   7123SM  H18G 9352   4.278   7.745   5.623  1.0435 -0.4532 -0.4896
   7123SM  C19F 9353   4.110   7.816   5.488 -0.2472  0.7434 -0.4045
   7123SM  H19F 9354   4.063   7.887   5.559  0.4070  1.0602 -0.2873
   7123SM  H19G 9355   4.031   7.760   5.433  0.4061 -0.1439 -0.4668
   7123SM  C20F 9356   4.194   7.889   5.384 -0.0550 -0.4135 -0.2750
   7123SM  H20F 9357   4.136   7.983   5.366 -0.0407 -0.4117 -0.3130
   7123SM  H20G 9358   4.188   7.824   5.294  0.6224  0.9779 -1.3744
   7123SM  C21F 9359   4.331   7.937   5.427  0.0010  0.1709  0.5408
   7123SM  H21F 9360   4.387   7.847   5.460 -1.6759 -0.9181  0.4972
   7123SM  H21G 9361   4.321   8.016   5.505  1.2407  0.1223  0.7649
   7123SM  C22F 9362   4.404   8.017   5.313 -0.2325  0.6602  0.0865
   7123SM  H22F 9363   4.498   8.047   5.364 -0.9260 -0.0307  1.8676
   7123SM  H22G 9364   4.347   8.103   5.273  0.4959  0.4860 -1.3687
   7123SM  C23F 9365   4.454   7.933   5.188  0.0928  0.9198  0.3865
   7123SM  H23F 9366   4.540   7.877   5.231 -0.9458 -0.1367  1.1108
   7123SM  H23G 9367   4.491   7.999   5.106 -1.5193  0.7201 -0.5319
   7123SM  H23H 9368   4.385   7.864   5.135  1.0457  1.2247 -1.3313
   7223SM     N 9369   5.835   1.913   7.782 -0.4094  0.0367  0.3927
   7223SM   C15 9370   5.971   1.880   7.727 -0.2931  0.3556 -0.0895
   7223SM  H15A 9371   5.964   1.877   7.619  0.9791  2.2046 -0.2650
   7223SM  H15B 9372   6.013   1.789   7.767 -0.4746  0.3003 -0.0239
   7223SM  H15C 9373   6.045   1.956   7.740  0.4860  0.3404 -3.5889
   7223SM   C14 9374   5.830   1.928   7.935  0.4814  0.0722  0.5337
   7223SM  H14A 9375   5.743   1.985   7.966  2.0148  1.9738  1.6458
   7223SM  H14B 9376   5.914   1.983   7.977 -0.1528 -0.5944  2.8348
   7223SM  H14C 9377   5.820   1.837   7.992 -2.7842 -0.3270 -0.4701
   7223SM   C13 9378   5.797   2.041   7.723  0.1839  0.0834  0.1978
   7223SM  H13A 9379   5.800   2.027   7.616 -0.1950 -1.5275  0.3685
   7223SM  H13B 9380   5.861   2.125   7.744 -0.5035  1.2790 -2.1209
   7223SM  H13C 9381   5.695   2.069   7.749  0.1094 -1.5569  1.9324
   7223SM   C12 9382   5.732   1.800   7.748  0.0835  0.3664  0.4578
   7223SM  H12A 9383   5.644   1.820   7.808  2.6265  4.0037  3.4173
   7223SM  H12B 9384   5.774   1.713   7.795 -1.0765 -1.1454 -1.1498
   7223SM   C11 9385   5.705   1.756   7.602 -0.2551 -0.4218 -0.4344
   7223SM  H11A 9386   5.635   1.669   7.598 -0.3657 -0.3793  0.3665
   7223SM  H11B 9387   5.794   1.720   7.546 -2.3762 -1.7088 -3.2491
   7223SM     P 9388   5.514   1.912   7.513 -0.5776  0.0828 -0.0444
   7223SM   O13 9389   5.429   1.802   7.467  0.1333  0.5696 -0.3087
   7223SM   O14 9390   5.484   1.972   7.649  0.0735  0.1526 -0.0634
   7223SM   O11 9391   5.502   2.026   7.405 -0.0248  0.3064  0.3147
   7223SM   O12 9392   5.662   1.864   7.518 -0.0816  0.1231  0.2627
   7223SM   C1S 9393   5.590   2.035   7.294  0.0973 -0.1992 -0.5063
   7223SM   H1S 9394   5.633   1.935   7.268  1.4388  0.6161 -1.5523
   7223SM   H1T 9395   5.670   2.106   7.322  0.3324  0.5379 -2.8330
   7223SM    NF 9396   5.641   2.119   7.052 -0.1205  0.4050 -0.2034
   7223SM   HNF 9397   5.704   2.197   7.057  1.9112 -0.9998 -2.0833
   7223SM   C2S 9398   5.538   2.107   7.156 -0.6556  0.5864 -0.1701
   7223SM   H2S 9399   5.459   2.040   7.118 -0.3119 -0.5144  1.0118
   7223SM   C3S 9400   5.488   2.252   7.195  0.3555  0.3040 -0.2919
   7223SM   H3S 9401   5.572   2.304   7.246 -0.8159 -0.2158  2.3688
   7223SM    O3 9402   5.388   2.244   7.296  0.4993  0.4945  0.2113
   7223SM   HO3 9403   5.408   2.164   7.346 -1.0586  0.6340  1.1169
   7223SM   C4S 9404   5.430   2.319   7.063 -1.0007  0.1774 -0.4402
   7223SM   H4S 9405   5.334   2.282   7.024 -1.0867 -0.4206  0.3154
   7223SM   C5S 9406   5.498   2.418   7.006  0.1407  0.1872  0.5816
   7223SM   H5S 9407   5.597   2.447   7.044  0.1212  0.5852  0.3330
   7223SM   C6S 9408   5.450   2.494   6.882  0.0460 -0.4875  0.5441
   7223SM   H6S 9409   5.432   2.602   6.902  0.4657 -0.5537  1.3034
   7223SM   H6T 9410   5.359   2.441   6.845  1.4254 -3.0092  0.5367
   7223SM   C7S 9411   5.560   2.499   6.762  0.3493 -0.8322 -0.0785
   7223SM   H7S 9412   5.593   2.402   6.721  0.9606  0.2652 -2.3650
   7223SM   H7T 9413   5.647   2.550   6.809  0.0875  0.9586 -1.4184
   7223SM   C8S 9414   5.497   2.573   6.645 -0.1527 -0.2268 -0.2452
   7223SM   H8S 9415   5.437   2.665   6.662 -1.7998 -0.6716 -3.1532
   7223SM   H8T 9416   5.435   2.494   6.597 -1.4040 -0.4894  1.6883
   7223SM   C9S 9417   5.596   2.607   6.541 -0.2271 -0.3474  0.5446
   7223SM   H9S 9418   5.676   2.671   6.584  1.6368 -1.4855 -1.0789
   7223SM   H9T 9419   5.547   2.671   6.465 -0.2316 -1.4481 -0.3942
   7223SM  C10S 9420   5.669   2.492   6.470 -0.9200 -0.4812 -0.3815
   7223SM  H10S 9421   5.600   2.410   6.439 -1.6271  0.0601 -0.2636
   7223SM  H10T 9422   5.732   2.453   6.553  0.0582  0.5448 -0.6269
   7223SM  C11S 9423   5.767   2.529   6.361 -0.1699 -0.0096  0.2554
   7223SM  H11S 9424   5.834   2.441   6.351 -0.0636 -0.2088  2.3234
   7223SM  H11T 9425   5.816   2.621   6.399 -1.9326  1.6612 -1.2316
   7223SM  C12S 9426   5.702   2.547   6.222 -0.2385 -0.2120  0.2294
   7223SM  H12S 9427   5.624   2.626   6.226 -0.1807 -0.0294 -1.3108
   7223SM  H12T 9428   5.656   2.453   6.185 -2.0866  0.8222 -0.2293
   7223SM  C13S 9429   5.811   2.598   6.117  0.2448 -0.5168  0.2540
   7223SM  H13S 9430   5.871   2.678   6.165  1.5046 -0.7596 -0.8536
   7223SM  H13T 9431   5.771   2.640   6.022 -0.9832 -1.5597  0.2856
   7223SM  C14S 9432   5.917   2.495   6.076 -0.4275 -0.0670  0.0725
   7223SM  H14S 9433   5.869   2.409   6.025 -1.7329  0.6798 -0.0111
   7223SM  H14T 9434   5.963   2.446   6.164 -0.0840 -0.2721 -0.2204
   7223SM  C15S 9435   6.020   2.543   5.968  0.4127  0.7027 -0.1073
   7223SM  H15S 9436   6.110   2.479   5.974 -0.2158 -0.3881 -1.7128
   7223SM  H15T 9437   6.050   2.650   5.979  2.2151  0.2763 -0.5004
   7223SM  C16S 9438   5.961   2.547   5.823  0.1038  0.1643  0.1328
   7223SM  H16S 9439   5.866   2.606   5.829 -1.0756 -1.7274  0.9122
   7223SM  H16T 9440   5.937   2.444   5.790  0.4719  0.3245 -0.6494
   7223SM  C17S 9441   6.061   2.608   5.729 -0.5213 -0.0092  0.0865
   7223SM  H17S 9442   6.145   2.538   5.711  0.3121  1.2735 -1.3253
   7223SM  H17T 9443   6.111   2.702   5.763 -0.7538  0.8820 -1.8707
   7223SM  C18S 9444   6.011   2.639   5.584  0.2688  0.0514 -0.9171
   7223SM  H18S 9445   5.920   2.702   5.589 -0.2056 -0.7138  0.9827
   7223SM  H18T 9446   5.981   2.542   5.538 -0.3493 -1.0968  1.7084
   7223SM  H18U 9447   6.086   2.697   5.527  2.9826  0.5706  2.7947
   7223SM   C1F 9448   5.679   2.021   6.976  0.8938  0.3463 -0.7490
   7223SM    OF 9449   5.634   1.904   6.999  0.1633 -0.4492 -0.0993
   7223SM   C2F 9450   5.778   2.042   6.856 -0.5219 -0.2895  0.4867
   7223SM   H2F 9451   5.762   1.957   6.787 -0.8960  0.7156 -0.6963
   7223SM   H2G 9452   5.883   2.040   6.892  0.2483  0.0361 -1.6023
   7223SM   C3F 9453   5.765   2.178   6.785  0.8325 -0.6884 -0.1410
   7223SM   H3F 9454   5.766   2.267   6.851 -0.3458  0.6112 -1.7836
   7223SM   H3G 9455   5.675   2.177   6.720 -0.4044  0.0771  1.5037
   7223SM   C4F 9456   5.884   2.216   6.699 -0.2947  0.2731 -0.7650
   7223SM   H4F 9457   5.983   2.189   6.741  0.0480  1.5722 -0.6739
   7223SM   H4G 9458   5.875   2.327   6.699  0.3450  0.3256 -0.9977
   7223SM   C5F 9459   5.882   2.157   6.559 -0.2615 -0.3506  0.2861
   7223SM   H5F 9460   5.832   2.216   6.479 -0.4075  0.3275  0.8685
   7223SM   H5G 9461   5.821   2.065   6.568  1.0932 -1.3594 -0.4780
   7223SM   C6F 9462   6.025   2.115   6.515 -1.1663 -0.3847  0.6078
   7223SM   H6F 9463   6.070   2.042   6.584  0.5941 -0.5018 -0.5866
   7223SM   H6G 9464   6.091   2.204   6.504 -0.4599 -0.9948 -0.2153
   7223SM   C7F 9465   6.038   2.049   6.375 -0.1508 -0.3638 -0.0889
   7223SM   H7F 9466   5.972   1.960   6.364  0.3893 -0.5680 -2.1143
   7223SM   H7G 9467   6.142   2.012   6.366  0.6058  0.9467  2.4439
   7223SM   C8F 9468   6.007   2.141   6.255  0.2442  0.3748 -0.3843
   7223SM   H8F 9469   6.074   2.230   6.260 -0.6859  1.0556  0.3462
   7223SM   H8G 9470   5.902   2.178   6.253 -0.1857 -0.6340 -3.6338
   7223SM   C9F 9471   6.032   2.063   6.122  0.2308  0.3385  0.4987
   7223SM   H9F 9472   5.991   1.960   6.131  1.9628 -0.4820 -0.3618
   7223SM   H9G 9473   6.140   2.055   6.096  0.1696 -0.2472  0.4063
   7223SM  C10F 9474   5.964   2.131   5.997 -1.0117  0.3248  0.1666
   7223SM  H10F 9475   6.005   2.233   5.985  1.0092 -0.4545  0.0102
   7223SM  H10G 9476   5.857   2.144   6.026 -1.5665 -0.5412 -1.3615
   7223SM  C11F 9477   5.956   2.047   5.869 -0.2166 -0.0355 -0.2436
   7223SM  H11F 9478   5.886   1.963   5.883 -0.0867 -0.0621  0.2466
   7223SM  H11G 9479   6.063   2.026   5.846 -0.4720 -0.6482 -0.9174
   7223SM  C12F 9480   5.914   2.124   5.747  0.8763  0.1060  0.3559
   7223SM  H12F 9481   5.938   2.063   5.658 -1.6464  2.0608 -1.8078
   7223SM  H12G 9482   5.966   2.222   5.742  0.7462  0.1179 -2.8570
   7223SM  C13F 9483   5.763   2.162   5.742  0.0760 -0.0274  0.0669
   7223SM  H13F 9484   5.749   2.247   5.812 -0.9157 -0.1735  0.0584
   7223SM  H13G 9485   5.702   2.073   5.770  2.7392 -1.8150  0.6744
   7223SM  C14F 9486   5.713   2.211   5.609 -0.7796 -0.2406 -0.4184
   7223SM  H14F 9487   5.605   2.235   5.622 -0.2395  1.1065  2.2223
   7223SM  H14G 9488   5.726   2.142   5.523  0.1237 -2.6074  1.4754
   7223SM  C15F 9489   5.772   2.354   5.561 -0.5127 -0.5123 -0.6555
   7223SM  H15F 9490   5.883   2.356   5.556 -0.4139  2.8218  0.5915
   7223SM  H15G 9491   5.737   2.426   5.637  1.3191 -0.4225  0.1613
   7223SM  C16F 9492   5.717   2.390   5.421  0.2727  0.1929 -0.5190
   7223SM  H16F 9493   5.615   2.347   5.410 -0.2082  0.3357  2.4727
   7223SM  H16G 9494   5.783   2.340   5.348 -0.7119 -3.2276  0.7186
   7223SM  C17F 9495   5.704   2.542   5.387  0.7670  0.6675 -0.9730
   7223SM  H17F 9496   5.807   2.582   5.393  0.4261  1.3820  0.7639
   7223SM  H17G 9497   5.652   2.594   5.470  0.0904 -0.3381 -0.7475
   7223SM  C18F 9498   5.619   2.564   5.262 -0.4745  0.3342 -0.0719
   7223SM  H18F 9499   5.637   2.474   5.200 -0.4589 -0.2491  0.7610
   7223SM  H18G 9500   5.665   2.651   5.211  1.1268  1.6382  3.3029
   7223SM  C19F 9501   5.466   2.584   5.288 -0.0777 -0.8916 -0.1538
   7223SM  H19F 9502   5.458   2.661   5.367 -0.2331 -0.3644 -0.6748
   7223SM  H19G 9503   5.421   2.495   5.336  1.1719 -0.9754  0.9076
   7223SM  C20F 9504   5.382   2.636   5.171  0.2003 -0.0995  0.5462
   7223SM  H20F 9505   5.403   2.743   5.151 -1.9259  0.1255 -0.7009
   7223SM  H20G 9506   5.277   2.624   5.206  0.0754 -3.8102 -0.6540
   7223SM  C21F 9507   5.393   2.568   5.037  0.6377  0.5578 -0.3211
   7223SM  H21F 9508   5.360   2.463   5.056 -0.8490  1.1540  0.5518
   7223SM  H21G 9509   5.499   2.561   5.005  0.4115  1.9934 -1.4730
   7223SM  C22F 9510   5.295   2.629   4.935 -0.4256  0.3017  0.4133
   7223SM  H22F 9511   5.303   2.740   4.937  0.9361  0.2964 -1.2844
   7223SM  H22G 9512   5.190   2.597   4.950 -0.0275 -1.3084 -0.0612
   7223SM  C23F 9513   5.336   2.578   4.791  0.5153  0.3124  0.4396
   7223SM  H23F 9514   5.443   2.554   4.772  0.0854 -0.4761 -1.1065
   7223SM  H23G 9515   5.320   2.650   4.709 -1.6575  0.0524  0.5772
   7223SM  H23H 9516   5.288   2.483   4.762 -0.7398  0.3049  2.3293
   7323SM     N 9517   4.359   0.696   7.341  0.0706 -0.6167 -0.2654
   7323SM   C15 9518   4.271   0.614   7.430 -0.1685  0.0443  0.1677
   7323SM  H15A 9519   4.316   0.601   7.528 -0.3785 -1.6216  0.0784
   7323SM  H15B 9520   4.263   0.515   7.388  0.6225  1.0240 -2.5155
   7323SM  H15C 9521   4.172   0.655   7.436 -0.7017 -1.2105  0.3472
   7323SM   C14 9522   4.344   0.648   7.197  0.3027 -0.2482 -0.6870
   7323SM  H14A 9523   4.245   0.658   7.155  0.3839 -1.2497 -1.1699
   7323SM  H14B 9524   4.369   0.543   7.191  1.5107 -0.3755  3.3633
   7323SM  H14C 9525   4.415   0.699   7.134  3.3757 -0.0651  2.5864
   7323SM   C13 9526   4.310   0.832   7.347 -0.1230 -0.3168 -0.7517
   7323SM  H13A 9527   4.310   0.874   7.446  0.5620  1.6085 -1.5172
   7323SM  H13B 9528   4.205   0.831   7.321  0.1432  0.8913 -2.0107
   7323SM  H13C 9529   4.367   0.908   7.295 -0.3109  2.0943  2.2902
   7323SM   C12 9530   4.501   0.684   7.376  0.1588  0.4879 -0.3302
   7323SM  H12A 9531   4.544   0.587   7.357  0.8460  0.5442  0.8864
   7323SM  H12B 9532   4.521   0.712   7.478 -0.3099 -1.2538  0.2799
   7323SM   C11 9533   4.593   0.779   7.290  0.0260  0.2581 -0.1679
   7323SM  H11A 9534   4.559   0.777   7.185  0.3215 -0.5124 -0.2544
   7323SM  H11B 9535   4.695   0.737   7.289  0.3335  0.7513  2.4140
   7323SM     P 9536   4.676   0.941   7.472  0.0031 -0.0065  0.4268
   7323SM   O13 9537   4.584   0.979   7.576 -0.3296  0.4537  0.2239
   7323SM   O14 9538   4.770   0.831   7.494  0.0700 -0.1688 -0.2230
   7323SM   O11 9539   4.749   1.071   7.436 -0.5135  0.3967 -0.2763
   7323SM   O12 9540   4.585   0.909   7.345  0.4162 -0.0761  0.3792
   7323SM   C1S 9541   4.825   1.095   7.317  0.1204  0.4668  0.3983
   7323SM   H1S 9542   4.877   1.001   7.287 -0.5631  0.5421 -1.1013
   7323SM   H1T 9543   4.901   1.172   7.340 -2.2575  2.5825  1.6647
   7323SM    NF 9544   4.822   1.165   7.083  0.1398  0.6994  0.0835
   7323SM   HNF 9545   4.886   1.241   7.094 -0.5742  1.0645  2.2280
   7323SM   C2S 9546   4.738   1.138   7.198 -0.1135  0.0051 -0.2453
   7323SM   H2S 9547   4.665   1.057   7.176  0.8628 -0.4488 -1.9874
   7323SM   C3S 9548   4.658   1.264   7.239 -0.0539  0.1996 -0.5150
   7323SM   H3S 9549   4.726   1.337   7.288  1.4539 -1.0949 -0.5978
   7323SM    O3 9550   4.563   1.240   7.348  0.4921  0.4932 -0.2330
   7323SM   HO3 9551   4.581   1.153   7.385 -0.3088  1.3145  2.2419
   7323SM   C4S 9552   4.601   1.332   7.110  0.4215  0.3136 -0.4034
   7323SM   H4S 9553   4.541   1.264   7.048 -0.0363 -0.8091  1.2100
   7323SM   C5S 9554   4.630   1.455   7.066 -0.2175 -0.0358  0.5361
   7323SM   H5S 9555   4.695   1.521   7.125  1.1142 -0.8610  0.0447
   7323SM   C6S 9556   4.577   1.505   6.941 -0.2715 -0.4558  0.0585
   7323SM   H6S 9557   4.614   1.609   6.928  2.0821 -1.1393  0.7589
   7323SM   H6T 9558   4.466   1.500   6.934 -0.2467 -1.8509  0.3495
   7323SM   C7S 9559   4.629   1.412   6.826 -0.5091 -0.6796 -0.1082
   7323SM   H7S 9560   4.579   1.313   6.820 -1.6355 -0.1518  0.3832
   7323SM   H7T 9561   4.738   1.392   6.836  0.4657  2.4701 -2.6218
   7323SM   C8S 9562   4.624   1.478   6.686 -0.2181  1.2480  0.7950
   7323SM   H8S 9563   4.678   1.574   6.667  0.2522  0.7741 -0.3361
   7323SM   H8T 9564   4.517   1.492   6.660 -0.5366 -0.2401  1.2252
   7323SM   C9S 9565   4.679   1.378   6.581  0.0963 -0.5659 -0.1004
   7323SM   H9S 9566   4.629   1.281   6.604 -0.1201  0.1821  3.1587
   7323SM   H9T 9567   4.786   1.356   6.603  0.2890 -0.6227 -1.0546
   7323SM  C10S 9568   4.652   1.418   6.435  0.5784  0.0364 -0.4067
   7323SM  H10S 9569   4.544   1.407   6.413  0.7641  1.5969 -2.4279
   7323SM  H10T 9570   4.687   1.345   6.358 -2.2853 -0.6336 -1.1714
   7323SM  C11S 9571   4.697   1.557   6.395  0.0554 -0.4249 -0.2099
   7323SM  H11S 9572   4.791   1.587   6.447 -1.0303  2.3143  0.3451
   7323SM  H11T 9573   4.622   1.629   6.435  1.0463  1.0050 -0.8388
   7323SM  C12S 9574   4.717   1.587   6.247 -0.3783 -0.7307 -0.7297
   7323SM  H12S 9575   4.818   1.552   6.218 -0.6261 -0.6413 -1.7112
   7323SM  H12T 9576   4.725   1.698   6.251  0.5877 -0.7684  3.6407
   7323SM  C13S 9577   4.608   1.547   6.149 -0.1532 -0.5314 -0.3172
   7323SM  H13S 9578   4.503   1.578   6.168  0.1117 -0.1686  0.6673
   7323SM  H13T 9579   4.603   1.437   6.133  1.5531 -0.4769 -1.4947
   7323SM  C14S 9580   4.641   1.597   6.011 -0.3395 -0.0045 -0.1004
   7323SM  H14S 9581   4.737   1.554   5.974 -0.0426  1.4927 -1.1658
   7323SM  H14T 9582   4.659   1.705   6.026  1.3968 -0.3117  0.2620
   7323SM  C15S 9583   4.530   1.562   5.908 -0.2625  0.3040  1.0347
   7323SM  H15S 9584   4.443   1.617   5.949 -0.4716  0.4308  0.4285
   7323SM  H15T 9585   4.499   1.457   5.888  2.5357 -0.3909 -0.1752
   7323SM  C16S 9586   4.552   1.630   5.772  0.1741  0.4365  0.8812
   7323SM  H16S 9587   4.450   1.631   5.727 -0.5530  2.4330  2.4444
   7323SM  H16T 9588   4.620   1.572   5.706  0.6067 -0.1354  1.8127
   7323SM  C17S 9589   4.593   1.776   5.766 -0.3854 -0.4681  0.0067
   7323SM  H17S 9590   4.680   1.792   5.834 -1.5758  1.2844  1.1846
   7323SM  H17T 9591   4.515   1.849   5.797  0.0856 -0.1567  0.4814
   7323SM  C18S 9592   4.628   1.817   5.621  1.0981 -0.6765 -0.6776
   7323SM  H18S 9593   4.665   1.921   5.625  0.9553 -0.6545  0.5143
   7323SM  H18T 9594   4.547   1.807   5.546  0.3596  1.0526 -0.1466
   7323SM  H18U 9595   4.707   1.751   5.580  2.6468 -1.1756  2.7444
   7323SM   C1F 9596   4.855   1.059   7.009  0.2942 -0.2754 -0.2632
   7323SM    OF 9597   4.805   0.952   7.037 -0.6375 -0.3517 -0.2702
   7323SM   C2F 9598   4.965   1.086   6.906  0.0721 -0.2766 -0.2300
   7323SM   H2F 9599   5.060   1.056   6.956  0.7517 -1.4739 -2.0862
   7323SM   H2G 9600   4.973   1.192   6.876  2.1137 -0.6572 -1.2616
   7323SM   C3F 9601   4.945   1.005   6.777  0.3618 -0.2461  0.3744
   7323SM   H3F 9602   4.844   1.022   6.735  0.2376 -0.9785  0.3562
   7323SM   H3G 9603   4.951   0.898   6.808  1.5286 -0.4062 -0.3273
   7323SM   C4F 9604   5.058   1.021   6.671 -0.2359 -0.2343  0.0577
   7323SM   H4F 9605   5.061   0.920   6.625  0.2531 -0.7035  1.0912
   7323SM   H4G 9606   5.155   1.032   6.724  0.5910 -0.8142 -1.2918
   7323SM   C5F 9607   5.030   1.137   6.575 -0.5454 -0.1399 -0.6529
   7323SM   H5F 9608   5.128   1.186   6.558  0.3751 -1.0212  1.7247
   7323SM   H5G 9609   4.978   1.216   6.633  0.8508 -0.2532  0.8465
   7323SM   C6F 9610   4.944   1.092   6.455 -0.2842 -0.4050 -0.5442
   7323SM   H6F 9611   4.842   1.060   6.486 -0.0408 -0.4299  0.2549
   7323SM   H6G 9612   4.991   0.999   6.418  1.1360  0.0732  0.0068
   7323SM   C7F 9613   4.929   1.190   6.340 -0.1412  0.0604 -0.6819
   7323SM   H7F 9614   5.024   1.181   6.283  0.6737 -0.1200  0.6850
   7323SM   H7G 9615   4.904   1.286   6.389  1.0268  0.4318 -0.7830
   7323SM   C8F 9616   4.822   1.137   6.244 -0.2236  0.5422  0.2946
   7323SM   H8F 9617   4.720   1.134   6.289 -1.5229 -1.3732 -2.5443
   7323SM   H8G 9618   4.853   1.032   6.225  0.4077  0.6921  0.4853
   7323SM   C9F 9619   4.829   1.207   6.115 -0.0836  0.2330 -0.1768
   7323SM   H9F 9620   4.933   1.208   6.076 -1.0967  0.3963 -3.1754
   7323SM   H9G 9621   4.799   1.313   6.124 -0.3637  0.0125  2.1332
   7323SM  C10F 9622   4.738   1.136   6.011  0.2281 -0.2217  0.5140
   7323SM  H10F 9623   4.633   1.146   6.046  0.6498  0.1032  1.7621
   7323SM  H10G 9624   4.773   1.031   6.014 -0.6730 -0.5184  0.9977
   7323SM  C11F 9625   4.747   1.210   5.870  0.1257  0.4769 -0.0826
   7323SM  H11F 9626   4.848   1.186   5.829  0.9879  1.3377  1.4413
   7323SM  H11G 9627   4.738   1.319   5.885 -0.3027  0.5256 -0.6960
   7323SM  C12F 9628   4.641   1.147   5.767  0.2073  0.3019 -0.0191
   7323SM  H12F 9629   4.546   1.191   5.804 -0.0982  0.6255 -1.1718
   7323SM  H12G 9630   4.636   1.036   5.779  0.0083  0.3668  0.5304
   7323SM  C13F 9631   4.656   1.196   5.624 -0.1871 -0.1432  0.0457
   7323SM  H13F 9632   4.755   1.153   5.597 -0.4594 -1.0496  0.4549
   7323SM  H13G 9633   4.657   1.307   5.612 -1.5192 -0.2026 -0.8447
   7323SM  C14F 9634   4.563   1.152   5.514  0.2269 -0.2634  0.4277
   7323SM  H14F 9635   4.563   1.041   5.515 -1.6295 -0.3283 -1.3439
   7323SM  H14G 9636   4.592   1.194   5.415 -0.5761  1.1515  0.7733
   7323SM  C15F 9637   4.407   1.184   5.541 -0.5113 -0.4162 -0.9430
   7323SM  H15F 9638   4.395   1.137   5.641  0.8584  1.6411  0.2567
   7323SM  H15G 9639   4.343   1.124   5.473 -1.2413 -1.3918  0.5384
   7323SM  C16F 9640   4.360   1.328   5.525 -0.4812 -0.2069  0.0955
   7323SM  H16F 9641   4.407   1.380   5.611  0.8137 -1.3475  0.1119
   7323SM  H16G 9642   4.249   1.321   5.524 -0.3874 -2.1931 -0.6906
   7323SM  C17F 9643   4.409   1.406   5.398 -0.6693  0.0902  0.0009
   7323SM  H17F 9644   4.404   1.343   5.307 -1.1952 -0.3162  0.3087
   7323SM  H17G 9645   4.515   1.439   5.408 -1.8205  3.6336  2.6790
   7323SM  C18F 9646   4.332   1.538   5.382 -0.4679  0.5072 -0.4902
   7323SM  H18F 9647   4.353   1.602   5.470 -0.5685 -0.5654  0.3208
   7323SM  H18G 9648   4.227   1.502   5.389 -0.3314 -0.1048 -1.4185
   7323SM  C19F 9649   4.361   1.623   5.260  0.5464 -0.2172  0.5558
   7323SM  H19F 9650   4.347   1.560   5.170 -2.4591  0.8744  0.1516
   7323SM  H19G 9651   4.468   1.654   5.265  0.6676 -0.2502 -1.2309
   7323SM  C20F 9652   4.291   1.761   5.257  0.2809 -0.3022  0.0287
   7323SM  H20F 9653   4.325   1.818   5.167 -0.4416 -0.7744 -0.5606
   7323SM  H20G 9654   4.320   1.827   5.342  0.2257 -0.0658 -0.1341
   7323SM  C21F 9655   4.138   1.760   5.260  0.0813 -0.3093 -0.1632
   7323SM  H21F 9656   4.115   1.867   5.245 -2.8015 -1.0952 -2.2799
   7323SM  H21G 9657   4.111   1.736   5.365  3.9077 -0.3791  0.9489
   7323SM  C22F 9658   4.059   1.682   5.154  1.4056  1.2332  0.2035
   7323SM  H22F 9659   4.123   1.593   5.139  0.2363  0.1684  1.2238
   7323SM  H22G 9660   4.051   1.737   5.058  0.2667  2.2486  0.8523
   7323SM  C23F 9661   3.912   1.644   5.185  0.2129  0.4548 -0.9632
   7323SM  H23F 9662   3.903   1.666   5.293 -2.3733  0.5600 -1.1430
   7323SM  H23G 9663   3.892   1.536   5.172  1.4933  0.4681 -3.9181
   7323SM  H23H 9664   3.830   1.698   5.132 -2.3832 -2.7894 -0.5571
   7423SM     N 9665   0.262   4.968   7.382 -0.1521 -0.5885  0.3832
   7423SM   C15 9666   0.369   4.983   7.281 -0.4027  0.2305 -0.7691
   7423SM  H15A 9667   0.436   5.065   7.302 -0.8470  0.4607 -0.2222
   7423SM  H15B 9668   0.333   5.013   7.184  0.7028  3.6897 -0.2551
   7423SM  H15C 9669   0.436   4.899   7.266 -0.6576 -0.1616  0.1667
   7423SM   C14 9670   0.155   5.077   7.360  0.4859  0.2702  0.0302
   7423SM  H14A 9671   0.125   5.087   7.257  0.4247 -0.0031  0.0207
   7423SM  H14B 9672   0.172   5.177   7.398  2.3564  0.2489 -0.6596
   7423SM  H14C 9673   0.067   5.041   7.411  1.6733 -1.0427  1.2579
   7423SM   C13 9674   0.193   4.835   7.354 -0.0437 -0.7687 -0.3380
   7423SM  H13A 9675   0.110   4.830   7.423 -1.3960  0.9699 -1.7495
   7423SM  H13B 9676   0.257   4.751   7.379  1.3462  0.6903  1.2017
   7423SM  H13C 9677   0.134   4.825   7.264  1.3284 -0.8066 -1.2699
   7423SM   C12 9678   0.306   4.982   7.522 -0.5830  0.6837 -0.3688
   7423SM  H12A 9679   0.218   4.989   7.584 -0.1396 -0.2776  0.3927
   7423SM  H12B 9680   0.356   5.077   7.531  1.5000 -0.2703 -1.2221
   7423SM   C11 9681   0.406   4.873   7.564 -1.1643  0.3917 -0.3932
   7423SM  H11A 9682   0.365   4.774   7.535  0.8958 -0.5723 -0.2506
   7423SM  H11B 9683   0.406   4.873   7.675 -0.2568  0.6261 -0.3864
   7423SM     P 9684   0.623   5.004   7.565 -0.2202  0.2714 -0.2219
   7423SM   O13 9685   0.564   5.131   7.516  0.2748 -0.2947 -0.3661
   7423SM   O14 9686   0.635   4.993   7.712  0.2395 -0.0027 -0.6350
   7423SM   O11 9687   0.766   4.982   7.498  0.5734  0.1728 -0.1516
   7423SM   O12 9688   0.536   4.883   7.508 -0.4555 -0.0703 -0.0879
   7423SM   C1S 9689   0.766   4.947   7.355 -1.3025  0.1313 -0.0034
   7423SM   H1S 9690   0.697   4.862   7.337 -0.1034 -1.5059  2.6112
   7423SM   H1T 9691   0.869   4.922   7.322 -0.5353  0.3240  2.0536
   7423SM    NF 9692   0.749   5.029   7.126  0.3835 -0.4920 -0.1307
   7423SM   HNF 9693   0.826   5.074   7.081 -0.4336 -0.5167 -1.5783
   7423SM   C2S 9694   0.735   5.069   7.263 -0.1062 -0.2215  0.2776
   7423SM   H2S 9695   0.629   5.096   7.279  0.2593  0.2063  2.2709
   7423SM   C3S 9696   0.824   5.194   7.293 -0.1996 -0.4685 -0.2320
   7423SM   H3S 9697   0.924   5.164   7.254 -0.2540 -0.7300 -0.1723
   7423SM    O3 9698   0.823   5.233   7.428 -0.0802  0.2731  0.3279
   7423SM   HO3 9699   0.796   5.152   7.472  1.1718 -1.0717 -1.2266
   7423SM   C4S 9700   0.779   5.313   7.218 -0.0944  0.1138  0.9180
   7423SM   H4S 9701   0.682   5.358   7.243  0.3064  1.7354 -0.2256
   7423SM   C5S 9702   0.846   5.383   7.124 -0.6034  0.2169 -0.1328
   7423SM   H5S 9703   0.954   5.367   7.118 -0.6541 -0.2524  0.2025
   7423SM   C6S 9704   0.794   5.503   7.050 -0.1827  0.2169  0.1512
   7423SM   H6S 9705   0.854   5.593   7.075 -1.2650  0.7399  0.9435
   7423SM   H6T 9706   0.692   5.525   7.088 -0.1675  1.8888 -0.7082
   7423SM   C7S 9707   0.781   5.492   6.894  0.7375  0.0663  0.4900
   7423SM   H7S 9708   0.884   5.513   6.859 -0.0024  0.8344 -1.3742
   7423SM   H7T 9709   0.720   5.577   6.856 -1.5271 -2.1930 -1.2471
   7423SM   C8S 9710   0.723   5.358   6.844  0.0787  0.5653 -0.5615
   7423SM   H8S 9711   0.638   5.314   6.900  0.1254  1.2360  0.0474
   7423SM   H8T 9712   0.806   5.284   6.840  0.0759  0.6089 -1.6937
   7423SM   C9S 9713   0.693   5.371   6.695  0.0607  0.2791  0.4024
   7423SM   H9S 9714   0.788   5.391   6.641  0.6988 -0.5323  1.1947
   7423SM   H9T 9715   0.622   5.453   6.670  0.0090  0.4329  1.0457
   7423SM  C10S 9716   0.633   5.249   6.624  0.2817  0.0960  0.6230
   7423SM  H10S 9717   0.526   5.241   6.653  0.5251 -0.4855  1.4014
   7423SM  H10T 9718   0.693   5.165   6.665  1.0352 -0.0209 -0.6816
   7423SM  C11S 9719   0.649   5.252   6.463 -0.0923  0.3537 -0.2598
   7423SM  H11S 9720   0.749   5.292   6.436  0.5019 -0.5472  0.5290
   7423SM  H11T 9721   0.575   5.313   6.408  2.2285  2.3529 -1.3418
   7423SM  C12S 9722   0.643   5.109   6.408 -0.2771 -0.4576 -0.3616
   7423SM  H12S 9723   0.546   5.059   6.423  0.4161 -1.6462  0.2761
   7423SM  H12T 9724   0.719   5.048   6.461  0.0319  0.6241  0.4945
   7423SM  C13S 9725   0.680   5.094   6.264 -0.6166 -0.5591  0.8955
   7423SM  H13S 9726   0.789   5.114   6.260 -0.6252 -0.4867  1.0383
   7423SM  H13T 9727   0.627   5.172   6.205  0.1408 -3.8786 -5.0545
   7423SM  C14S 9728   0.642   4.963   6.198 -0.4977  0.3989  0.4951
   7423SM  H14S 9729   0.537   4.933   6.220 -0.6095 -0.2236 -0.7822
   7423SM  H14T 9730   0.709   4.886   6.240  1.8772  2.3416  0.5001
   7423SM  C15S 9731   0.657   4.969   6.047 -0.5128  0.5185  0.7701
   7423SM  H15S 9732   0.749   5.025   6.020 -0.2851  0.4414  1.3689
   7423SM  H15T 9733   0.567   5.019   6.005 -0.7528 -0.8781 -0.4528
   7423SM  C16S 9734   0.670   4.829   5.985 -0.7312  0.4103  0.4132
   7423SM  H16S 9735   0.589   4.763   6.021 -0.1188 -0.4596  0.2274
   7423SM  H16T 9736   0.761   4.785   6.031 -0.7247  0.8275  0.8070
   7423SM  C17S 9737   0.691   4.827   5.830  0.4569  0.2644 -0.2029
   7423SM  H17S 9738   0.789   4.877   5.818  2.3938 -2.6998  2.0191
   7423SM  H17T 9739   0.607   4.886   5.786 -0.9402 -2.3820 -1.3545
   7423SM  C18S 9740   0.694   4.691   5.753 -0.2307  0.7191 -0.2938
   7423SM  H18S 9741   0.795   4.645   5.767 -0.1550  1.2894  1.2306
   7423SM  H18T 9742   0.674   4.700   5.644 -0.2212 -0.1320 -0.3767
   7423SM  H18U 9743   0.613   4.625   5.790  0.1648 -0.3539 -1.2781
   7423SM   C1F 9744   0.680   4.929   7.062 -0.0739  0.0040  0.3774
   7423SM    OF 9745   0.605   4.856   7.116  0.4625 -0.6157  0.6514
   7423SM   C2F 9746   0.705   4.931   6.910  0.9616  0.2361 -0.1579
   7423SM   H2F 9747   0.814   4.926   6.888  1.2533 -0.3162  1.3205
   7423SM   H2G 9748   0.652   5.018   6.865  0.7793 -0.2139 -0.8355
   7423SM   C3F 9749   0.647   4.810   6.843  0.4712  0.9785 -0.0012
   7423SM   H3F 9750   0.542   4.800   6.877  0.3409 -0.5463 -0.7839
   7423SM   H3G 9751   0.696   4.715   6.872 -0.5970 -0.7122 -3.2683
   7423SM   C4F 9752   0.649   4.809   6.691 -0.3277 -0.3880 -0.2432
   7423SM   H4F 9753   0.753   4.789   6.657 -0.4039  0.2619 -0.9164
   7423SM   H4G 9754   0.613   4.909   6.657 -0.4488 -0.2499  0.2806
   7423SM   C5F 9755   0.549   4.712   6.624 -0.4661 -0.5848 -0.9731
   7423SM   H5F 9756   0.445   4.749   6.638 -1.2247 -1.8587 -2.8244
   7423SM   H5G 9757   0.543   4.616   6.679 -3.4088 -0.3554 -0.7368
   7423SM   C6F 9758   0.585   4.691   6.475 -0.3683 -0.3844  0.9258
   7423SM   H6F 9759   0.684   4.640   6.476 -0.5168 -0.6792  0.8738
   7423SM   H6G 9760   0.582   4.783   6.413  0.4025 -2.5390 -2.5984
   7423SM   C7F 9761   0.491   4.588   6.412 -0.1126  0.2582 -0.1522
   7423SM   H7F 9762   0.394   4.643   6.413  1.1259  2.5557  0.3398
   7423SM   H7G 9763   0.484   4.503   6.483  1.9553  0.4797  0.3715
   7423SM   C8F 9764   0.529   4.547   6.265 -0.4441 -0.7222 -0.0082
   7423SM   H8F 9765   0.639   4.531   6.259 -0.3558 -0.0316 -0.2766
   7423SM   H8G 9766   0.499   4.634   6.203  2.3284  1.2852  1.2443
   7423SM   C9F 9767   0.460   4.420   6.214 -0.2064  0.2771  0.5393
   7423SM   H9F 9768   0.351   4.434   6.229 -0.3965  0.5195 -0.9096
   7423SM   H9G 9769   0.490   4.322   6.257 -0.5997 -0.3357 -0.5233
   7423SM  C10F 9770   0.461   4.391   6.059 -0.1149 -0.1773  0.2479
   7423SM  H10F 9771   0.426   4.476   5.996  1.4646  0.0254 -0.4089
   7423SM  H10G 9772   0.395   4.304   6.036  2.2083 -2.4216  1.5054
   7423SM  C11F 9773   0.610   4.362   6.011  0.1704 -0.1532  0.4063
   7423SM  H11F 9774   0.644   4.269   6.062 -0.0654 -0.7048 -0.4102
   7423SM  H11G 9775   0.674   4.447   6.042  1.0008 -0.5320 -0.2397
   7423SM  C12F 9776   0.596   4.323   5.862 -0.1116  0.0435  0.3039
   7423SM  H12F 9777   0.541   4.399   5.802 -0.7831 -1.3773 -0.9450
   7423SM  H12G 9778   0.530   4.234   5.858 -0.3170  0.1367  1.3784
   7423SM  C13F 9779   0.732   4.297   5.792 -0.2072  0.3688 -0.5491
   7423SM  H13F 9780   0.771   4.203   5.836 -1.5448  0.1603  0.2434
   7423SM  H13G 9781   0.803   4.381   5.810  0.5841 -0.0396 -1.6854
   7423SM  C14F 9782   0.715   4.279   5.643  0.0758 -0.0323 -0.4230
   7423SM  H14F 9783   0.691   4.373   5.590 -2.0115  0.2621  0.9329
   7423SM  H14G 9784   0.644   4.197   5.616 -0.3093  0.3034 -0.4380
   7423SM  C15F 9785   0.842   4.225   5.561  0.0994 -0.1474 -0.3618
   7423SM  H15F 9786   0.917   4.306   5.552  0.6553 -0.5774  0.2960
   7423SM  H15G 9787   0.813   4.215   5.454  1.7860  1.7234 -1.0593
   7423SM  C16F 9788   0.914   4.101   5.611  0.1987  0.7610 -0.1582
   7423SM  H16F 9789   0.850   4.010   5.605 -0.6723  1.1905  1.8513
   7423SM  H16G 9790   0.939   4.117   5.718  2.6288 -0.0670 -0.5247
   7423SM  C17F 9791   1.050   4.064   5.530  0.2822 -0.1042 -0.0974
   7423SM  H17F 9792   1.108   4.159   5.532 -1.4144  1.0864 -2.2059
   7423SM  H17G 9793   1.027   4.038   5.424 -0.0860 -1.1457  0.2246
   7423SM  C18F 9794   1.137   3.958   5.590  0.2794 -0.2858 -0.4379
   7423SM  H18F 9795   1.094   3.858   5.613  2.1394 -1.1711 -0.6153
   7423SM  H18G 9796   1.179   3.993   5.687 -0.0083  1.1408 -0.8073
   7423SM  C19F 9797   1.264   3.934   5.507 -0.3837  0.8401  0.3398
   7423SM  H19F 9798   1.317   4.030   5.488  1.0981 -0.2521 -1.4708
   7423SM  H19G 9799   1.228   3.878   5.418  1.1950  0.8072 -0.3168
   7423SM  C20F 9800   1.368   3.837   5.570 -0.2227  0.0669 -0.1467
   7423SM  H20F 9801   1.324   3.739   5.599  2.1709 -0.7595  0.9508
   7423SM  H20G 9802   1.409   3.880   5.663 -0.2310 -0.6249  0.1849
   7423SM  C21F 9803   1.489   3.802   5.479 -0.4976 -0.6270  0.1937
   7423SM  H21F 9804   1.555   3.741   5.543  0.2169  1.0371  1.1157
   7423SM  H21G 9805   1.546   3.890   5.442 -0.0648 -1.1138 -0.3122
   7423SM  C22F 9806   1.452   3.715   5.365  1.0068  0.0082  0.1502
   7423SM  H22F 9807   1.371   3.765   5.308  1.8114  0.0866 -0.9757
   7423SM  H22G 9808   1.407   3.623   5.408 -0.4509  0.3531 -0.6024
   7423SM  C23F 9809   1.569   3.679   5.276 -0.0600 -0.4588  0.2306
   7423SM  H23F 9810   1.543   3.608   5.195  2.6985  0.0061 -1.1748
   7423SM  H23G 9811   1.646   3.625   5.336 -0.0080  0.7792  1.3296
   7423SM  H23H 9812   1.616   3.766   5.226  2.6845 -1.5425  0.7307
   7523SM     N 9813   6.376   5.143   7.700  0.1502  0.6900 -0.2979
   7523SM   C15 9814   6.349   5.286   7.731  0.0960  0.3720  0.7484
   7523SM  H15A 9815   6.397   5.344   7.653  0.3778 -1.8866 -0.8702
   7523SM  H15B 9816   6.384   5.315   7.829  0.6498  1.5363  0.2289
   7523SM  H15C 9817   6.244   5.309   7.723  0.3495  1.4468  0.2653
   7523SM   C14 9818   6.525   5.122   7.702  0.1594  0.6005  0.5121
   7523SM  H14A 9819   6.582   5.144   7.791  2.6161  2.4835 -1.3762
   7523SM  H14B 9820   6.569   5.177   7.620 -0.6873  0.2089 -0.2245
   7523SM  H14C 9821   6.549   5.018   7.687  1.5019  0.8444  0.8448
   7523SM   C13 9822   6.320   5.051   7.809  0.1820  1.1961 -0.1144
   7523SM  H13A 9823   6.342   4.948   7.789 -0.6485  0.9324  0.2972
   7523SM  H13B 9824   6.212   5.047   7.805  0.2177 -3.5184 -1.8188
   7523SM  H13C 9825   6.353   5.079   7.908 -0.2550  0.1064  0.3509
   7523SM   C12 9826   6.315   5.098   7.572 -0.9204  0.3686 -0.4549
   7523SM  H12A 9827   6.207   5.106   7.568 -1.0356 -0.5869  0.3512
   7523SM  H12B 9828   6.330   4.994   7.546 -1.1190  0.3791 -0.6214
   7523SM   C11 9829   6.373   5.178   7.448  0.1468  0.2463 -0.4062
   7523SM  H11A 9830   6.322   5.138   7.358 -0.5386  1.1277 -0.4234
   7523SM  H11B 9831   6.480   5.158   7.430  0.3297  0.7719  0.0756
   7523SM     P 9832   6.221   5.394   7.445 -0.0069  0.6490  0.0849
   7523SM   O13 9833   6.112   5.330   7.519  0.0612 -0.2028 -0.2173
   7523SM   O14 9834   6.249   5.535   7.481 -0.0346  0.6413 -0.6865
   7523SM   O11 9835   6.199   5.393   7.294  0.7454 -0.6238  0.4104
   7523SM   O12 9836   6.354   5.316   7.455 -0.2713 -0.0062  0.1201
   7523SM   C1S 9837   6.301   5.471   7.216 -0.0693 -0.5056  0.5353
   7523SM   H1S 9838   6.401   5.488   7.261 -0.0806  0.4194  0.2271
   7523SM   H1T 9839   6.269   5.570   7.178  2.0031  0.2350  0.5781
   7523SM    NF 9840   6.417   5.471   6.995 -0.1265 -0.1773  0.2738
   7523SM   HNF 9841   6.379   5.535   6.930 -3.3416 -1.3890  0.7981
   7523SM   C2S 9842   6.323   5.397   7.079  0.1067 -0.1807  0.0449
   7523SM   H2S 9843   6.363   5.295   7.098  0.1528 -0.2601 -0.4719
   7523SM   C3S 9844   6.190   5.375   7.003 -0.7748  0.6958 -1.0111
   7523SM   H3S 9845   6.126   5.465   7.005 -2.8395 -0.6995  0.6268
   7523SM    O3 9846   6.108   5.275   7.064  0.0875 -0.0165 -0.1075
   7523SM   HO3 9847   6.142   5.260   7.153 -0.7723 -0.2431  0.1984
   7523SM   C4S 9848   6.214   5.339   6.859 -0.1815  0.5715 -0.3771
   7523SM   H4S 9849   6.264   5.241   6.854  1.4710  1.1230  2.8677
   7523SM   C5S 9850   6.167   5.390   6.745 -0.1033  0.4348  0.0550
   7523SM   H5S 9851   6.085   5.463   6.743 -0.3277  0.1745 -0.4913
   7523SM   C6S 9852   6.205   5.339   6.605 -0.4595 -0.0988 -0.7002
   7523SM   H6S 9853   6.237   5.423   6.540  1.6094  0.3960  0.8461
   7523SM   H6T 9854   6.118   5.283   6.563 -3.3287  1.6995  2.3539
   7523SM   C7S 9855   6.331   5.257   6.605 -0.3360  0.1184 -0.5519
   7523SM   H7S 9856   6.307   5.173   6.674 -1.8157  0.6850 -0.3276
   7523SM   H7T 9857   6.414   5.319   6.644 -0.6699  1.1751 -1.4909
   7523SM   C8S 9858   6.360   5.217   6.468  0.8010 -0.5656 -0.3009
   7523SM   H8S 9859   6.371   5.312   6.411  1.5847 -0.6188 -0.2469
   7523SM   H8T 9860   6.280   5.165   6.411 -0.4673  0.6551  0.2955
   7523SM   C9S 9861   6.492   5.139   6.453  0.5343  0.3425 -0.1863
   7523SM   H9S 9862   6.493   5.043   6.509  0.5642  0.5768  0.2116
   7523SM   H9T 9863   6.566   5.186   6.520  0.6463  0.8103 -0.6260
   7523SM  C10S 9864   6.542   5.109   6.311 -0.0374 -0.3954 -0.0764
   7523SM  H10S 9865   6.544   5.209   6.263 -0.8097  0.4267  1.5130
   7523SM  H10T 9866   6.482   5.036   6.252  0.7386 -0.1944 -1.1458
   7523SM  C11S 9867   6.692   5.059   6.311  0.0588  0.4854  0.4369
   7523SM  H11S 9868   6.725   5.049   6.416 -2.9691  2.2939  1.7143
   7523SM  H11T 9869   6.752   5.130   6.249 -1.5020  0.5475 -1.0667
   7523SM  C12S 9870   6.701   4.923   6.233 -0.1382 -0.1267 -0.6711
   7523SM  H12S 9871   6.640   4.928   6.141  1.2149 -0.5425 -1.6170
   7523SM  H12T 9872   6.655   4.851   6.305 -0.4323 -0.5976 -1.3263
   7523SM  C13S 9873   6.843   4.879   6.201  0.8229  0.1720 -0.3620
   7523SM  H13S 9874   6.886   4.872   6.303  0.8548  1.8238 -0.2296
   7523SM  H13T 9875   6.895   4.967   6.158  0.5153  0.6508  0.2307
   7523SM  C14S 9876   6.844   4.754   6.128  0.6007 -0.1035  1.0658
   7523SM  H14S 9877   6.744   4.728   6.086  0.4783  2.1747 -0.2317
   7523SM  H14T 9878   6.865   4.666   6.193  0.5678 -1.9263 -1.2682
   7523SM  C15S 9879   6.949   4.759   6.009  0.0352  0.0494  0.0900
   7523SM  H15S 9880   6.989   4.658   5.987 -0.9461 -0.5968  1.1817
   7523SM  H15T 9881   7.035   4.822   6.041  0.9721 -0.9045 -0.5153
   7523SM  C16S 9882   6.894   4.823   5.881 -0.1195 -0.0130 -0.1997
   7523SM  H16S 9883   6.887   4.933   5.892  0.7988 -0.0122  0.4983
   7523SM  H16T 9884   6.791   4.783   5.867 -0.4085  0.2231  1.1222
   7523SM  C17S 9885   6.969   4.789   5.749  0.1589  0.5171  0.1737
   7523SM  H17S 9886   6.900   4.721   5.694 -0.5938  1.7731 -0.4908
   7523SM  H17T 9887   7.064   4.738   5.773  1.2175  0.9366 -2.7807
   7523SM  C18S 9888   6.997   4.919   5.668  0.7918 -0.3977  0.3249
   7523SM  H18S 9889   7.056   4.991   5.730 -0.4272  2.4595 -1.6033
   7523SM  H18T 9890   6.907   4.974   5.634  2.3723  3.0688  1.2774
   7523SM  H18U 9891   7.050   4.894   5.574 -0.3265  0.2554 -0.5029
   7523SM   C1F 9892   6.548   5.475   7.025 -0.9289 -0.4586 -0.7050
   7523SM    OF 9893   6.590   5.403   7.118  0.2105 -0.3583  0.0511
   7523SM   C2F 9894   6.633   5.574   6.955  0.8066  0.7533 -0.4165
   7523SM   H2F 9895   6.664   5.647   7.033  1.0777  0.6849 -0.4603
   7523SM   H2G 9896   6.570   5.620   6.876 -0.9036 -0.3047  0.2735
   7523SM   C3F 9897   6.760   5.519   6.887  0.2055  0.5256  0.0754
   7523SM   H3F 9898   6.807   5.441   6.950 -1.5852 -0.1797  0.6022
   7523SM   H3G 9899   6.831   5.602   6.872  1.0336 -0.1041  0.4117
   7523SM   C4F 9900   6.719   5.464   6.746 -1.0703  0.0982  0.2273
   7523SM   H4F 9901   6.672   5.555   6.702  1.0523  0.1569 -2.1918
   7523SM   H4G 9902   6.648   5.379   6.754 -0.0666 -1.0613 -2.1280
   7523SM   C5F 9903   6.838   5.433   6.647 -0.6883 -0.4119  0.0419
   7523SM   H5F 9904   6.890   5.344   6.686  1.2141 -0.4213 -2.2889
   7523SM   H5G 9905   6.903   5.523   6.648  0.8101 -1.4685  1.0881
   7523SM   C6F 9906   6.799   5.389   6.508  0.2939 -0.2888  0.5363
   7523SM   H6F 9907   6.735   5.473   6.473 -1.8450 -1.5106  1.3326
   7523SM   H6G 9908   6.736   5.300   6.524 -1.0123  0.1719 -1.7684
   7523SM   C7F 9909   6.909   5.357   6.411  0.6493 -0.2388  0.2364
   7523SM   H7F 9910   6.964   5.452   6.394 -0.5182  0.4640  0.2703
   7523SM   H7G 9911   6.864   5.315   6.319  0.5493 -1.2922  0.7525
   7523SM   C8F 9912   7.017   5.262   6.457  0.4888  0.1200 -0.3411
   7523SM   H8F 9913   6.957   5.183   6.506  1.6000 -0.0506  0.7899
   7523SM   H8G 9914   7.084   5.295   6.539 -0.2351 -0.1379  0.3648
   7523SM   C9F 9915   7.101   5.203   6.348 -0.3193  0.8579 -0.9031
   7523SM   H9F 9916   7.187   5.270   6.330  2.2729 -1.8826  0.3286
   7523SM   H9G 9917   7.036   5.193   6.259  0.3233  1.5116 -1.4519
   7523SM  C10F 9918   7.163   5.058   6.388  0.0909  0.2712 -0.4551
   7523SM  H10F 9919   7.215   5.009   6.303 -0.6027 -0.0654 -0.6966
   7523SM  H10G 9920   7.079   4.989   6.413  0.8859 -1.0829 -1.3706
   7523SM  C11F 9921   7.252   5.047   6.512 -0.3287  0.0857 -0.5863
   7523SM  H11F 9922   7.184   5.071   6.597  0.8057 -1.1449  0.7190
   7523SM  H11G 9923   7.324   5.131   6.510 -0.4688  0.3334  1.6191
   7523SM  C12F 9924   7.317   4.912   6.536 -0.5779  0.1075  0.6164
   7523SM  H12F 9925   7.237   4.838   6.554 -0.3627 -0.4831 -0.7407
   7523SM  H12G 9926   7.372   4.919   6.633 -0.8180  1.0327  0.6911
   7523SM  C13F 9927   7.414   4.876   6.428 -0.3732 -0.2086 -0.1291
   7523SM  H13F 9928   7.489   4.956   6.406  1.4861 -1.2702  1.9224
   7523SM  H13G 9929   7.355   4.861   6.335 -1.2951  3.8417 -0.4004
   7523SM  C14F 9930   7.509   4.765   6.482  0.3468  0.1608  0.0375
   7523SM  H14F 9931   7.451   4.689   6.538 -0.2883  1.8875  1.8711
   7523SM  H14G 9932   7.567   4.820   6.559 -1.6758  0.0665  1.7367
   7523SM  C15F 9933   7.604   4.703   6.388 -1.1194  0.0694 -0.1466
   7523SM  H15F 9934   7.571   4.655   6.293 -0.6246 -0.7152  0.0707
   7523SM  H15G 9935   7.650   4.623   6.449 -0.2350  0.6392 -0.0569
   7523SM  C16F 9936   7.702   4.812   6.348  0.6339 -0.3301 -0.2342
   7523SM  H16F 9937   7.741   4.843   6.447 -1.6765  1.0980  0.2986
   7523SM  H16G 9938   7.645   4.894   6.299 -1.1678 -0.3010  1.7694
   7523SM  C17F 9939   7.816   4.769   6.265  0.0832  0.4406  0.0270
   7523SM  H17F 9940   7.864   4.676   6.301 -0.4450 -1.0825 -2.8698
   7523SM  H17G 9941   7.896   4.846   6.270  2.8551 -2.3261  0.7396
   7523SM  C18F 9942   7.789   4.767   6.112 -0.1671 -0.7587 -0.0097
   7523SM  H18F 9943   7.744   4.865   6.085  0.8290 -0.3081 -0.0769
   7523SM  H18G 9944   7.708   4.695   6.089 -0.7794  0.5487 -2.2715
   7523SM  C19F 9945   7.927   4.753   6.043 -0.3642 -0.5006 -0.0512
   7523SM  H19F 9946   7.960   4.647   6.052 -0.1967 -0.7942 -3.1571
   7523SM  H19G 9947   8.003   4.802   6.108 -0.6049  0.2112 -0.3010
   7523SM  C20F 9948   7.935   4.796   5.895 -0.4679  0.1520 -0.2905
   7523SM  H20F 9949   8.037   4.779   5.852 -0.8028 -0.1729 -0.9712
   7523SM  H20G 9950   7.916   4.905   5.889  1.7704  0.8009  2.3923
   7523SM  C21F 9951   7.821   4.733   5.807  0.3454  0.2550  0.3128
   7523SM  H21F 9952   7.836   4.760   5.700 -0.4125 -0.4190  0.0186
   7523SM  H21G 9953   7.726   4.781   5.837  0.5142 -0.3218  1.8506
   7523SM  C22F 9954   7.809   4.585   5.806 -0.1458  0.1394 -0.3967
   7523SM  H22F 9955   7.709   4.541   5.786 -1.0186  1.7618  0.1810
   7523SM  H22G 9956   7.826   4.563   5.913 -2.2394 -0.6313 -0.1659
   7523SM  C23F 9957   7.912   4.504   5.733 -0.4584 -0.3856  0.0575
   7523SM  H23F 9958   7.901   4.497   5.623 -0.4746 -2.3273  0.1427
   7523SM  H23G 9959   7.926   4.398   5.766 -0.4812 -0.5655 -0.5041
   7523SM  H23H 9960   8.012   4.550   5.748 -1.0759  2.8084 -3.9461
   7623SM     N 9961   0.047   5.782   7.821 -0.2323 -0.8672 -0.1428
   7623SM   C15 9962   0.106   5.653   7.877  0.1408 -0.2818  0.1386
   7623SM  H15A 9963   0.212   5.654   7.854 -0.1041  0.2312 -1.0539
   7623SM  H15B 9964   0.063   5.570   7.823 -2.1720  0.1558  1.1953
   7623SM  H15C 9965   0.085   5.628   7.980 -2.0505  1.5992  0.2152
   7623SM   C14 9966   0.049   5.769   7.671 -0.1831 -0.4501 -0.4276
   7623SM  H14A 9967   0.005   5.676   7.638 -0.6213  0.4266 -2.5109
   7623SM  H14B 9968   0.154   5.783   7.648 -0.4183  0.5240 -0.9533
   7623SM  H14C 9969  -0.010   5.843   7.620 -2.1290 -0.6835  1.3539
   7623SM   C13 9970  -0.096   5.793   7.863 -1.3500  0.0566 -0.4204
   7623SM  H13A 9971  -0.096   5.820   7.968  1.7596 -0.5798 -0.1500
   7623SM  H13B 9972  -0.142   5.696   7.856 -0.2391 -0.4119 -1.4731
   7623SM  H13C 9973  -0.158   5.865   7.811 -0.1483  1.9108  0.5802
   7623SM   C12 9974   0.137   5.892   7.863  0.1095  0.3749 -0.0660
   7623SM  H12A 9975   0.138   5.893   7.971  2.6374 -1.2840  0.0063
   7623SM  H12B 9976   0.091   5.985   7.833 -0.7458 -0.1220 -0.3204
   7623SM   C11 9977   0.282   5.902   7.809 -0.5351 -0.0301  0.2957
   7623SM  H11A 9978   0.337   5.809   7.834 -0.7227 -0.3859 -0.5748
   7623SM  H11B 9979   0.334   5.977   7.872  2.4732 -1.7737  0.0865
   7623SM     P 9980   0.261   6.079   7.623 -0.2573 -0.4138  0.1940
   7623SM   O13 9981   0.125   6.115   7.677  0.1890 -0.2755  0.1502
   7623SM   O14 9982   0.365   6.176   7.658  0.0716 -0.6580  0.5040
   7623SM   O11 9983   0.251   6.071   7.465 -0.3034 -0.3219 -0.0477
   7623SM   O12 9984   0.302   5.929   7.667 -0.2451 -0.1143 -0.1062
   7623SM   C1S 9985   0.310   5.955   7.399  0.3023 -0.7041  0.2452
   7623SM   H1S 9986   0.236   5.872   7.391  1.0932 -1.2593 -1.6607
   7623SM   H1T 9987   0.398   5.919   7.457  0.0513  0.1568  1.2006
   7623SM    NF 9988   0.420   5.871   7.197  0.1533 -0.3560 -0.4262
   7623SM   HNF 9989   0.517   5.883   7.177  0.4512 -0.5775  0.7642
   7623SM   C2S 9990   0.351   5.983   7.249 -0.2895 -0.7635 -0.4865
   7623SM   H2S 9991   0.257   6.001   7.192 -1.0175 -0.8082  0.6613
   7623SM   C3S 9992   0.433   6.113   7.242 -0.7170  0.5120  0.0931
   7623SM   H3S 9993   0.525   6.096   7.300 -0.4301  1.0880 -0.1904
   7623SM    O3 9994   0.362   6.232   7.282  0.2157 -0.0450  0.4395
   7623SM   HO3 9995   0.312   6.214   7.362  0.6703 -0.7403  0.5782
   7623SM   C4S 9996   0.477   6.123   7.093 -0.1046 -0.4371 -0.4044
   7623SM   H4S 9997   0.392   6.149   7.028  0.8591 -0.0406 -1.5411
   7623SM   C5S 9998   0.590   6.115   7.032 -0.0365  0.3587 -0.5052
   7623SM   H5S 9999   0.679   6.092   7.092 -0.3214  1.2738  0.2918
   7623SM   C6S10000   0.617   6.133   6.879 -0.3694 -1.0437  0.0489
   7623SM   H6S10001   0.687   6.218   6.868 -2.6086  1.1004  1.3684
   7623SM   H6T10002   0.526   6.156   6.818  0.2294 -4.0883 -2.2366
   7623SM   C7S10003   0.675   6.008   6.829 -0.0507  0.0487  0.1688
   7623SM   H7S10004   0.619   5.919   6.864 -0.7111  0.4189  0.0723
   7623SM   H7T10005   0.781   5.999   6.862 -0.9135 -1.3376  2.7974
   7623SM   C8S10006   0.682   5.995   6.676 -0.3128  0.1499 -0.1050
   7623SM   H8S10007   0.575   6.009   6.648 -0.5019 -1.4714 -0.2907
   7623SM   H8T10008   0.705   5.889   6.651  2.2823  0.6606 -0.1155
   7623SM   C9S10009   0.775   6.098   6.611  0.4437 -0.3923 -0.3487
   7623SM   H9S10010   0.881   6.081   6.639  0.4872 -0.7503 -0.7176
   7623SM   H9T10011   0.738   6.196   6.649 -1.4383 -1.6437  1.1690
   7623SM  C10S10012   0.753   6.090   6.458 -0.1359  0.4307  0.4860
   7623SM  H10S10013   0.648   6.100   6.422 -0.1480 -1.2085 -0.0128
   7623SM  H10T10014   0.798   5.993   6.427 -1.6890  0.1423 -1.0246
   7623SM  C11S10015   0.820   6.203   6.382  0.4263 -0.3388 -0.1297
   7623SM  H11S10016   0.916   6.223   6.434  1.4531 -0.3849 -1.9264
   7623SM  H11T10017   0.757   6.294   6.389  0.3089 -0.4147 -0.1955
   7623SM  C12S10018   0.867   6.175   6.237  0.3132  0.0082  0.7964
   7623SM  H12S10019   0.938   6.090   6.232  0.9982  0.4487  2.3578
   7623SM  H12T10020   0.914   6.270   6.205 -0.9173 -0.0234 -1.3107
   7623SM  C13S10021   0.749   6.155   6.142 -0.4690 -0.6425  0.8838
   7623SM  H13S10022   0.670   6.231   6.162 -0.4594  0.3335 -2.2551
   7623SM  H13T10023   0.710   6.055   6.171  0.0160 -1.3824 -0.8412
   7623SM  C14S10024   0.789   6.152   5.991  0.2389  0.3451 -0.3977
   7623SM  H14S10025   0.849   6.061   5.971 -1.2847 -0.5509 -1.1126
   7623SM  H14T10026   0.836   6.248   5.961  0.2331 -0.2696 -2.5090
   7623SM  C15S10027   0.655   6.141   5.907  0.0383 -0.1953  0.0655
   7623SM  H15S10028   0.587   6.223   5.937  0.2949 -0.9162  2.8871
   7623SM  H15T10029   0.605   6.045   5.934 -1.8914  0.9667  0.8453
   7623SM  C16S10030   0.675   6.150   5.758 -0.1968  0.0918 -0.1771
   7623SM  H16S10031   0.715   6.250   5.731 -1.5228  0.5162 -0.6609
   7623SM  H16T10032   0.580   6.143   5.702 -0.2437  0.7192 -0.1835
   7623SM  C17S10033   0.775   6.051   5.697  0.7581 -0.5750  0.5196
   7623SM  H17S10034   0.878   6.065   5.736 -0.3257 -1.0968  3.9100
   7623SM  H17T10035   0.780   6.079   5.590 -2.5850 -1.7652 -0.0895
   7623SM  C18S10036   0.732   5.903   5.697  0.0921 -0.3386 -0.0843
   7623SM  H18S10037   0.622   5.896   5.704  0.0311  0.6493  0.0685
   7623SM  H18T10038   0.784   5.853   5.782  0.6074 -1.2898 -0.9386
   7623SM  H18U10039   0.782   5.847   5.615  2.2868  0.2382  0.7720
   7623SM   C1F10040   0.355   5.754   7.184  0.2658  0.0170  0.1555
   7623SM    OF10041   0.229   5.750   7.196  0.0965  0.2245 -0.4357
   7623SM   C2F10042   0.437   5.629   7.146 -0.3648 -0.2270  0.5492
   7623SM   H2F10043   0.420   5.547   7.219 -0.1737 -1.2415 -0.5171
   7623SM   H2G10044   0.547   5.647   7.153 -0.2438 -0.8641  0.3484
   7623SM   C3F10045   0.403   5.585   7.006  0.1070 -0.0848 -0.1821
   7623SM   H3F10046   0.297   5.558   6.988 -0.3470  1.4106  0.1468
   7623SM   H3G10047   0.476   5.511   6.966 -0.3784 -1.2262  0.9953
   7623SM   C4F10048   0.428   5.698   6.899  0.6867 -0.2933 -0.3561
   7623SM   H4F10049   0.537   5.704   6.880  0.3230  0.1718 -2.4857
   7623SM   H4G10050   0.392   5.801   6.923  1.3107 -0.7870  3.3891
   7623SM   C5F10051   0.373   5.655   6.763  0.4447 -0.1212  0.0740
   7623SM   H5F10052   0.262   5.666   6.757  0.5834  2.0420  0.6035
   7623SM   H5G10053   0.399   5.547   6.757 -0.2773 -0.2570 -0.8953
   7623SM   C6F10054   0.439   5.727   6.646  0.2089 -0.1672 -0.6165
   7623SM   H6F10055   0.549   5.721   6.659  0.3049  0.1769 -1.2056
   7623SM   H6G10056   0.409   5.834   6.651  1.5876  0.1962  0.5044
   7623SM   C7F10057   0.423   5.683   6.498  0.7074  0.8331  0.1669
   7623SM   H7F10058   0.317   5.653   6.483  0.5885  0.9597  0.7665
   7623SM   H7G10059   0.477   5.588   6.476 -0.0535  0.6188 -0.8763
   7623SM   C8F10060   0.461   5.804   6.409 -0.2738  0.1867  0.5105
   7623SM   H8F10061   0.557   5.848   6.444 -1.4890  3.5094  0.0520
   7623SM   H8G10062   0.391   5.887   6.433 -1.6656 -0.2068 -1.8642
   7623SM   C9F10063   0.468   5.774   6.258 -0.2696 -0.1335 -0.4913
   7623SM   H9F10064   0.554   5.706   6.242  1.5081  1.7925  0.3996
   7623SM   H9G10065   0.504   5.865   6.206  0.2548 -0.5473 -0.8643
   7623SM  C10F10066   0.338   5.721   6.204  0.1594 -0.2302  0.1387
   7623SM  H10F10067   0.259   5.796   6.224  1.0176  1.4835 -2.4613
   7623SM  H10G10068   0.317   5.622   6.250 -1.4673 -0.4071 -0.8915
   7623SM  C11F10069   0.354   5.693   6.047  0.6152  0.4615 -0.7693
   7623SM  H11F10070   0.411   5.599   6.032 -1.4570 -0.6164 -2.5004
   7623SM  H11G10071   0.416   5.777   6.008  0.3296  0.3577 -1.4557
   7623SM  C12F10072   0.218   5.699   5.971 -0.4203 -0.0726 -0.9602
   7623SM  H12F10073   0.184   5.804   5.982  1.9036  0.4881  2.6652
   7623SM  H12G10074   0.148   5.630   6.024  1.5465 -1.4574 -0.0155
   7623SM  C13F10075   0.217   5.657   5.826  0.3350  0.1162 -0.7100
   7623SM  H13F10076   0.125   5.703   5.785 -0.2672 -1.1787 -0.8642
   7623SM  H13G10077   0.215   5.547   5.807  0.1816 -0.4822  2.2839
   7623SM  C14F10078   0.335   5.706   5.739  0.6312 -0.3874 -0.0942
   7623SM  H14F10079   0.426   5.670   5.792 -0.3164 -2.4060  0.2815
   7623SM  H14G10080   0.324   5.816   5.743  2.2913 -0.2398  1.4346
   7623SM  C15F10081   0.339   5.650   5.594 -0.8318 -0.4344  0.7645
   7623SM  H15F10082   0.236   5.660   5.553 -0.8514 -0.7627  0.7311
   7623SM  H15G10083   0.349   5.540   5.607  0.4480 -0.1502  2.6321
   7623SM  C16F10084   0.441   5.725   5.503  0.0606  0.1368  0.7131
   7623SM  H16F10085   0.539   5.723   5.556  1.3612 -1.1868 -1.5486
   7623SM  H16G10086   0.413   5.832   5.493 -1.3427 -0.3332 -1.0235
   7623SM  C17F10087   0.467   5.665   5.359 -0.1543 -0.8067 -0.2836
   7623SM  H17F10088   0.368   5.661   5.310  0.1982 -0.8505 -1.0042
   7623SM  H17G10089   0.489   5.558   5.378 -0.0742 -0.9349 -1.0657
   7623SM  C18F10090   0.591   5.706   5.284 -0.8115  0.4559  0.1772
   7623SM  H18F10091   0.682   5.707   5.348  0.5234 -1.3765 -1.5938
   7623SM  H18G10092   0.572   5.808   5.244  0.6395  1.2130  1.3049
   7623SM  C19F10093   0.608   5.631   5.151 -0.9413  0.4728 -0.3032
   7623SM  H19F10094   0.667   5.686   5.075 -0.1046 -1.3898 -1.0753
   7623SM  H19G10095   0.505   5.612   5.113 -0.1248 -0.7168 -2.0618
   7623SM  C20F10096   0.678   5.491   5.169 -0.5958 -0.5392  0.2037
   7623SM  H20F10097   0.663   5.437   5.073 -0.6236 -1.1678  0.5564
   7623SM  H20G10098   0.628   5.428   5.245  1.7968 -0.7576  1.6982
   7623SM  C21F10099   0.825   5.514   5.211  0.4489  1.1338  0.0771
   7623SM  H21F10100   0.823   5.570   5.308 -0.8428 -1.2874  1.5504
   7623SM  H21G10101   0.890   5.561   5.135  2.2548  0.5712  1.2221
   7623SM  C22F10102   0.886   5.377   5.255  0.0180 -0.2482  0.4231
   7623SM  H22F10103   0.873   5.313   5.166  0.3016  2.4255 -1.6583
   7623SM  H22G10104   0.845   5.336   5.351  1.0454  0.0329  1.0006
   7623SM  C23F10105   1.037   5.375   5.286  0.9856  0.1308  0.2096
   7623SM  H23F10106   1.062   5.447   5.367  1.1721 -0.0177  0.2844
   7623SM  H23G10107   1.098   5.410   5.199 -1.0077 -0.5105 -1.5272
   7623SM  H23H10108   1.063   5.271   5.312  0.2162 -0.3546 -0.8732
   7723SM     N10109   7.585   2.547   7.384 -0.3008  0.0594  0.1751
   7723SM   C1510110   7.502   2.451   7.315 -0.0015  0.6232 -0.0592
   7723SM  H15A10111   7.565   2.423   7.232  0.6118  1.1158  0.2271
   7723SM  H15B10112   7.408   2.491   7.279 -0.4640 -1.5939 -1.5531
   7723SM  H15C10113   7.472   2.360   7.364  2.3349 -1.3568 -2.0083
   7723SM   C1410114   7.605   2.665   7.295 -0.3281 -0.2696  0.5747
   7723SM  H14A10115   7.658   2.745   7.343 -1.5398  1.7503 -1.2555
   7723SM  H14B10116   7.508   2.700   7.262 -1.4072 -1.7697  1.9628
   7723SM  H14C10117   7.656   2.637   7.204  0.1650 -0.7254  0.9841
   7723SM   C1310118   7.518   2.607   7.504 -0.2384  0.3305 -0.4717
   7723SM  H13A10119   7.571   2.671   7.572 -0.2744 -0.4535  0.3188
   7723SM  H13B10120   7.496   2.525   7.572 -0.7573  0.2502 -0.7266
   7723SM  H13C10121   7.426   2.657   7.477 -1.2621 -0.3379  1.5757
   7723SM   C1210122   7.717   2.495   7.433 -0.5391  0.6844  0.3229
   7723SM  H12A10123   7.692   2.424   7.510 -0.5175  0.9072  0.5361
   7723SM  H12B10124   7.774   2.571   7.485  1.8846 -0.1747 -0.9077
   7723SM   C1110125   7.806   2.412   7.334 -0.2312  0.0994 -0.0785
   7723SM  H11A10126   7.910   2.396   7.370 -0.1798 -1.4709 -0.8150
   7723SM  H11B10127   7.811   2.480   7.246  1.4735  0.7222  0.4552
   7723SM     P10128   7.742   2.166   7.394  0.2179  0.0651 -0.0522
   7723SM   O1310129   7.805   2.203   7.524  0.4161 -0.3423  0.3917
   7723SM   O1410130   7.607   2.102   7.387  0.0287  0.0389 -0.0582
   7723SM   O1110131   7.841   2.067   7.319 -0.1307  0.2975  0.2365
   7723SM   O1210132   7.738   2.288   7.302  0.0331  0.3746 -0.5873
   7723SM   C1S10133   7.830   2.014   7.191 -0.0491 -0.0619  0.0096
   7723SM   H1S10134   7.726   2.017   7.152 -0.2811  1.0470  0.6567
   7723SM   H1T10135   7.849   1.905   7.193 -0.9434 -0.2582 -1.1596
   7723SM    NF10136   7.904   2.018   6.949  0.0443  0.0783  0.4317
   7723SM   HNF10137   7.978   1.957   6.920  0.1409 -1.0583  2.7855
   7723SM   C2S10138   7.917   2.088   7.085  0.3504 -0.4450 -0.0030
   7723SM   H2S10139   7.866   2.186   7.073  1.5951 -0.0778 -3.1240
   7723SM   C3S10140   8.065   2.115   7.122  0.4295 -0.8159 -0.0266
   7723SM   H3S10141   8.112   2.018   7.149  1.5106 -0.4479 -0.5694
   7723SM    O310142   8.087   2.196   7.238  0.0805  0.4625 -0.1613
   7723SM   HO310143   7.999   2.187   7.276 -0.0410 -3.9178 -0.9373
   7723SM   C4S10144   8.133   2.183   7.006 -0.2952  0.8221 -0.5276
   7723SM   H4S10145   8.094   2.283   6.982  1.9363  2.0432  0.6105
   7723SM   C5S10146   8.251   2.148   6.945  0.7649  0.9197 -0.2940
   7723SM   H5S10147   8.323   2.075   6.985 -0.9529 -0.9282 -0.3929
   7723SM   C6S10148   8.311   2.231   6.830  0.1457 -0.3664 -0.3098
   7723SM   H6S10149   8.391   2.167   6.787  1.0603 -0.4250  1.3582
   7723SM   H6T10150   8.373   2.312   6.874 -1.0512  2.0002 -2.6518
   7723SM   C7S10151   8.212   2.296   6.727 -0.4484  0.2663 -0.3974
   7723SM   H7S10152   8.277   2.352   6.656 -0.1373 -0.5670 -0.7960
   7723SM   H7T10153   8.151   2.374   6.776 -0.7432  0.0655 -0.4388
   7723SM   C8S10154   8.138   2.199   6.640 -0.4239 -0.7076  0.4071
   7723SM   H8S10155   8.050   2.147   6.683  0.1938 -1.4630  0.7718
   7723SM   H8T10156   8.209   2.120   6.610  0.9287  0.6815 -0.1893
   7723SM   C9S10157   8.079   2.279   6.522 -0.0173  0.3261 -0.3139
   7723SM   H9S10158   8.153   2.294   6.441 -0.8101 -0.5815 -1.2362
   7723SM   H9T10159   8.055   2.380   6.561  2.9637 -0.1512  3.3873
   7723SM  C10S10160   7.948   2.220   6.464 -0.3688 -0.7985 -0.1556
   7723SM  H10S10161   7.900   2.288   6.390  0.9189  2.4193  1.7578
   7723SM  H10T10162   7.872   2.199   6.543 -1.4095  0.9142 -0.6279
   7723SM  C11S10163   7.975   2.084   6.396 -0.0317  0.2704 -0.0182
   7723SM  H11S10164   7.891   2.044   6.337  1.8633 -0.3164 -2.5060
   7723SM  H11T10165   7.995   1.999   6.464  2.2115 -1.2920 -2.4387
   7723SM  C12S10166   8.093   2.079   6.295  0.8263 -0.0635  0.0378
   7723SM  H12S10167   8.191   2.092   6.345  0.1406 -2.2343  2.1459
   7723SM  H12T10168   8.074   2.163   6.224 -1.1318  0.1247  0.7182
   7723SM  C13S10169   8.097   1.950   6.213 -0.5102  0.5026  0.0912
   7723SM  H13S10170   8.002   1.942   6.155 -0.2052 -2.1636 -0.1589
   7723SM  H13T10171   8.101   1.860   6.278 -1.3553  1.2154  1.1746
   7723SM  C14S10172   8.214   1.941   6.109  0.4011  0.1581 -0.0746
   7723SM  H14S10173   8.227   1.832   6.091 -1.3406  0.2470 -2.2461
   7723SM  H14T10174   8.303   1.974   6.167 -0.3795  0.1436  1.1712
   7723SM  C15S10175   8.184   2.036   5.988  0.3763 -0.6931  0.0356
   7723SM  H15S10176   8.153   2.136   6.025 -0.3101 -0.2496 -1.6502
   7723SM  H15T10177   8.094   1.997   5.936  1.8342 -2.4368 -1.2671
   7723SM  C16S10178   8.300   2.051   5.896  0.2452 -0.0012 -0.0647
   7723SM  H16S10179   8.377   2.106   5.954 -1.2623  0.2559  1.7718
   7723SM  H16T10180   8.253   2.117   5.820  0.1755  2.4246  1.9535
   7723SM  C17S10181   8.345   1.918   5.838 -0.3951 -0.6796 -0.5663
   7723SM  H17S10182   8.263   1.849   5.807 -0.0956 -1.1196 -0.3724
   7723SM  H17T10183   8.401   1.857   5.912 -1.6034 -1.8257 -0.5639
   7723SM  C18S10184   8.450   1.946   5.724 -0.5568  0.0834 -0.0420
   7723SM  H18S10185   8.535   1.993   5.779 -1.3430  0.2671  1.0624
   7723SM  H18T10186   8.422   2.017   5.644  1.6622  1.1249  0.0198
   7723SM  H18U10187   8.491   1.859   5.669  1.7343  0.5005  0.8686
   7723SM   C1F10188   7.790   2.018   6.875 -0.4044 -0.3195 -0.0222
   7723SM    OF10189   7.689   2.066   6.922  0.5087  0.2650  0.1223
   7723SM   C2F10190   7.800   1.941   6.742 -0.2837 -0.4087 -0.8295
   7723SM   H2F10191   7.824   1.835   6.764  0.7820 -0.1108 -0.5278
   7723SM   H2G10192   7.885   1.994   6.694  0.3704 -0.9586 -0.2960
   7723SM   C3F10193   7.675   1.945   6.654  0.5722  0.9346  0.4644
   7723SM   H3F10194   7.657   2.047   6.613 -0.6432  0.7704  0.5524
   7723SM   H3G10195   7.586   1.916   6.713  1.2610 -1.6767  0.3284
   7723SM   C4F10196   7.678   1.853   6.529  0.0311  0.6743 -0.1610
   7723SM   H4F10197   7.756   1.898   6.465  1.7926  1.3147  2.2922
   7723SM   H4G10198   7.580   1.859   6.476  0.3881 -2.4656 -1.3950
   7723SM   C5F10199   7.718   1.715   6.566 -0.1626  0.5569 -0.0381
   7723SM   H5F10200   7.659   1.679   6.653 -1.0027 -0.7961 -1.1216
   7723SM   H5G10201   7.826   1.711   6.590 -0.3120 -2.8863  0.5193
   7723SM   C6F10202   7.682   1.622   6.451  0.3113 -0.0366 -0.3455
   7723SM   H6F10203   7.576   1.634   6.421  0.1359  1.2092  0.6384
   7723SM   H6G10204   7.693   1.518   6.488 -0.4138 -0.5920 -1.6409
   7723SM   C7F10205   7.767   1.630   6.327 -0.1350 -0.1789  0.2148
   7723SM   H7F10206   7.866   1.640   6.376 -0.4208  0.4445  0.6722
   7723SM   H7G10207   7.736   1.720   6.270  2.0328 -0.0472 -0.8433
   7723SM   C8F10208   7.764   1.520   6.228 -0.3533  0.3072 -0.3984
   7723SM   H8F10209   7.656   1.502   6.209 -1.0306  1.8884  1.6372
   7723SM   H8G10210   7.815   1.432   6.272  1.3774  0.9222 -1.0864
   7723SM   C9F10211   7.825   1.553   6.092 -0.1501 -0.2536 -0.3794
   7723SM   H9F10212   7.796   1.472   6.023 -2.3214  0.8001 -0.7827
   7723SM   H9G10213   7.935   1.554   6.108  0.0839  2.2165 -1.6220
   7723SM  C10F10214   7.794   1.687   6.026  0.0784 -0.0106 -0.1701
   7723SM  H10F10215   7.795   1.783   6.081  2.9109  0.4896 -0.8797
   7723SM  H10G10216   7.698   1.686   5.970 -0.8046 -1.1647  1.3052
   7723SM  C11F10217   7.895   1.715   5.911 -0.6846 -0.4297 -0.1709
   7723SM  H11F10218   7.898   1.624   5.848 -1.4697 -1.5563  1.3633
   7723SM  H11G10219   7.996   1.735   5.954  0.1732  1.0143 -2.6544
   7723SM  C12F10220   7.852   1.841   5.834  0.2025  0.1024 -0.2503
   7723SM  H12F10221   7.852   1.926   5.906 -0.9494 -0.6951  0.7185
   7723SM  H12G10222   7.750   1.831   5.792 -0.2883 -0.5705  1.0719
   7723SM  C13F10223   7.959   1.874   5.729  0.1161 -0.1330 -0.1833
   7723SM  H13F10224   7.955   1.794   5.653 -0.8438  1.6109 -2.0818
   7723SM  H13G10225   8.062   1.881   5.770 -0.8546 -2.4809  3.0691
   7723SM  C14F10226   7.929   1.996   5.645  0.2539 -0.1312 -0.0426
   7723SM  H14F10227   7.979   2.085   5.688 -0.1955 -1.0224  2.5170
   7723SM  H14G10228   7.821   2.019   5.628  0.5474  1.4007  0.0973
   7723SM  C15F10229   7.987   1.972   5.502  0.3556 -0.2689  0.2627
   7723SM  H15F10230   7.969   2.071   5.454  1.2063  0.2040  0.8914
   7723SM  H15G10231   7.943   1.890   5.441 -0.5109  1.0570 -0.9442
   7723SM  C16F10232   8.141   1.948   5.493 -0.0848 -0.1402  0.0891
   7723SM  H16F10233   8.167   1.846   5.528  2.0989  0.7737  1.3240
   7723SM  H16G10234   8.189   2.028   5.553  1.0503 -0.5497 -0.2445
   7723SM  C17F10235   8.190   1.955   5.348 -0.4499  0.5578  0.5679
   7723SM  H17F10236   8.147   2.048   5.305 -0.1185  1.2057  1.5945
   7723SM  H17G10237   8.152   1.871   5.285  1.0806 -0.1892  0.5828
   7723SM  C18F10238   8.342   1.982   5.336  0.1148  0.0448  1.1254
   7723SM  H18F10239   8.395   1.888   5.362  0.4036  0.1292  0.8527
   7723SM  H18G10240   8.376   2.069   5.396 -0.4932  0.1439  1.3347
   7723SM  C19F10241   8.366   2.011   5.184  0.3531  0.2216  0.1591
   7723SM  H19F10242   8.320   2.112   5.170  0.1503 -0.1520 -2.4628
   7723SM  H19G10243   8.319   1.939   5.113 -1.2652  0.5619  0.8390
   7723SM  C20F10244   8.513   2.018   5.154  0.2093  0.2929  0.3776
   7723SM  H20F10245   8.561   2.090   5.224  0.1296 -0.9220  1.7228
   7723SM  H20G10246   8.527   2.058   5.051  2.6544 -1.5653 -0.1043
   7723SM  C21F10247   8.580   1.885   5.175  0.1525 -0.6252  0.1049
   7723SM  H21F10248   8.546   1.817   5.094 -1.7477 -0.2814  0.5719
   7723SM  H21G10249   8.559   1.842   5.275 -0.9249  1.5615  0.8748
   7723SM  C22F10250   8.731   1.897   5.171  0.5728  0.5743 -0.4400
   7723SM  H22F10251   8.771   1.932   5.268 -0.5785 -1.0539  0.6948
   7723SM  H22G10252   8.765   1.965   5.090  3.8120  0.7576  0.9246
   7723SM  C23F10253   8.784   1.754   5.145 -0.3206 -0.1882 -0.1289
   7723SM  H23F10254   8.738   1.676   5.209  0.6015 -0.3182  0.4038
   7723SM  H23G10255   8.895   1.755   5.156 -0.4370  0.9038  1.2167
   7723SM  H23H10256   8.768   1.736   5.036 -1.0839 -0.1498 -0.0248
   7823SM     N10257   1.207   7.202   7.695 -0.1127 -0.6055 -0.3595
   7823SM   C1510258   1.240   7.135   7.825 -0.0145 -0.4933 -0.0101
   7823SM  H15A10259   1.170   7.056   7.845 -1.6087  0.2475 -2.2887
   7823SM  H15B10260   1.243   7.204   7.908 -1.2709 -2.2884  1.6043
   7823SM  H15C10261   1.337   7.088   7.814  0.0065  0.0748 -3.8091
   7823SM   C1410262   1.298   7.321   7.694  0.2725  0.3888  0.2498
   7823SM  H14A10263   1.285   7.392   7.775  3.8522  1.2413  0.2663
   7823SM  H14B10264   1.277   7.367   7.599  2.3421 -2.1027 -1.5587
   7823SM  H14C10265   1.404   7.298   7.685  0.0426 -0.4723 -0.3730
   7823SM   C1310266   1.240   7.113   7.583 -0.7328 -0.1653  0.0172
   7823SM  H13A10267   1.229   7.162   7.487  1.9905  2.6197  0.9457
   7823SM  H13B10268   1.167   7.034   7.590 -0.3263 -0.4306  1.8618
   7823SM  H13C10269   1.343   7.082   7.593  0.3168  2.2484 -2.1617
   7823SM   C1210270   1.062   7.247   7.684  0.7249 -0.1159 -0.3049
   7823SM  H12A10271   1.062   7.325   7.610 -0.3106 -0.8242 -1.0917
   7823SM  H12B10272   1.031   7.291   7.778 -2.2849  0.9160 -1.6735
   7823SM   C1110273   0.958   7.129   7.656 -0.0414  0.1125  0.3314
   7823SM  H11A10274   0.857   7.143   7.700 -0.3530 -2.1408  0.4474
   7823SM  H11B10275   0.996   7.039   7.708  0.4876 -1.0050 -1.8921
   7823SM     P10276   0.835   7.190   7.429 -0.6050 -0.3666  0.2670
   7823SM   O1310277   0.709   7.108   7.423 -0.3154 -0.7426  0.1704
   7823SM   O1410278   0.808   7.324   7.489 -0.6524  0.1799  0.1506
   7823SM   O1110279   0.903   7.218   7.287  0.7101  0.0805 -0.4430
   7823SM   O1210280   0.949   7.112   7.509  0.7236  0.3878  0.4461
   7823SM   C1S10281   0.961   7.103   7.219  0.0275 -0.1838 -0.4983
   7823SM   H1S10282   0.902   7.010   7.237  1.0473 -0.4000  2.1577
   7823SM   H1T10283   1.059   7.073   7.262  1.4047  4.0866 -0.2013
   7823SM    NF10284   0.976   7.018   6.988  0.1041  0.6857 -0.4980
   7823SM   HNF10285   1.064   6.979   6.964  0.8327  1.1372  1.2640
   7823SM   C2S10286   0.975   7.137   7.069 -0.7269  0.6983  0.0725
   7823SM   H2S10287   0.893   7.205   7.035  1.4309  2.3243 -2.2087
   7823SM   C3S10288   1.104   7.221   7.057 -0.1879  0.3178 -0.4963
   7823SM   H3S10289   1.188   7.170   7.109  1.5749  1.8199 -1.7345
   7823SM    O310290   1.091   7.348   7.123 -0.3700  0.7072 -0.0037
   7823SM   HO310291   1.013   7.344   7.179 -0.1315  1.5810  0.4124
   7823SM   C4S10292   1.141   7.240   6.912  1.0242 -0.3468 -0.2828
   7823SM   H4S10293   1.090   7.324   6.862  2.3370  0.8175  0.2761
   7823SM   C5S10294   1.231   7.174   6.838  0.1892 -0.4210 -0.0423
   7823SM   H5S10295   1.305   7.104   6.879  0.4570 -0.9274 -1.3261
   7823SM   C6S10296   1.259   7.194   6.694 -0.0221  0.9826 -0.5985
   7823SM   H6S10297   1.360   7.239   6.682  0.7579 -0.6374 -0.4100
   7823SM   H6T10298   1.189   7.265   6.645  0.5077  0.6069 -1.9434
   7823SM   C7S10299   1.266   7.058   6.619 -0.2604  0.3714 -0.7833
   7823SM   H7S10300   1.168   7.008   6.635 -0.1600  0.1915 -0.7368
   7823SM   H7T10301   1.349   6.995   6.658 -1.2565  0.5715  1.8861
   7823SM   C8S10302   1.286   7.075   6.463 -0.0032  0.2689  0.0275
   7823SM   H8S10303   1.394   7.092   6.444 -0.0237  1.0102  0.5259
   7823SM   H8T10304   1.222   7.159   6.427 -0.4777  0.5109  1.3922
   7823SM   C9S10305   1.252   6.941   6.394  0.3964 -0.0150 -0.1855
   7823SM   H9S10306   1.141   6.945   6.390  0.3525 -0.8833  0.0208
   7823SM   H9T10307   1.262   6.855   6.462  0.1913 -0.0254 -0.1688
   7823SM  C10S10308   1.294   6.927   6.246  0.5410  0.3580  0.7613
   7823SM  H10S10309   1.400   6.894   6.231  0.2051 -0.2217 -0.5426
   7823SM  H10T10310   1.299   7.028   6.201  2.7425 -0.3094 -0.6945
   7823SM  C11S10311   1.213   6.824   6.157 -0.4186  0.3361 -0.2778
   7823SM  H11S10312   1.115   6.869   6.130 -0.8513 -1.3043 -1.5886
   7823SM  H11T10313   1.192   6.737   6.223  0.1378 -0.0985 -0.6633
   7823SM  C12S10314   1.287   6.781   6.029 -0.0234  0.7598 -0.7509
   7823SM  H12S10315   1.398   6.779   6.034  0.0580 -0.2178 -2.3264
   7823SM  H12T10316   1.272   6.867   5.961  1.3027  0.7740 -1.0463
   7823SM  C13S10317   1.222   6.659   5.953  0.8110  0.5693  0.2708
   7823SM  H13S10318   1.250   6.653   5.846  2.2469 -0.7459  0.6786
   7823SM  H13T10319   1.113   6.682   5.951  0.5422 -0.5145  1.1616
   7823SM  C14S10320   1.246   6.517   6.007 -0.0744 -0.6135 -0.2291
   7823SM  H14S10321   1.235   6.527   6.117 -1.3372  0.5079 -0.4212
   7823SM  H14T10322   1.347   6.480   5.980  0.2469 -0.9923  1.3627
   7823SM  C15S10323   1.152   6.409   5.963  0.3177  0.2283 -0.5207
   7823SM  H15S10324   1.045   6.438   5.965 -0.5644 -2.1995 -3.5417
   7823SM  H15T10325   1.147   6.320   6.030  2.3956  1.7055  1.7481
   7823SM  C16S10326   1.174   6.371   5.811  0.0001 -0.5948  0.2759
   7823SM  H16S10327   1.281   6.350   5.795  0.4518 -0.4713  2.7569
   7823SM  H16T10328   1.153   6.465   5.755 -1.7485  0.2865  2.2625
   7823SM  C17S10329   1.076   6.264   5.762 -0.6994 -0.4243  0.2795
   7823SM  H17S10330   0.976   6.288   5.806  0.0863  0.4926  1.6381
   7823SM  H17T10331   1.101   6.162   5.797 -0.8705 -0.7562 -0.5459
   7823SM  C18S10332   1.069   6.265   5.614  0.1493 -0.5863 -0.2763
   7823SM  H18S10333   1.154   6.208   5.569  2.4119  1.0590  1.6397
   7823SM  H18T10334   1.061   6.368   5.572 -2.2520 -0.5619  0.0979
   7823SM  H18U10335   0.974   6.218   5.581 -1.9378  2.8149  0.4626
   7823SM   C1F10336   0.861   6.957   6.970  0.5860 -0.0332  0.4744
   7823SM    OF10337   0.763   6.975   7.043  0.0170  0.6825 -0.1432
   7823SM   C2F10338   0.856   6.857   6.858 -0.3384  0.4490  0.1841
   7823SM   H2F10339   0.842   6.754   6.895  1.7928 -0.0777 -0.3584
   7823SM   H2G10340   0.945   6.853   6.792 -1.0773  1.6589 -0.9562
   7823SM   C3F10341   0.739   6.873   6.754 -0.0295  0.3633  0.5184
   7823SM   H3F10342   0.740   6.983   6.738  0.2692  0.2632 -0.1704
   7823SM   H3G10343   0.640   6.847   6.797 -0.7666  1.9294 -0.1545
   7823SM   C4F10344   0.750   6.791   6.624 -0.2576  0.6502  0.7813
   7823SM   H4F10345   0.665   6.801   6.554 -0.8931 -1.7212  1.1289
   7823SM   H4G10346   0.750   6.683   6.650 -0.7487  0.8467  1.6438
   7823SM   C5F10347   0.878   6.831   6.542  0.4014  0.9808 -0.2201
   7823SM   H5F10348   0.973   6.791   6.582 -0.3781  2.4680  3.6586
   7823SM   H5G10349   0.872   6.942   6.545 -0.3438  0.9261  0.8376
   7823SM   C6F10350   0.865   6.808   6.391  0.6425  0.2596  0.3743
   7823SM   H6F10351   0.938   6.878   6.347  0.9314  0.1457  0.6678
   7823SM   H6G10352   0.757   6.823   6.369 -0.1941 -2.9726  1.6704
   7823SM   C7F10353   0.890   6.662   6.351 -0.6505  0.0757  0.4891
   7823SM   H7F10354   0.880   6.599   6.442 -1.2559  1.9942  1.8060
   7823SM   H7G10355   0.997   6.658   6.321 -0.9095 -0.6213 -0.3893
   7823SM   C8F10356   0.806   6.601   6.240  0.6061  0.4558 -0.3482
   7823SM   H8F10357   0.701   6.594   6.278  0.5318  1.2378 -0.4018
   7823SM   H8G10358   0.847   6.500   6.219 -0.2264  0.1963 -0.8018
   7823SM   C9F10359   0.812   6.684   6.106 -0.3070 -0.3075  0.6465
   7823SM   H9F10360   0.922   6.691   6.088 -0.5200  1.6507 -0.1608
   7823SM   H9G10361   0.777   6.789   6.114  1.3808  0.3600 -0.2897
   7823SM  C10F10362   0.753   6.609   5.987 -0.7351 -0.1913  0.2917
   7823SM  H10F10363   0.645   6.590   6.006 -0.9163 -0.8443 -1.2872
   7823SM  H10G10364   0.809   6.515   5.968  1.1386  1.3829 -2.7799
   7823SM  C11F10365   0.765   6.691   5.851 -0.4777  0.7150 -0.6200
   7823SM  H11F10366   0.786   6.795   5.883  0.4133  1.0244 -2.0911
   7823SM  H11G10367   0.662   6.690   5.809 -1.1391 -0.3362  0.9593
   7823SM  C12F10368   0.875   6.645   5.759  0.4000 -0.5885  0.2435
   7823SM  H12F10369   0.868   6.535   5.743  1.6627 -0.6377 -0.1463
   7823SM  H12G10370   0.980   6.666   5.788 -0.1386  1.7667  0.6969
   7823SM  C13F10371   0.853   6.693   5.612 -1.2289  0.2329 -0.3610
   7823SM  H13F10372   0.945   6.663   5.557 -1.0580 -1.0706  0.5739
   7823SM  H13G10373   0.847   6.803   5.623  2.0091  0.6462 -1.4884
   7823SM  C14F10374   0.732   6.648   5.538  0.0170  0.0801 -0.6038
   7823SM  H14F10375   0.647   6.654   5.610  2.0571 -1.8567  2.1993
   7823SM  H14G10376   0.739   6.546   5.495  1.3228 -0.5087  0.9022
   7823SM  C15F10377   0.699   6.744   5.431 -0.4262 -0.1032  0.9738
   7823SM  H15F10378   0.675   6.847   5.462  1.9119  1.3376 -1.5730
   7823SM  H15G10379   0.603   6.715   5.382  0.0464 -1.8936  1.0388
   7823SM  C16F10380   0.805   6.758   5.316 -0.1842  0.4506 -0.7520
   7823SM  H16F10381   0.803   6.659   5.264  0.3310  0.6730 -1.1985
   7823SM  H16G10382   0.904   6.767   5.365 -0.8515 -0.2818  0.8068
   7823SM  C17F10383   0.766   6.856   5.212 -0.1721  0.1250  0.0553
   7823SM  H17F10384   0.660   6.831   5.194 -0.7996  1.1334  2.0535
   7823SM  H17G10385   0.827   6.851   5.119 -0.6167  0.9887 -0.2946
   7823SM  C18F10386   0.761   7.002   5.269 -0.7538 -0.1667  0.3500
   7823SM  H18F10387   0.726   7.011   5.374 -0.7777 -0.6108  0.3827
   7823SM  H18G10388   0.691   7.058   5.203 -2.3852 -1.3759  0.9783
   7823SM  C19F10389   0.904   7.060   5.266 -0.6554 -0.5032 -0.0571
   7823SM  H19F10390   0.974   6.976   5.284  0.1538 -0.6725 -3.4241
   7823SM  H19G10391   0.923   7.140   5.340 -0.7970  0.3150 -0.8867
   7823SM  C20F10392   0.933   7.125   5.129 -0.1006 -0.0481 -0.2502
   7823SM  H20F10393   0.858   7.206   5.121  1.8972  2.2333  2.1100
   7823SM  H20G10394   0.918   7.058   5.041 -2.1448  0.5019 -0.3581
   7823SM  C21F10395   1.071   7.197   5.110  0.5469  0.4057 -0.9618
   7823SM  H21F10396   1.157   7.129   5.127  1.0733  1.2231 -0.2107
   7823SM  H21G10397   1.074   7.271   5.193  1.3950  0.7845 -1.3131
   7823SM  C22F10398   1.096   7.266   4.981 -0.8027  0.2175  1.0906
   7823SM  H22F10399   1.030   7.353   4.962  0.2818  0.9586  0.6088
   7823SM  H22G10400   1.073   7.197   4.897  2.5432  1.1682 -0.8138
   7823SM  C23F10401   1.246   7.315   4.981 -0.3302 -0.5369  0.0688
   7823SM  H23F10402   1.310   7.229   5.009 -0.3193 -1.5756 -2.7662
   7823SM  H23G10403   1.259   7.395   5.056 -0.0964  0.1433 -0.6865
   7823SM  H23H10404   1.280   7.349   4.881 -2.2467  1.3140 -0.0324
   7923SM     N10405   6.990   0.025   7.697  0.0438 -0.0697  0.1254
   7923SM   C1510406   6.916   0.140   7.762 -0.4104  0.6648  0.1151
   7923SM  H15A10407   6.965   0.229   7.726 -0.7273  0.5593 -0.5845
   7923SM  H15B10408   6.928   0.142   7.870 -1.2593  0.9259  0.2108
   7923SM  H15C10409   6.814   0.147   7.730 -0.0136 -0.8979 -1.6473
   7923SM   C1410410   7.120  -0.000   7.764 -0.4044  0.9799  0.3840
   7923SM  H14A10411   7.108  -0.017   7.870  1.7733 -0.8635  0.4171
   7923SM  H14B10412   7.200   0.072   7.758 -0.7862  1.3514 -0.5224
   7923SM  H14C10413   7.159  -0.088   7.715  1.8015  1.1218  1.7596
   7923SM   C1310414   6.903  -0.098   7.711  0.4971  0.3492 -0.0454
   7923SM  H13A10415   6.865  -0.113   7.812  0.7927 -0.5676 -0.0604
   7923SM  H13B10416   6.943  -0.190   7.670 -1.0900 -0.3471 -0.1152
   7923SM  H13C10417   6.811  -0.077   7.658  0.1678 -0.1087  0.3361
   7923SM   C1210418   7.015   0.051   7.550  0.4246 -0.1121  0.0600
   7923SM  H12A10419   7.046  -0.043   7.508 -2.4079 -2.0348  1.9347
   7923SM  H12B10420   7.082   0.133   7.528 -1.4300  1.3183 -0.5129
   7923SM   C1110421   6.888   0.096   7.465  0.8759 -0.1762  0.5075
   7923SM  H11A10422   6.800   0.032   7.485  0.4814  0.2515  0.1530
   7923SM  H11B10423   6.890   0.078   7.355 -2.6583  0.9786  0.1224
   7923SM     P10424   6.927   0.351   7.413 -0.3826 -0.0353  0.1416
   7923SM   O1310425   6.857   0.477   7.447  0.3077  0.2813  0.2671
   7923SM   O1410426   7.070   0.332   7.443 -0.3480  0.2299  0.2694
   7923SM   O1110427   6.911   0.318   7.258 -0.4534  0.2231 -0.1225
   7923SM   O1210428   6.853   0.229   7.484 -0.2810 -0.8465  0.7483
   7923SM   C1S10429   6.778   0.280   7.211  0.6371 -0.0878  0.7294
   7923SM   H1S10430   6.708   0.365   7.222 -0.1453 -0.6827  0.4157
   7923SM   H1T10431   6.727   0.204   7.274 -0.4134  0.5841  0.7116
   7923SM    NF10432   6.655   0.190   7.013 -0.3880 -0.0110 -0.5008
   7923SM   HNF10433   6.632   0.093   7.020 -1.8002  0.3726  0.4341
   7923SM   C2S10434   6.782   0.239   7.064  0.4684 -0.2503  0.9070
   7923SM   H2S10435   6.819   0.328   7.009  1.2792 -0.8502  0.4503
   7923SM   C3S10436   6.896   0.135   7.039  0.5760  0.5955  0.7946
   7923SM   H3S10437   6.874   0.041   7.095 -1.7416 -0.9592 -2.3901
   7923SM    O310438   7.019   0.177   7.079 -0.3296  0.0784 -0.1121
   7923SM   HO310439   6.995   0.252   7.135 -1.0660 -0.5955  0.5118
   7923SM   C4S10440   6.902   0.108   6.893  0.4610 -0.8711 -0.3519
   7923SM   H4S10441   6.924   0.203   6.842 -1.7645 -0.3933 -0.5111
   7923SM   C5S10442   6.879  -0.007   6.826  0.5317  0.5284 -0.4475
   7923SM   H5S10443   6.857  -0.103   6.875  2.3851 -0.7108 -1.9222
   7923SM   C6S10444   6.889  -0.022   6.676  0.7001 -0.2458 -0.5317
   7923SM   H6S10445   6.912  -0.125   6.639 -1.2227 -1.0789  0.4346
   7923SM   H6T10446   6.959   0.055   6.638  2.0293 -0.4394  1.3848
   7923SM   C7S10447   6.742   0.010   6.625  0.4491  0.1541  0.7120
   7923SM   H7S10448   6.721   0.115   6.652  2.1081  0.6581  0.1777
   7923SM   H7T10449   6.668  -0.052   6.681  0.7037 -0.7771  0.0561
   7923SM   C8S10450   6.713  -0.021   6.472 -0.1832  0.1213  0.6941
   7923SM   H8S10451   6.764   0.027   6.386  1.4133 -1.4614  0.7165
   7923SM   H8T10452   6.606  -0.003   6.448 -0.2663 -0.3225  0.7318
   7923SM   C9S10453   6.727  -0.172   6.444  0.3169  0.0584  0.5544
   7923SM   H9S10454   6.672  -0.211   6.533 -1.7964  3.7089  1.0239
   7923SM   H9T10455   6.832  -0.209   6.448 -0.3028 -1.9287 -0.3573
   7923SM  C10S10456   6.660  -0.224   6.318  0.6438 -0.0788 -0.3320
   7923SM  H10S10457   6.551  -0.200   6.314  0.8247  1.2603  1.5286
   7923SM  H10T10458   6.677  -0.333   6.325 -0.0195 -0.1068  1.0669
   7923SM  C11S10459   6.720  -0.161   6.191 -0.0537  0.3069 -0.1051
   7923SM  H11S10460   6.830  -0.152   6.205 -0.3455  1.1294  1.9447
   7923SM  H11T10461   6.675  -0.061   6.178 -1.9190 -0.1045  2.5474
   7923SM  C12S10462   6.703  -0.248   6.065 -0.0654 -0.1960  0.0800
   7923SM  H12S10463   6.597  -0.283   6.057  0.0591 -0.1803 -2.1137
   7923SM  H12T10464   6.769  -0.337   6.062  2.3443  1.4642  1.2174
   7923SM  C13S10465   6.741  -0.167   5.944 -0.0392  0.6761  1.0254
   7923SM  H13S10466   6.844  -0.126   5.950  0.7131 -0.8267 -0.6175
   7923SM  H13T10467   6.675  -0.079   5.931 -0.1553  0.4306 -0.1955
   7923SM  C14S10468   6.727  -0.239   5.811 -0.2042 -0.2002  0.5095
   7923SM  H14S10469   6.808  -0.313   5.795  0.0569  0.5654 -2.1318
   7923SM  H14T10470   6.736  -0.164   5.730 -1.2011  1.0283  1.4855
   7923SM  C15S10471   6.601  -0.322   5.791  0.1963 -0.6362  0.8933
   7923SM  H15S10472   6.587  -0.390   5.878  0.7928  0.5831  1.9695
   7923SM  H15T10473   6.609  -0.388   5.702  0.2798 -0.7810  1.0061
   7923SM  C16S10474   6.470  -0.239   5.792  0.5807  0.3215  0.9652
   7923SM  H16S10475   6.458  -0.171   5.705  0.2141 -2.5941 -1.4375
   7923SM  H16T10476   6.451  -0.173   5.880 -0.5974  1.3146  0.0030
   7923SM  C17S10477   6.351  -0.340   5.790  0.6272 -0.2936 -0.4161
   7923SM  H17S10478   6.269  -0.295   5.850  0.5885 -0.6503 -0.2031
   7923SM  H17T10479   6.383  -0.423   5.857  1.4005  1.3723  1.3755
   7923SM  C18S10480   6.304  -0.378   5.653  0.4934 -0.3817  0.3334
   7923SM  H18S10481   6.288  -0.295   5.582  0.3710 -2.5703 -2.3696
   7923SM  H18T10482   6.205  -0.428   5.657 -0.0862  0.7169  0.0425
   7923SM  H18U10483   6.372  -0.455   5.610 -0.0339 -0.5770 -0.1655
   7923SM   C1F10484   6.554   0.271   6.978 -0.3210  0.0269  0.7949
   7923SM    OF10485   6.572   0.392   6.970 -0.6836  0.2188  0.1183
   7923SM   C2F10486   6.419   0.211   6.971 -0.0859 -0.0747  0.5996
   7923SM   H2F10487   6.340   0.288   6.981 -1.5554 -1.4271 -0.0597
   7923SM   H2G10488   6.414   0.150   7.064  1.0616  0.9360  1.3570
   7923SM   C3F10489   6.401   0.125   6.847 -0.2940  0.3537 -0.2571
   7923SM   H3F10490   6.304   0.069   6.850  0.4837 -1.0667 -0.4639
   7923SM   H3G10491   6.481   0.050   6.832  0.6079  1.1501  0.4552
   7923SM   C4F10492   6.387   0.210   6.719  0.1678 -0.3598 -0.1329
   7923SM   H4F10493   6.480   0.266   6.700 -0.3029 -0.0040 -1.4791
   7923SM   H4G10494   6.305   0.285   6.730 -0.8570 -1.4438 -0.1931
   7923SM   C5F10495   6.359   0.123   6.601  0.1395 -0.1093  0.2954
   7923SM   H5F10496   6.259   0.074   6.605 -0.4700  1.0653 -0.1214
   7923SM   H5G10497   6.438   0.045   6.603  1.4630  1.1033 -1.7288
   7923SM   C6F10498   6.362   0.194   6.463  0.1392  0.7543  0.2701
   7923SM   H6F10499   6.463   0.235   6.441 -0.1006  2.7061  2.3284
   7923SM   H6G10500   6.288   0.276   6.449 -0.5299 -0.0305 -0.9634
   7923SM   C7F10501   6.342   0.096   6.349  0.3757 -0.2426  1.0075
   7923SM   H7F10502   6.245   0.045   6.365 -1.3936  2.3858 -0.6461
   7923SM   H7G10503   6.423   0.020   6.355  0.1961 -0.5733 -0.4616
   7923SM   C8F10504   6.336   0.162   6.208  0.1176  0.3630 -0.0120
   7923SM   H8F10505   6.437   0.209   6.197  0.6104  0.0944  2.7115
   7923SM   H8G10506   6.256   0.238   6.194  0.4258  0.5921 -0.5830
   7923SM   C9F10507   6.321   0.053   6.104 -0.1406 -0.2288  0.3374
   7923SM   H9F10508   6.226  -0.001   6.122 -1.2043  1.3640 -0.2577
   7923SM   H9G10509   6.407  -0.017   6.111 -0.6333 -1.0156 -0.9894
   7923SM  C10F10510   6.338   0.104   5.966 -0.0456 -0.6849  0.3106
   7923SM  H10F10511   6.270   0.188   5.939  1.7470  0.0558 -2.4110
   7923SM  H10G10512   6.324   0.020   5.895  4.2992 -1.0190 -0.4265
   7923SM  C11F10513   6.475   0.161   5.923 -0.6679  0.1638 -0.4469
   7923SM  H11F10514   6.554   0.088   5.950 -1.4673 -0.5839 -0.0553
   7923SM  H11G10515   6.503   0.250   5.984  1.5333  0.2930 -1.5656
   7923SM  C12F10516   6.473   0.200   5.774  0.8702  0.8549 -0.7704
   7923SM  H12F10517   6.401   0.283   5.759 -1.4690 -1.0830 -0.7574
   7923SM  H12G10518   6.444   0.111   5.714 -1.5675  1.5908 -0.7678
   7923SM  C13F10519   6.610   0.237   5.716  0.1820 -0.6424  0.2610
   7923SM  H13F10520   6.658   0.300   5.794  0.7709  0.2129 -0.7622
   7923SM  H13G10521   6.588   0.289   5.620 -2.5040 -2.9265 -0.4904
   7923SM  C14F10522   6.692   0.111   5.672 -0.9691  0.6524 -0.6275
   7923SM  H14F10523   6.647   0.061   5.584  1.3994  0.2640 -1.7085
   7923SM  H14G10524   6.688   0.044   5.760 -0.4826  1.2941 -0.1010
   7923SM  C15F10525   6.838   0.144   5.640  0.3844 -0.7095 -0.0798
   7923SM  H15F10526   6.894   0.182   5.728 -0.7677  1.6580 -0.2911
   7923SM  H15G10527   6.838   0.226   5.566  1.9887 -0.0376  0.6103
   7923SM  C16F10528   6.916   0.028   5.578  0.7650 -0.1427 -0.6543
   7923SM  H16F10529   6.854  -0.009   5.493 -3.4715  1.1183  1.6258
   7923SM  H16G10530   6.910  -0.050   5.657 -1.3828 -0.1409 -0.7601
   7923SM  C17F10531   7.065   0.057   5.542  0.0378 -0.0122  0.1752
   7923SM  H17F10532   7.069   0.110   5.444 -0.2660 -1.9667 -0.9469
   7923SM  H17G10533   7.123  -0.035   5.519 -1.8757 -1.4042  0.6158
   7923SM  C18F10534   7.149   0.130   5.649 -1.2015  0.4377 -0.3943
   7923SM  H18F10535   7.099   0.217   5.697  0.3922  0.2110  1.8596
   7923SM  H18G10536   7.240   0.167   5.596 -0.6928  1.0942  0.8922
   7923SM  C19F10537   7.191   0.026   5.755 -0.2273 -0.5005 -0.1482
   7923SM  H19F10538   7.243  -0.056   5.702 -0.8294  0.2556 -2.0002
   7923SM  H19G10539   7.099  -0.017   5.800 -1.9347  0.9241 -2.0686
   7923SM  C20F10540   7.291   0.076   5.854 -0.3619  0.3755 -0.3956
   7923SM  H20F10541   7.259   0.166   5.911  0.2664  0.4543 -0.1586
   7923SM  H20G10542   7.382   0.110   5.800 -0.4689 -1.0771 -1.5492
   7923SM  C21F10543   7.335  -0.038   5.951 -0.5964 -0.9271 -0.5175
   7923SM  H21F10544   7.376  -0.128   5.899  1.4347 -0.0060 -0.6330
   7923SM  H21G10545   7.255  -0.043   6.027 -0.4376 -1.2023 -0.3697
   7923SM  C22F10546   7.463   0.009   6.033  0.5107 -0.3514  0.0395
   7923SM  H22F10547   7.446   0.104   6.088 -1.9199  0.1345 -1.3875
   7923SM  H22G10548   7.542   0.026   5.957 -0.5965 -3.0630 -1.8912
   7923SM  C23F10549   7.501  -0.103   6.132 -1.0570  0.3359 -0.1261
   7923SM  H23F10550   7.512  -0.202   6.084 -0.1194  1.3015 -1.9765
   7923SM  H23G10551   7.427  -0.113   6.215 -0.2401  2.8517  1.0017
   7923SM  H23H10552   7.592  -0.068   6.185  0.2695 -1.3176 -1.2173
   8023SM     N10553   0.305   7.613   7.734  0.0155  0.2978 -0.0771
   8023SM   C1510554   0.163   7.651   7.764 -0.0067 -0.2675  0.0937
   8023SM  H15A10555   0.096   7.573   7.798  1.7605 -1.3260  1.3112
   8023SM  H15B10556   0.127   7.707   7.678  0.2889 -0.7652 -0.3591
   8023SM  H15C10557   0.166   7.724   7.843 -0.8716  1.6011 -1.5131
   8023SM   C1410558   0.395   7.737   7.740  0.7021 -0.4624 -0.8585
   8023SM  H14A10559   0.473   7.740   7.666 -0.0337  1.5957 -1.6243
   8023SM  H14B10560   0.438   7.740   7.839  1.7490 -0.9810 -1.2772
   8023SM  H14C10561   0.335   7.827   7.740  0.6569 -0.4917 -0.6901
   8023SM   C1310562   0.365   7.518   7.839 -0.3145  0.0885  0.1320
   8023SM  H13A10563   0.380   7.570   7.932 -0.2542 -0.9529  0.7115
   8023SM  H13B10564   0.456   7.477   7.798 -1.5136 -1.8347 -0.7754
   8023SM  H13C10565   0.295   7.440   7.863 -0.2254 -0.0882 -0.1753
   8023SM   C1210566   0.312   7.539   7.600  0.1806  0.0359 -0.7214
   8023SM  H12A10567   0.258   7.445   7.607 -0.0300  0.0443 -2.0369
   8023SM  H12B10568   0.412   7.501   7.585  0.3869  0.6234 -0.8293
   8023SM   C1110569   0.263   7.619   7.469 -0.5700  0.7183 -0.5301
   8023SM  H11A10570   0.300   7.570   7.376 -0.7303 -1.9224  0.7187
   8023SM  H11B10571   0.316   7.717   7.475  0.7585 -0.0494  2.2563
   8023SM     P10572   0.040   7.497   7.449  0.5410  0.1490 -0.0254
   8023SM   O1310573   0.098   7.398   7.361 -0.3307 -0.2738  0.5783
   8023SM   O1410574   0.006   7.453   7.589 -0.1010 -0.0335  0.0032
   8023SM   O1110575  -0.091   7.548   7.390 -0.0641 -0.3425  0.1457
   8023SM   O1210576   0.123   7.628   7.454  0.1692  0.1246  0.3339
   8023SM   C1S10577  -0.091   7.596   7.247  0.4845 -0.4469 -0.4272
   8023SM   H1S10578  -0.002   7.659   7.224 -0.7383  1.2559 -0.7151
   8023SM   H1T10579  -0.180   7.661   7.230  0.6083  0.0179  0.6251
   8023SM    NF10580  -0.084   7.550   7.002  0.0656 -0.2555 -0.1278
   8023SM   HNF10581  -0.171   7.567   6.956 -1.0685 -0.0244  1.9479
   8023SM   C2S10582  -0.093   7.488   7.135 -0.8587 -0.4236 -0.0349
   8023SM   H2S10583  -0.005   7.421   7.141 -0.1179  0.3827 -1.5016
   8023SM   C3S10584  -0.219   7.404   7.152 -0.2254 -0.0050 -0.4371
   8023SM   H3S10585  -0.301   7.476   7.128  1.1263  1.7436 -0.0366
   8023SM    O310586  -0.230   7.360   7.284  0.2169  0.2598 -0.5767
   8023SM   HO310587  -0.156   7.409   7.321  1.5330 -1.3316 -0.9973
   8023SM   C4S10588  -0.222   7.293   7.052 -0.8267  0.5985 -0.6436
   8023SM   H4S10589  -0.283   7.310   6.962 -0.6135 -0.4158 -0.9904
   8023SM   C5S10590  -0.176   7.165   7.065  0.3469 -0.1341  0.3099
   8023SM   H5S10591  -0.136   7.134   7.163  2.4267  0.0606 -0.4287
   8023SM   C6S10592  -0.185   7.055   6.962 -0.2761  0.0083  1.0790
   8023SM   H6S10593  -0.269   6.985   6.982  0.9147 -1.4487  1.1136
   8023SM   H6T10594  -0.090   6.998   6.958 -0.4797 -0.2907 -1.4473
   8023SM   C7S10595  -0.184   7.115   6.820 -0.9703  0.3811  0.4396
   8023SM   H7S10596  -0.101   7.188   6.817 -0.3492 -0.3546 -2.0855
   8023SM   H7T10597  -0.283   7.155   6.789 -0.4987 -0.8566 -3.0943
   8023SM   C8S10598  -0.155   7.004   6.725 -0.0472 -0.1952 -0.4745
   8023SM   H8S10599  -0.232   6.926   6.738 -0.7392  0.5349 -0.1159
   8023SM   H8T10600  -0.053   6.971   6.754 -0.8141  0.0453  2.9146
   8023SM   C9S10601  -0.150   7.042   6.575  0.0968  0.6293 -0.5715
   8023SM   H9S10602  -0.257   7.048   6.547 -0.7419 -1.0000  1.9452
   8023SM   H9T10603  -0.085   6.962   6.535  0.9650  0.6163  0.7765
   8023SM  C10S10604  -0.072   7.165   6.552  0.3217 -0.1785  0.4467
   8023SM  H10S10605   0.026   7.154   6.603  0.6723 -1.3371 -0.4481
   8023SM  H10T10606  -0.131   7.255   6.581  0.8225  0.6783 -1.0761
   8023SM  C11S10607  -0.041   7.174   6.401 -0.5213  0.5064  0.4021
   8023SM  H11S10608  -0.132   7.204   6.346 -1.9839 -3.5732  0.2366
   8023SM  H11T10609  -0.012   7.074   6.361  0.7951 -1.3592  5.2973
   8023SM  C12S10610   0.080   7.275   6.362  0.2118 -0.0229 -0.4153
   8023SM  H12S10611   0.173   7.246   6.416 -0.6870  0.7605  1.6466
   8023SM  H12T10612   0.061   7.379   6.395  0.4524 -0.4197  1.0220
   8023SM  C13S10613   0.107   7.283   6.211  0.0722 -0.2510  0.5220
   8023SM  H13S10614   0.008   7.287   6.161  0.0570 -0.6566  0.5211
   8023SM  H13T10615   0.166   7.198   6.170  2.3370  2.1055 -1.5021
   8023SM  C14S10616   0.184   7.416   6.186  0.2750  0.1814  0.1592
   8023SM  H14S10617   0.281   7.416   6.241  1.4001 -0.4993 -1.7487
   8023SM  H14T10618   0.130   7.508   6.218 -0.5663 -0.0586 -0.5391
   8023SM  C15S10619   0.228   7.425   6.039 -0.2706  0.0730 -0.7416
   8023SM  H15S10620   0.303   7.345   6.022 -1.2966 -1.4954  1.6420
   8023SM  H15T10621   0.267   7.526   6.015 -1.7804  0.6586 -0.8354
   8023SM  C16S10622   0.119   7.416   5.927 -0.5968 -0.3013  0.0915
   8023SM  H16S10623   0.044   7.497   5.929  0.5490  0.8035  2.0921
   8023SM  H16T10624   0.074   7.315   5.936  0.7766 -0.8418  1.2831
   8023SM  C17S10625   0.189   7.423   5.784 -0.2165  0.6604  0.1250
   8023SM  H17S10626   0.265   7.342   5.785 -0.0071  0.8589  0.2938
   8023SM  H17T10627   0.251   7.514   5.771  0.3208  0.3200  0.2988
   8023SM  C18S10628   0.086   7.373   5.685 -0.5079 -0.4818 -0.2266
   8023SM  H18S10629   0.045   7.274   5.712  0.7413 -1.5987 -2.2206
   8023SM  H18T10630   0.138   7.375   5.586 -0.3821  1.1356 -0.1672
   8023SM  H18U10631  -0.000   7.443   5.681 -0.2636 -0.0440  1.3500
   8023SM   C1F10632   0.026   7.603   6.954 -0.0684  0.3777 -0.1341
   8023SM    OF10633   0.136   7.596   7.009  0.1345 -0.2821  0.2577
   8023SM   C2F10634   0.011   7.674   6.821  0.7836 -0.2627  0.0723
   8023SM   H2F10635   0.013   7.784   6.836  1.4961 -0.4468  1.4518
   8023SM   H2G10636  -0.089   7.650   6.780  0.8110 -0.0118 -0.1475
   8023SM   C3F10637   0.119   7.638   6.716  0.9172  0.2932  0.6607
   8023SM   H3F10638   0.126   7.528   6.702  1.6992  0.1889  1.7002
   8023SM   H3G10639   0.216   7.687   6.740  1.0968  1.2958 -1.7902
   8023SM   C4F10640   0.095   7.702   6.580  0.1159  0.2340 -0.5156
   8023SM   H4F10641   0.073   7.811   6.590  1.1255  0.4082  0.0159
   8023SM   H4G10642   0.000   7.663   6.539 -0.0168 -1.9352  1.6230
   8023SM   C5F10643   0.211   7.688   6.480  0.6387 -0.3465  0.3026
   8023SM   H5F10644   0.234   7.580   6.463  1.2317  0.0330 -1.5415
   8023SM   H5G10645   0.306   7.729   6.521  1.4631 -1.9802  0.1334
   8023SM   C6F10646   0.193   7.755   6.343  0.3357 -1.0047  0.1266
   8023SM   H6F10647   0.167   7.862   6.357 -1.1208 -1.4128  0.7979
   8023SM   H6G10648   0.100   7.710   6.301 -1.1246  1.9894 -0.1691
   8023SM   C7F10649   0.310   7.751   6.248 -0.5870 -0.4668  0.3575
   8023SM   H7F10650   0.342   7.647   6.224  1.3158 -0.0758  0.9885
   8023SM   H7G10651   0.405   7.797   6.284 -0.8039  1.8513 -1.7621
   8023SM   C8F10652   0.285   7.809   6.111 -0.0974 -0.5695  0.6626
   8023SM   H8F10653   0.259   7.916   6.130  1.4261  0.0738 -0.6439
   8023SM   H8G10654   0.191   7.770   6.066 -0.5139  1.1433 -0.0383
   8023SM   C9F10655   0.407   7.800   6.019 -0.4002 -0.3831  0.1401
   8023SM   H9F10656   0.442   7.695   6.014  0.2291 -0.1336 -1.0146
   8023SM   H9G10657   0.494   7.862   6.049  0.8154 -2.2828  0.7136
   8023SM  C10F10658   0.373   7.847   5.882 -0.4083 -0.3655  0.2791
   8023SM  H10F10659   0.320   7.945   5.885 -1.4652 -0.9269  0.4679
   8023SM  H10G10660   0.301   7.769   5.852 -0.2629 -2.0914  3.8799
   8023SM  C11F10661   0.497   7.849   5.787  0.2183  0.1267 -0.0853
   8023SM  H11F10662   0.553   7.756   5.810  0.1050  0.0321 -0.1945
   8023SM  H11G10663   0.546   7.940   5.827  2.7026 -0.3416 -1.8775
   8023SM  C12F10664   0.461   7.862   5.640  1.0466  0.5573  0.2356
   8023SM  H12F10665   0.365   7.808   5.629  2.5199 -2.3172  0.5129
   8023SM  H12G10666   0.539   7.806   5.584  1.2184  1.0652 -0.0439
   8023SM  C13F10667   0.451   8.004   5.593 -0.1146  0.0906 -0.3564
   8023SM  H13F10668   0.548   8.052   5.620 -0.1362 -0.9422  1.7499
   8023SM  H13G10669   0.373   8.064   5.644  0.5509  0.3543  0.3813
   8023SM  C14F10670   0.447   8.013   5.441 -0.4226  0.3735  0.6012
   8023SM  H14F10671   0.366   7.946   5.405 -0.4425  0.3143  0.7558
   8023SM  H14G10672   0.543   7.972   5.402 -0.7789  0.3332 -0.2595
   8023SM  C15F10673   0.428   8.157   5.401  0.8700 -0.0553  0.7858
   8023SM  H15F10674   0.512   8.212   5.448  1.0683 -0.1148  0.5069
   8023SM  H15G10675   0.334   8.207   5.432 -0.4413 -0.6052 -1.9703
   8023SM  C16F10676   0.441   8.175   5.250  0.0936  0.0094 -0.5236
   8023SM  H16F10677   0.349   8.135   5.202  0.0405 -0.2144 -0.2425
   8023SM  H16G10678   0.523   8.118   5.202 -0.3937 -1.0791 -0.1059
   8023SM  C17F10679   0.435   8.321   5.220  0.3595 -0.5545 -0.0748
   8023SM  H17F10680   0.509   8.368   5.289 -0.4658 -0.0507  0.4839
   8023SM  H17G10681   0.330   8.352   5.240  0.9911  1.3102  0.5466
   8023SM  C18F10682   0.468   8.348   5.068 -0.1137  0.1383 -0.5740
   8023SM  H18F10683   0.376   8.318   5.012 -0.9849  3.2322 -0.9822
   8023SM  H18G10684   0.555   8.295   5.023  0.1931  0.2359 -0.0959
   8023SM  C19F10685   0.510   8.496   5.054  0.5924 -0.1261  0.2113
   8023SM  H19F10686   0.597   8.522   5.118 -0.0848 -1.2739  1.6569
   8023SM  H19G10687   0.434   8.567   5.095  2.3007  0.8520  1.8577
   8023SM  C20F10688   0.550   8.533   4.913 -0.0991  0.6236 -0.2663
   8023SM  H20F10689   0.463   8.518   4.844 -0.3092 -1.0621  0.3232
   8023SM  H20G10690   0.622   8.452   4.890 -0.1907 -0.2867  2.3871
   8023SM  C21F10691   0.596   8.680   4.907  0.0442  0.1270  0.4487
   8023SM  H21F10692   0.706   8.695   4.917  0.3016 -0.5942 -1.0116
   8023SM  H21G10693   0.546   8.736   4.988  1.0750  2.0890 -0.2155
   8023SM  C22F10694   0.554   8.750   4.775 -0.5548  0.2203  0.3431
   8023SM  H22F10695   0.587   8.856   4.768 -1.3009  0.4157 -0.4047
   8023SM  H22G10696   0.444   8.738   4.776 -0.3166 -2.8785  1.2457
   8023SM  C23F10697   0.598   8.679   4.645  0.1615  0.0872 -0.2432
   8023SM  H23F10698   0.578   8.740   4.554  1.2701  2.3530  0.9438
   8023SM  H23G10699   0.542   8.583   4.643  1.0264 -0.5233  1.9776
   8023SM  H23H10700   0.705   8.648   4.654  0.4464  1.4690  1.7321
   8123SM     N10701   3.134   4.573   2.175 -0.1322  0.0256  0.0552
   8123SM   C1510702   3.151   4.486   2.055 -0.0086 -0.3111 -0.5153
   8123SM  H15A10703   3.139   4.533   1.959  2.4692  0.1669 -0.6372
   8123SM  H15B10704   3.069   4.415   2.055  0.4740 -0.8962 -1.4622
   8123SM  H15C10705   3.245   4.434   2.046  0.8019  1.4546 -3.2305
   8123SM   C1410706   3.202   4.709   2.158  0.2367 -0.0566 -0.2861
   8123SM  H14A10707   3.309   4.694   2.151  0.5741  0.0674  2.9418
   8123SM  H14B10708   3.186   4.766   2.248  0.4267  0.0859 -0.3429
   8123SM  H14C10709   3.156   4.768   2.081  0.0752  0.9117  0.5322
   8123SM   C1310710   2.989   4.588   2.205 -0.3202  0.7021  0.0227
   8123SM  H13A10711   2.938   4.493   2.211 -0.8452  0.9718 -0.1486
   8123SM  H13B10712   2.942   4.648   2.129  0.2588  2.5342  1.0427
   8123SM  H13C10713   2.976   4.644   2.296 -0.3868 -0.2709  0.6266
   8123SM   C1210714   3.204   4.495   2.288 -0.5440  0.6878  0.0500
   8123SM  H12A10715   3.308   4.490   2.262 -0.1119 -2.1022  1.9009
   8123SM  H12B10716   3.160   4.397   2.285 -1.0797  0.9213  0.0477
   8123SM   C1110717   3.181   4.533   2.432  0.3661 -0.0104 -0.2681
   8123SM  H11A10718   3.180   4.644   2.434  0.8628  0.0323 -1.3405
   8123SM  H11B10719   3.260   4.493   2.499  1.9189  3.2722  0.0393
   8123SM     P10720   2.965   4.558   2.568  0.7497  0.1044  0.3725
   8123SM   O1310721   2.941   4.695   2.514 -0.1187  0.1045 -0.7980
   8123SM   O1410722   2.845   4.472   2.592  0.0439  0.8370 -0.1899
   8123SM   O1110723   3.055   4.570   2.693 -0.2092 -0.2596 -0.0673
   8123SM   O1210724   3.049   4.485   2.465 -0.9280 -0.0874 -0.1761
   8123SM   C1S10725   3.056   4.469   2.801  0.0751 -0.7020 -0.0720
   8123SM   H1S10726   2.994   4.380   2.781 -0.8897 -0.2427  0.8020
   8123SM   H1T10727   3.022   4.509   2.898  0.7250 -1.5654  0.5283
   8123SM    NF10728   3.212   4.308   2.909 -0.7156 -0.2629 -0.4325
   8123SM   HNF10729   3.209   4.324   3.008 -2.4198 -2.1684 -0.1158
   8123SM   C2S10730   3.208   4.430   2.825  0.2127 -0.0551  0.3770
   8123SM   H2S10731   3.256   4.402   2.728 -0.4853 -0.2733  0.0850
   8123SM   C3S10732   3.278   4.555   2.885  0.3204 -0.4162  0.1782
   8123SM   H3S10733   3.221   4.595   2.972  2.3989  1.9601  0.5840
   8123SM    O310734   3.267   4.668   2.801 -0.1186 -0.5030  0.6460
   8123SM   HO310735   3.205   4.639   2.734  0.0342  0.2875  0.1565
   8123SM   C4S10736   3.421   4.522   2.924 -0.1253 -0.0106  0.9769
   8123SM   H4S10737   3.483   4.482   2.842  0.0187 -0.6380  1.3948
   8123SM   C5S10738   3.473   4.532   3.053 -0.1888 -0.2350  0.8418
   8123SM   H5S10739   3.412   4.558   3.141 -0.2792  1.8158  0.2237
   8123SM   C6S10740   3.608   4.503   3.087 -0.0329 -0.2072 -0.2041
   8123SM   H6S10741   3.651   4.594   3.135  0.5668 -0.8366  0.4875
   8123SM   H6T10742   3.670   4.466   3.002  1.2798  0.4628  0.4228
   8123SM   C7S10743   3.630   4.398   3.194  0.1362  0.1560 -0.7896
   8123SM   H7S10744   3.737   4.376   3.213  0.4304 -0.8344 -3.2693
   8123SM   H7T10745   3.596   4.297   3.161 -0.7811  0.7260 -1.6522
   8123SM   C8S10746   3.573   4.429   3.331  1.3399 -0.1781 -0.0487
   8123SM   H8S10747   3.609   4.339   3.385 -0.9604 -1.7400 -0.9633
   8123SM   H8T10748   3.462   4.427   3.343  0.8411  3.9636 -2.0393
   8123SM   C9S10749   3.626   4.560   3.394 -0.3125  0.4734 -0.0067
   8123SM   H9S10750   3.590   4.653   3.344  0.8071  1.9238  1.7243
   8123SM   H9T10751   3.736   4.558   3.382  0.0149  2.2993  1.9124
   8123SM  C10S10752   3.597   4.581   3.544 -0.2492  0.3643 -0.5679
   8123SM  H10S10753   3.488   4.592   3.563  0.5055  2.4706  3.6854
   8123SM  H10T10754   3.643   4.677   3.574 -1.9055  0.7845  0.7623
   8123SM  C11S10755   3.641   4.472   3.636  0.0418 -0.3934  0.4293
   8123SM  H11S10756   3.751   4.479   3.647  0.1867  0.6468 -1.2385
   8123SM  H11T10757   3.608   4.376   3.591 -0.9199  1.2465 -2.6710
   8123SM  C12S10758   3.588   4.478   3.778  0.1249  0.0616 -0.3727
   8123SM  H12S10759   3.483   4.516   3.775  0.5124  1.1349 -1.7078
   8123SM  H12T10760   3.647   4.555   3.833  1.2090 -1.6047  0.9032
   8123SM  C13S10761   3.595   4.353   3.867  0.1765 -0.1416  0.3101
   8123SM  H13S10762   3.703   4.325   3.866  0.3807  0.6380  0.2154
   8123SM  H13T10763   3.535   4.267   3.832 -0.1513 -0.3752  1.3918
   8123SM  C14S10764   3.551   4.384   4.007  0.2332  0.0133 -0.7396
   8123SM  H14S10765   3.444   4.414   4.011 -0.1138 -1.1638 -0.6715
   8123SM  H14T10766   3.602   4.475   4.046  1.1549 -1.1449  0.9019
   8123SM  C15S10767   3.580   4.262   4.103 -0.6580  0.1078  0.5813
   8123SM  H15S10768   3.688   4.241   4.083 -0.5873  0.7022  0.3181
   8123SM  H15T10769   3.519   4.175   4.071  2.1313 -1.6373 -0.4052
   8123SM  C16S10770   3.556   4.305   4.247  0.3659  0.1990  0.1032
   8123SM  H16S10771   3.449   4.326   4.265  0.4437 -0.3456  1.2883
   8123SM  H16T10772   3.613   4.396   4.275 -0.7202  0.9333 -0.0410
   8123SM  C17S10773   3.592   4.195   4.352 -0.1131 -0.0276 -0.1092
   8123SM  H17S10774   3.692   4.153   4.329 -0.4589 -0.7027 -0.4019
   8123SM  H17T10775   3.517   4.115   4.331 -0.3388  0.2798 -0.4979
   8123SM  C18S10776   3.596   4.246   4.498  0.4208  0.0435  0.5863
   8123SM  H18S10777   3.491   4.278   4.515 -0.1384 -1.6405  0.4674
   8123SM  H18T10778   3.657   4.337   4.519 -2.0857  1.5933  1.6503
   8123SM  H18U10779   3.624   4.157   4.556  0.1964 -0.7409 -0.4772
   8123SM   C1F10780   3.198   4.184   2.866  0.5627  0.5055  0.3346
   8123SM    OF10781   3.154   4.174   2.753 -0.7344 -0.4953  0.1309
   8123SM   C2F10782   3.209   4.072   2.959 -0.1744  0.6546 -0.4727
   8123SM   H2F10783   3.317   4.060   2.983 -0.7751 -3.1553  1.1247
   8123SM   H2G10784   3.175   3.979   2.909 -1.1879  2.2487 -2.9759
   8123SM   C3F10785   3.131   4.086   3.099 -0.2250 -0.0812  0.4669
   8123SM   H3F10786   3.022   4.091   3.079  0.2436  1.3028 -2.2103
   8123SM   H3G10787   3.163   4.187   3.133 -0.8515  0.2042  0.2173
   8123SM   C4F10788   3.166   3.981   3.210  0.2582 -0.3419 -0.3010
   8123SM   H4F10789   3.260   3.935   3.173  1.1385  2.1262 -1.4101
   8123SM   H4G10790   3.086   3.905   3.218  2.6993 -2.8629  1.9729
   8123SM   C5F10791   3.203   4.049   3.345 -0.0469  0.4372  0.1875
   8123SM   H5F10792   3.126   4.122   3.377  1.8994  1.7935  2.0418
   8123SM   H5G10793   3.297   4.103   3.323 -0.2368 -0.1549 -2.4275
   8123SM   C6F10794   3.221   3.955   3.459  0.0186 -0.5127 -0.4624
   8123SM   H6F10795   3.262   3.863   3.413  1.1906  1.4045 -3.5943
   8123SM   H6G10796   3.126   3.931   3.512  0.8599 -0.6603  0.9983
   8123SM   C7F10797   3.317   3.997   3.569 -0.7108 -0.4199 -0.2002
   8123SM   H7F10798   3.282   4.093   3.613  0.1609  0.9612 -2.3133
   8123SM   H7G10799   3.420   4.015   3.531 -1.0405 -0.1565 -1.0011
   8123SM   C8F10800   3.333   3.882   3.670  0.0472 -0.1284  0.2511
   8123SM   H8F10801   3.362   3.788   3.619 -2.9607 -2.1431  1.9407
   8123SM   H8G10802   3.239   3.880   3.729  0.0882  5.2037  0.9776
   8123SM   C9F10803   3.437   3.922   3.769 -0.0876  0.5253 -0.0381
   8123SM   H9F10804   3.418   4.011   3.832  0.1943 -0.3751  1.3774
   8123SM   H9G10805   3.536   3.935   3.721  0.1777  2.0178  0.8444
   8123SM  C10F10806   3.467   3.809   3.863  0.2546 -0.8419 -0.0231
   8123SM  H10F10807   3.505   3.717   3.812  1.5381  0.4110 -1.4196
   8123SM  H10G10808   3.370   3.794   3.915  0.8765  0.5091  1.5838
   8123SM  C11F10809   3.563   3.860   3.968 -0.0359  0.5399 -0.5015
   8123SM  H11F10810   3.509   3.945   4.015 -1.4988  0.9122 -2.7085
   8123SM  H11G10811   3.652   3.906   3.920  1.0531  0.1246  1.0366
   8123SM  C12F10812   3.608   3.761   4.075 -0.1618 -0.7297 -0.7406
   8123SM  H12F10813   3.672   3.684   4.027  1.6542  0.7900 -0.9216
   8123SM  H12G10814   3.517   3.715   4.118 -1.7882 -0.7852 -3.9721
   8123SM  C13F10815   3.696   3.818   4.181  0.3304 -0.7181  0.3143
   8123SM  H13F10816   3.642   3.902   4.230  0.0031 -0.8365  0.1641
   8123SM  H13G10817   3.794   3.853   4.143  1.2376 -1.9247  1.4591
   8123SM  C14F10818   3.717   3.709   4.287  0.0181  0.4000 -0.5348
   8123SM  H14F10819   3.786   3.631   4.248  1.0194  1.2127 -0.4283
   8123SM  H14G10820   3.616   3.664   4.298 -0.3948  0.9145 -2.0235
   8123SM  C15F10821   3.786   3.762   4.415 -0.3870 -0.8581 -0.4019
   8123SM  H15F10822   3.839   3.853   4.381 -3.3460  0.8508 -0.8159
   8123SM  H15G10823   3.858   3.690   4.458  1.4740  0.9864 -0.2726
   8123SM  C16F10824   3.689   3.810   4.523  0.4570  0.5196  0.3843
   8123SM  H16F10825   3.624   3.722   4.545 -0.6353  1.1435 -0.2250
   8123SM  H16G10826   3.619   3.889   4.487 -0.6106 -0.1264  0.9780
   8123SM  C17F10827   3.766   3.875   4.631 -0.4211 -0.1459 -0.4010
   8123SM  H17F10828   3.829   3.957   4.592 -0.0295  0.6865  1.8221
   8123SM  H17G10829   3.834   3.799   4.675 -0.3258  0.7950  1.1213
   8123SM  C18F10830   3.674   3.930   4.744 -0.4275  0.7055 -0.6444
   8123SM  H18F10831   3.598   3.999   4.701 -0.8643 -1.0331 -2.8621
   8123SM  H18G10832   3.741   3.976   4.819 -1.1287 -1.6284  1.5669
   8123SM  C19F10833   3.611   3.811   4.827  0.1492  0.2289 -0.4645
   8123SM  H19F10834   3.693   3.746   4.863  1.0459  1.4903 -0.1506
   8123SM  H19G10835   3.553   3.748   4.756 -0.2099 -0.7544  0.6567
   8123SM  C20F10836   3.535   3.853   4.954  0.0828  0.7862  0.8499
   8123SM  H20F10837   3.448   3.918   4.928 -0.3603 -0.2275 -0.2409
   8123SM  H20G10838   3.597   3.912   5.025  0.9249 -0.1896  0.9359
   8123SM  C21F10839   3.486   3.727   5.029 -0.0237  0.1758  0.9885
   8123SM  H21F10840   3.570   3.657   5.049 -0.0843 -0.6820 -1.4432
   8123SM  H21G10841   3.428   3.674   4.951 -1.8306 -0.1964  2.5165
   8123SM  C22F10842   3.398   3.742   5.147  0.3783  0.0886  0.3713
   8123SM  H22F10843   3.321   3.820   5.129 -0.8055 -1.1624 -0.2087
   8123SM  H22G10844   3.458   3.774   5.235  1.2738 -1.2681  0.2792
   8123SM  C23F10845   3.322   3.616   5.182  0.3221  1.0036 -0.2241
   8123SM  H23F10846   3.396   3.536   5.198  1.0994  1.8159  0.3668
   8123SM  H23G10847   3.255   3.575   5.103 -0.1509 -1.4360  1.3364
   8123SM  H23H10848   3.256   3.628   5.271 -2.6445 -0.4641 -2.0632
   8223SM     N10849   3.121   6.298   2.064  0.0143 -0.1470 -0.0375
   8223SM   C1510850   3.264   6.276   2.084 -0.1736 -0.1125 -0.0213
   8223SM  H15A10851   3.314   6.363   2.043 -1.5086  0.8575  0.3320
   8223SM  H15B10852   3.297   6.194   2.022  0.0884 -2.4047  2.8992
   8223SM  H15C10853   3.289   6.257   2.187  2.6875 -1.3239 -0.8351
   8223SM   C1410854   3.094   6.418   1.972  0.3396  0.3133  0.6626
   8223SM  H14A10855   3.151   6.423   1.880 -1.0182 -0.7005 -0.2799
   8223SM  H14B10856   3.117   6.507   2.029  1.1473  0.9992 -0.6746
   8223SM  H14C10857   2.990   6.431   1.946  0.7961  0.7724 -1.0660
   8223SM   C1310858   3.058   6.183   1.989  0.0860  0.1399 -0.4233
   8223SM  H13A10859   3.047   6.089   2.040 -3.2209 -2.1053 -4.6147
   8223SM  H13B10860   3.118   6.163   1.901  2.1842  3.0563  0.1830
   8223SM  H13C10861   2.955   6.208   1.966  0.7305  1.8027 -1.7144
   8223SM   C1210862   3.048   6.323   2.202 -0.1224  0.0696  0.7288
   8223SM  H12A10863   3.027   6.224   2.240  0.1961 -0.6238 -0.8119
   8223SM  H12B10864   2.967   6.386   2.171  1.7515  2.0600 -0.4036
   8223SM   C1110865   3.143   6.383   2.306  0.4580 -1.0046 -0.5814
   8223SM  H11A10866   3.079   6.429   2.384  2.8586  0.1817  0.8048
   8223SM  H11B10867   3.196   6.471   2.263  1.5828 -0.3803  1.8919
   8223SM     P10868   3.177   6.182   2.466 -0.1576  0.2194 -0.2093
   8223SM   O1310869   3.193   6.237   2.603 -0.5838  0.1787  0.1577
   8223SM   O1410870   3.056   6.131   2.412  0.0606 -0.4977  0.0043
   8223SM   O1110871   3.285   6.071   2.448 -0.6585  0.7457  0.0669
   8223SM   O1210872   3.237   6.287   2.361 -0.1006  0.5543 -0.1371
   8223SM   C1S10873   3.406   6.075   2.530 -0.0609  0.6340 -0.7270
   8223SM   H1S10874   3.372   6.054   2.633  3.4962 -2.5536  0.0324
   8223SM   H1T10875   3.449   6.178   2.534  0.4093  0.3980  0.5525
   8223SM    NF10876   3.603   5.944   2.591 -0.4384 -0.1003 -0.3393
   8223SM   HNF10877   3.696   5.979   2.591 -0.7996  1.0990  2.4879
   8223SM   C2S10878   3.510   5.970   2.487  0.3989 -0.6866 -0.0644
   8223SM   H2S10879   3.461   5.874   2.461  0.6675 -0.2959 -2.1251
   8223SM   C3S10880   3.575   6.029   2.356  0.5927 -0.0180  0.0238
   8223SM   H3S10881   3.625   6.125   2.382  4.1638 -2.2533  2.4324
   8223SM    O310882   3.472   6.064   2.257  0.0348  0.2176 -0.1902
   8223SM   HO310883   3.396   6.067   2.315  0.5108 -0.7185  0.4988
   8223SM   C4S10884   3.679   5.940   2.310  0.3746 -0.4613  0.4245
   8223SM   H4S10885   3.648   5.837   2.289 -0.6220 -0.5386  2.0864
   8223SM   C5S10886   3.804   5.971   2.279 -0.4295 -0.0980  0.0504
   8223SM   H5S10887   3.838   6.075   2.290  0.7692 -0.6628  2.3172
   8223SM   C6S10888   3.894   5.868   2.223 -0.1136 -0.6366  0.3472
   8223SM   H6S10889   3.929   5.906   2.125 -1.1765  1.3989  0.6914
   8223SM   H6T10890   3.833   5.777   2.208  0.1984 -1.3579  2.9749
   8223SM   C7S10891   4.018   5.834   2.303  0.1587 -0.0057  0.4634
   8223SM   H7S10892   4.067   5.748   2.253 -2.3366 -1.4393  0.2759
   8223SM   H7T10893   3.991   5.801   2.406  0.3177 -0.9455  0.2164
   8223SM   C8S10894   4.113   5.949   2.310  0.3059 -0.3665  0.2505
   8223SM   H8S10895   4.069   6.026   2.377 -1.4993 -1.2087  0.0862
   8223SM   H8T10896   4.119   6.002   2.213  0.2418  0.6126  0.7691
   8223SM   C9S10897   4.263   5.924   2.348 -0.4054 -0.1198 -0.4893
   8223SM   H9S10898   4.326   6.015   2.339 -2.4870  1.1889 -4.4416
   8223SM   H9T10899   4.302   5.852   2.274 -0.8963 -0.6949 -0.2014
   8223SM  C10S10900   4.275   5.852   2.492 -0.2720  0.1502  0.1729
   8223SM  H10S10901   4.386   5.845   2.503 -0.3094  0.7544  1.0791
   8223SM  H10T10902   4.241   5.746   2.488 -2.9659  0.9745 -0.9629
   8223SM  C11S10903   4.221   5.938   2.603  0.6614  0.4399 -0.6115
   8223SM  H11S10904   4.112   5.935   2.582  0.2256 -0.4151  1.4856
   8223SM  H11T10905   4.237   6.048   2.603  2.0857  0.3455  2.2532
   8223SM  C12S10906   4.249   5.881   2.743  0.9692 -0.0435  0.3109
   8223SM  H12S10907   4.192   5.786   2.745  0.0489  0.4509 -1.1174
   8223SM  H12T10908   4.203   5.955   2.811 -1.9413 -0.4435 -1.0696
   8223SM  C13S10909   4.388   5.848   2.781  0.1672  0.4149  0.0561
   8223SM  H13S10910   4.455   5.937   2.777  1.9896 -0.8123  1.7148
   8223SM  H13T10911   4.420   5.774   2.705  0.8111 -1.0726  1.7092
   8223SM  C14S10912   4.389   5.799   2.924 -0.2964  0.3721 -0.1359
   8223SM  H14S10913   4.325   5.710   2.940 -1.1940  1.1222  0.5597
   8223SM  H14T10914   4.351   5.878   2.992  1.4909  0.7603  0.4809
   8223SM  C15S10915   4.542   5.769   2.967  0.2851 -0.6746  0.5615
   8223SM  H15S10916   4.587   5.869   2.954  0.5284 -0.9359 -0.7778
   8223SM  H15T10917   4.589   5.689   2.905  1.4409  0.0302  0.5124
   8223SM  C16S10918   4.543   5.741   3.112  0.6053 -0.1366  0.0408
   8223SM  H16S10919   4.481   5.653   3.140  0.8519  0.2589  2.0080
   8223SM  H16T10920   4.503   5.824   3.175  2.3805  0.7039  0.1142
   8223SM  C17S10921   4.681   5.703   3.171  0.6160 -0.3330  0.0972
   8223SM  H17S10922   4.747   5.791   3.184 -0.2344  0.2261  0.6914
   8223SM  H17T10923   4.727   5.628   3.102 -2.3061 -2.0047 -0.1819
   8223SM  C18S10924   4.687   5.636   3.316  0.0295 -0.4866  0.1864
   8223SM  H18S10925   4.637   5.538   3.300 -1.1876  0.4545 -2.3664
   8223SM  H18T10926   4.626   5.701   3.383 -1.3493 -0.9433 -0.5717
   8223SM  H18U10927   4.789   5.616   3.354  0.3169 -1.3241 -0.9766
   8223SM   C1F10928   3.578   5.860   2.693  1.3223 -0.0330 -0.3316
   8223SM    OF10929   3.466   5.818   2.722  0.6289  0.0259 -0.5641
   8223SM   C2F10930   3.686   5.839   2.795 -0.1911  0.3856  0.1813
   8223SM   H2F10931   3.648   5.867   2.895 -3.7627  1.0975 -1.2438
   8223SM   H2G10932   3.764   5.911   2.760 -0.0653  0.1539 -0.0139
   8223SM   C3F10933   3.730   5.691   2.791  0.0862  0.1363  0.3014
   8223SM   H3F10934   3.792   5.686   2.699 -0.5968  0.7291 -0.2082
   8223SM   H3G10935   3.646   5.620   2.778  2.2189 -2.5990  0.4132
   8223SM   C4F10936   3.819   5.656   2.904 -0.8063 -0.0179 -0.6145
   8223SM   H4F10937   3.765   5.677   2.999  1.5807  1.4705  0.5082
   8223SM   H4G10938   3.902   5.729   2.893 -0.6749 -0.3171 -1.7010
   8223SM   C5F10939   3.866   5.513   2.905 -0.2189 -0.2051 -0.2374
   8223SM   H5F10940   3.953   5.491   2.971  1.2307 -0.2624 -2.1137
   8223SM   H5G10941   3.894   5.485   2.802  0.5094 -1.6460  0.3248
   8223SM   C6F10942   3.752   5.415   2.938  0.3253  0.1464  0.8935
   8223SM   H6F10943   3.789   5.316   2.902 -1.0651  0.2220 -0.8926
   8223SM   H6G10944   3.656   5.435   2.886  1.4283  3.4214 -0.1667
   8223SM   C7F10945   3.702   5.404   3.087  0.0688  0.1883  0.2273
   8223SM   H7F10946   3.635   5.315   3.092 -1.2739  1.1241 -0.4482
   8223SM   H7G10947   3.657   5.502   3.115  1.9007  1.0140  0.3746
   8223SM   C8F10948   3.816   5.371   3.188 -0.2458  0.0648 -0.4629
   8223SM   H8F10949   3.871   5.464   3.214 -2.5730  1.3622  0.0981
   8223SM   H8G10950   3.886   5.290   3.156 -0.0834 -0.6217  1.5023
   8223SM   C9F10951   3.755   5.334   3.323  0.2522  0.1261 -0.3380
   8223SM   H9F10952   3.693   5.242   3.314 -1.4273  1.2407 -0.3905
   8223SM   H9G10953   3.698   5.417   3.369 -1.1606 -0.0600 -1.6880
   8223SM  C10F10954   3.872   5.295   3.412 -0.1184 -0.4725 -0.3009
   8223SM  H10F10955   3.924   5.390   3.436  0.4242 -0.4149 -1.6105
   8223SM  H10G10956   3.940   5.226   3.358  1.6789  0.0178  1.1877
   8223SM  C11F10957   3.830   5.228   3.546  0.2902  0.1884  0.3753
   8223SM  H11F10958   3.785   5.130   3.516  0.0057  0.6961 -0.9570
   8223SM  H11G10959   3.747   5.287   3.590 -0.5384 -0.8092  0.2096
   8223SM  C12F10960   3.942   5.208   3.645  0.0718 -0.4748 -0.6568
   8223SM  H12F10961   3.984   5.308   3.668 -0.9568 -0.3151  0.7112
   8223SM  H12G10962   4.018   5.138   3.604 -1.0414 -0.3083 -3.1889
   8223SM  C13F10963   3.880   5.169   3.781 -0.4817  0.0606 -0.6649
   8223SM  H13F10964   3.844   5.064   3.779 -1.3349  0.2998  0.6470
   8223SM  H13G10965   3.791   5.226   3.814 -0.4741 -0.0890 -0.3728
   8223SM  C14F10966   3.968   5.174   3.906  0.2466  0.1761  0.3870
   8223SM  H14F10967   4.011   5.276   3.915 -1.1195  0.6632  1.6382
   8223SM  H14G10968   4.048   5.098   3.887  0.9658  1.5796 -3.0725
   8223SM  C15F10969   3.890   5.149   4.036 -0.0873 -0.3849 -0.0971
   8223SM  H15F10970   3.842   5.050   4.030  1.7406 -1.3846  0.8182
   8223SM  H15G10971   3.813   5.230   4.040  0.2101  0.1683 -3.1031
   8223SM  C16F10972   3.979   5.170   4.166  0.3241  0.2036  0.0510
   8223SM  H16F10973   4.000   5.279   4.182 -1.1405  0.7378 -1.4253
   8223SM  H16G10974   4.075   5.123   4.137 -0.0385 -0.9198  0.6313
   8223SM  C17F10975   3.918   5.103   4.289 -0.0709  1.1868 -0.7238
   8223SM  H17F10976   3.910   4.997   4.259 -0.7608  0.2970  2.2966
   8223SM  H17G10977   3.815   5.140   4.311 -0.0852  0.8603 -0.2145
   8223SM  C18F10978   4.001   5.099   4.417 -0.5804 -0.2435 -0.6736
   8223SM  H18F10979   4.029   5.202   4.448  0.9710 -1.0923  0.9051
   8223SM  H18G10980   4.098   5.049   4.395 -0.0391 -0.8264  2.5763
   8223SM  C19F10981   3.939   5.054   4.549  0.3026  0.1778 -0.0479
   8223SM  H19F10982   3.934   4.943   4.553  0.1230  0.0817 -1.8572
   8223SM  H19G10983   3.837   5.097   4.548  0.6095  0.9111 -0.1111
   8223SM  C20F10984   4.005   5.109   4.674 -0.0874 -0.1275  0.0152
   8223SM  H20F10985   3.941   5.193   4.709 -1.1408 -0.6270 -0.6773
   8223SM  H20G10986   4.109   5.149   4.673 -0.2936  0.4754  1.2001
   8223SM  C21F10987   4.006   5.011   4.794 -0.6270  0.3544  0.0870
   8223SM  H21F10988   4.057   5.062   4.877 -0.7817  1.0165 -0.2162
   8223SM  H21G10989   4.065   4.921   4.767  2.2953  1.7796  1.3833
   8223SM  C22F10990   3.872   4.962   4.844 -0.7037  1.1680 -0.3006
   8223SM  H22F10991   3.833   4.902   4.760  0.7334  1.4059 -1.1633
   8223SM  H22G10992   3.799   5.043   4.864 -0.6922  0.4235  3.7026
   8223SM  C23F10993   3.875   4.879   4.975 -0.2347 -0.8612  0.3139
   8223SM  H23F10994   3.776   4.831   4.994 -0.6226 -0.3192 -0.2936
   8223SM  H23G10995   3.895   4.949   5.059 -1.6275  0.5762 -0.5049
   8223SM  H23H10996   3.947   4.795   4.972 -1.4260 -1.8864 -0.7168
   8323SM     N10997   2.860   5.421   2.186  1.0910 -0.2200  0.2725
   8323SM   C1510998   2.744   5.487   2.117  0.7211  0.8304 -0.3694
   8323SM  H15A10999   2.654   5.466   2.173  2.1213 -1.5136  1.1418
   8323SM  H15B11000   2.727   5.451   2.017  0.6753 -0.4189  0.0690
   8323SM  H15C11001   2.754   5.594   2.130 -0.3925  0.8444  0.5148
   8323SM   C1411002   2.844   5.273   2.177 -0.0737  0.1987  0.5716
   8323SM  H14A11003   2.758   5.232   2.227 -2.0146  4.2077  0.9008
   8323SM  H14B11004   2.936   5.228   2.213 -0.0838 -1.4067 -1.2375
   8323SM  H14C11005   2.824   5.234   2.078 -2.0426 -2.8385  2.0301
   8323SM   C1311006   2.979   5.448   2.095  0.1778 -0.3725  0.0117
   8323SM  H13A11007   3.063   5.399   2.143 -0.9128 -3.1152 -0.6624
   8323SM  H13B11008   3.007   5.552   2.086  0.0467 -0.1435  1.7777
   8323SM  H13C11009   2.968   5.397   2.001  0.6962 -0.8077  0.1828
   8323SM   C1211010   2.888   5.471   2.320  0.0902  0.0356  0.3907
   8323SM  H12A11011   2.801   5.449   2.381 -2.1150  0.6548 -2.3170
   8323SM  H12B11012   2.892   5.578   2.312 -1.1367 -0.0268 -2.4552
   8323SM   C1111013   3.009   5.418   2.400 -0.6954  0.3219  0.4602
   8323SM  H11A11014   3.020   5.477   2.493  1.1741  2.6314 -1.1210
   8323SM  H11B11015   3.102   5.440   2.344 -0.9454  1.3834  0.4379
   8323SM     P11016   2.937   5.214   2.544  0.4188  0.0542  0.2443
   8323SM   O1311017   2.839   5.315   2.586  0.0605  0.0989 -0.1242
   8323SM   O1411018   2.882   5.081   2.513 -0.1333  0.1679  0.6727
   8323SM   O1111019   3.048   5.193   2.654 -0.5993 -0.2274  0.2577
   8323SM   O1211020   3.012   5.271   2.417  0.5228  0.0888  0.2663
   8323SM   C1S11021   3.156   5.097   2.623  0.2887 -0.2019  0.7475
   8323SM   H1S11022   3.224   5.146   2.549 -1.6418  0.6931 -0.5145
   8323SM   H1T11023   3.129   4.994   2.593  1.0159 -0.2526  0.2183
   8323SM    NF11024   3.336   4.968   2.735 -0.1578 -0.1549  0.4535
   8323SM   HNF11025   3.308   4.880   2.775 -0.2750 -0.2572  0.1464
   8323SM   C2S11026   3.246   5.080   2.754 -0.6146 -0.1567  0.4490
   8323SM   H2S11027   3.314   5.167   2.767 -1.2228  0.2596  0.8887
   8323SM   C3S11028   3.156   5.065   2.880  0.3193 -0.4767  0.0094
   8323SM   H3S11029   3.071   4.994   2.876 -1.5977  1.3257  3.7757
   8323SM    O311030   3.095   5.193   2.909 -0.1920 -0.0939 -0.1997
   8323SM   HO311031   3.099   5.247   2.830 -1.0505  0.8153  0.3526
   8323SM   C4S11032   3.238   5.010   2.987  0.1538 -0.2097  0.3806
   8323SM   H4S11033   3.229   4.900   2.992 -0.0894 -0.1325  2.5705
   8323SM   C5S11034   3.325   5.072   3.068 -0.8402 -0.6675 -0.7695
   8323SM   H5S11035   3.354   5.178   3.069 -1.5036 -0.4799 -1.0365
   8323SM   C6S11036   3.400   5.003   3.182  0.1935 -0.5674  0.1699
   8323SM   H6S11037   3.509   5.020   3.174  0.2933 -0.8006  0.9706
   8323SM   H6T11038   3.388   4.893   3.182  2.5346 -0.8679 -0.8896
   8323SM   C7S11039   3.376   5.054   3.329 -0.0118 -0.1913 -0.4680
   8323SM   H7S11040   3.267   5.052   3.349  0.1620  0.3866  0.5678
   8323SM   H7T11041   3.421   5.155   3.338  1.2860 -0.8231  0.4380
   8323SM   C8S11042   3.440   4.958   3.425 -0.1921  0.2464  0.3143
   8323SM   H8S11043   3.546   4.934   3.403 -0.1584 -0.5449  1.2523
   8323SM   H8T11044   3.386   4.860   3.427 -0.9846  0.6735  1.3038
   8323SM   C9S11045   3.440   5.024   3.565 -0.0401  0.5365 -1.2310
   8323SM   H9S11046   3.341   5.067   3.591 -0.4104 -0.3962 -1.0544
   8323SM   H9T11047   3.519   5.101   3.552  0.5918 -0.3027 -2.6222
   8323SM  C10S11048   3.481   4.916   3.665 -0.2723 -0.0975  0.0309
   8323SM  H10S11049   3.583   4.880   3.640 -0.4180 -0.1140 -0.5616
   8323SM  H10T11050   3.416   4.825   3.668 -1.0381  0.4557  0.7200
   8323SM  C11S11051   3.477   4.959   3.814 -0.5442  0.3049  0.1857
   8323SM  H11S11052   3.381   4.990   3.860  0.0575  0.6572  1.2170
   8323SM  H11T11053   3.547   5.045   3.812 -1.6874  1.2543 -1.7396
   8323SM  C12S11054   3.524   4.840   3.897 -0.6487  0.1716  0.4487
   8323SM  H12S11055   3.618   4.799   3.855 -0.9988 -0.2319  0.0390
   8323SM  H12T11056   3.447   4.760   3.889  0.8892 -1.2325 -4.9168
   8323SM  C13S11057   3.556   4.891   4.041  0.0021  0.1211 -0.2661
   8323SM  H13S11058   3.464   4.940   4.080 -0.9133  1.5502 -3.8168
   8323SM  H13T11059   3.628   4.973   4.019 -0.7704  0.9164  0.1180
   8323SM  C14S11060   3.608   4.785   4.134 -0.1419 -0.7123  0.4721
   8323SM  H14S11061   3.711   4.749   4.111  0.2124 -0.7870  2.0574
   8323SM  H14T11062   3.539   4.699   4.133 -2.4544  1.0155  1.7972
   8323SM  C15S11063   3.624   4.830   4.281 -0.2236  0.4606 -0.2468
   8323SM  H15S11064   3.531   4.879   4.317 -0.7661 -1.9956  1.9717
   8323SM  H15T11065   3.707   4.904   4.285  0.9944 -0.8122 -1.1460
   8323SM  C16S11066   3.650   4.721   4.378 -0.2585 -0.0541  0.3453
   8323SM  H16S11067   3.743   4.671   4.345 -0.0863  1.2261 -1.2132
   8323SM  H16T11068   3.568   4.646   4.367  0.4624 -0.7418 -0.4961
   8323SM  C17S11069   3.662   4.758   4.525 -0.0137  0.4339 -0.1954
   8323SM  H17S11070   3.565   4.777   4.575  0.7187  2.2365  0.5981
   8323SM  H17T11071   3.724   4.850   4.527 -0.5172  0.8167  3.1388
   8323SM  C18S11072   3.717   4.648   4.614 -0.0570  0.5410  0.5190
   8323SM  H18S11073   3.728   4.688   4.717 -0.2345 -0.7233  1.0419
   8323SM  H18T11074   3.811   4.617   4.562  0.1296  0.7762  0.7126
   8323SM  H18U11075   3.650   4.561   4.626 -0.7258  0.6863 -1.7611
   8323SM   C1F11076   3.427   4.974   2.636  0.2744  0.1035  0.1057
   8323SM    OF11077   3.449   5.079   2.577  0.6575 -0.2162  0.4676
   8323SM   C2F11078   3.486   4.835   2.595  0.5359 -0.2129  0.0282
   8323SM   H2F11079   3.431   4.803   2.504 -2.1437  0.0160  1.4625
   8323SM   H2G11080   3.463   4.758   2.671 -0.5017  0.5168  0.4823
   8323SM   C3F11081   3.635   4.860   2.553  0.3988  0.0927  0.8596
   8323SM   H3F11082   3.643   4.939   2.475 -3.4290 -0.2258 -0.0651
   8323SM   H3G11083   3.668   4.764   2.508  0.9632 -0.4182  2.3363
   8323SM   C4F11084   3.736   4.899   2.666 -0.4249 -0.0699  1.3053
   8323SM   H4F11085   3.714   5.000   2.707  1.2154  1.7631 -1.9873
   8323SM   H4G11086   3.838   4.899   2.624 -0.7293  0.9527  0.5361
   8323SM   C5F11087   3.734   4.797   2.783  0.0064 -0.3174 -0.2543
   8323SM   H5F11088   3.772   4.700   2.744 -1.8190 -0.7473 -1.0420
   8323SM   H5G11089   3.631   4.778   2.818  0.0939  1.4694  1.0568
   8323SM   C6F11090   3.822   4.846   2.900 -0.1030 -0.3492 -0.0630
   8323SM   H6F11091   3.914   4.880   2.848 -0.7199 -1.2948 -1.8773
   8323SM   H6G11092   3.847   4.754   2.958  1.5029  1.0069  1.4882
   8323SM   C7F11093   3.773   4.963   2.990 -0.3342 -0.6345 -0.1873
   8323SM   H7F11094   3.666   4.942   3.010 -0.0827 -2.3081 -0.4501
   8323SM   H7G11095   3.769   5.057   2.931 -3.4413 -1.4984 -1.5745
   8323SM   C8F11096   3.850   4.953   3.130  0.2288 -0.2957  0.6655
   8323SM   H8F11097   3.811   4.870   3.192  0.4314 -1.4567 -0.6893
   8323SM   H8G11098   3.824   5.044   3.188  0.5239 -1.1932  2.2573
   8323SM   C9F11099   4.000   4.948   3.122 -0.4905  0.4630  0.0872
   8323SM   H9F11100   4.029   4.875   3.044  0.6517  0.2925  0.6501
   8323SM   H9G11101   4.058   4.910   3.209  1.2506  1.2700 -0.6759
   8323SM  C10F11102   4.047   5.089   3.076 -0.1415  0.2180  1.3835
   8323SM  H10F11103   4.017   5.163   3.153 -2.4084 -0.8956  1.6359
   8323SM  H10G11104   3.985   5.106   2.985  1.8848  0.5225 -0.0103
   8323SM  C11F11105   4.190   5.102   3.018 -0.1633  0.7234 -0.6446
   8323SM  H11F11106   4.202   5.032   2.933  4.2194 -0.3719  0.6049
   8323SM  H11G11107   4.265   5.076   3.096  0.3929 -0.5343 -1.5622
   8323SM  C12F11108   4.213   5.246   2.977  0.4348 -0.1682 -0.4809
   8323SM  H12F11109   4.145   5.283   2.896 -0.2305 -3.1597 -1.3906
   8323SM  H12G11110   4.306   5.250   2.916  1.3102 -1.3162  0.7389
   8323SM  C13F11111   4.216   5.354   3.088 -0.3500 -0.2331  0.0869
   8323SM  H13F11112   4.116   5.343   3.136 -1.3277  2.1383 -1.2252
   8323SM  H13G11113   4.231   5.454   3.041 -0.6755 -0.1189  0.2241
   8323SM  C14F11114   4.318   5.324   3.201  0.1400  0.8900  0.3521
   8323SM  H14F11115   4.418   5.325   3.154 -0.3711  1.9746 -0.7503
   8323SM  H14G11116   4.306   5.218   3.232  1.2698  0.7988  0.5307
   8323SM  C15F11117   4.306   5.420   3.323 -0.0890 -0.2023  0.4272
   8323SM  H15F11118   4.200   5.417   3.354  0.0530  0.7480  1.0209
   8323SM  H15G11119   4.340   5.522   3.294  2.2901 -0.4984  1.8966
   8323SM  C16F11120   4.387   5.379   3.448  0.3607  0.1805 -0.2090
   8323SM  H16F11121   4.492   5.375   3.413  0.7555  3.1966  0.2840
   8323SM  H16G11122   4.354   5.277   3.475  0.1225 -0.1943 -1.8296
   8323SM  C17F11123   4.364   5.480   3.561  0.0029 -0.1059 -0.1312
   8323SM  H17F11124   4.254   5.477   3.571 -0.0197 -0.8950 -0.5586
   8323SM  H17G11125   4.397   5.576   3.514  2.9437  1.1447  3.9196
   8323SM  C18F11126   4.430   5.457   3.694  0.1120 -0.6150 -0.0297
   8323SM  H18F11127   4.428   5.556   3.744  0.2044 -0.2339 -0.7689
   8323SM  H18G11128   4.539   5.437   3.685  0.2300  0.3117 -0.9099
   8323SM  C19F11129   4.360   5.347   3.782 -0.7870 -0.5796  0.0529
   8323SM  H19F11130   4.363   5.258   3.716  3.5642  0.5488 -1.6474
   8323SM  H19G11131   4.255   5.372   3.804 -0.5724 -1.7583  2.7775
   8323SM  C20F11132   4.420   5.320   3.927  0.2054  0.3194 -0.1540
   8323SM  H20F11133   4.476   5.413   3.952 -0.7395  1.2885 -1.4629
   8323SM  H20G11134   4.494   5.240   3.904 -1.6928 -0.9792 -2.2081
   8323SM  C21F11135   4.321   5.290   4.041 -0.8763 -0.2906  0.2689
   8323SM  H21F11136   4.275   5.190   4.029 -0.2545 -0.2776 -3.3368
   8323SM  H21G11137   4.246   5.372   4.044  0.1756  0.7029  0.1632
   8323SM  C22F11138   4.391   5.292   4.179 -0.5347  0.1808 -0.0689
   8323SM  H22F11139   4.455   5.382   4.184 -1.0251  0.4731  1.6964
   8323SM  H22G11140   4.465   5.209   4.179 -0.4674  0.2117  1.3357
   8323SM  C23F11141   4.286   5.281   4.297 -0.1240 -0.1739  0.5309
   8323SM  H23F11142   4.333   5.268   4.397  0.9344  0.4145  0.1210
   8323SM  H23G11143   4.206   5.208   4.272  0.7715 -0.6030 -1.2512
   8323SM  H23H11144   4.229   5.375   4.311  0.9881  1.0614 -2.5107
   8423SM     N11145   3.959   1.711   2.161 -0.2091 -0.2268  0.5397
   8423SM   C1511146   3.946   1.663   2.019  0.0042  0.2406  0.7680
   8423SM  H15A11147   4.041   1.658   1.968 -0.8622 -0.3966 -0.8332
   8423SM  H15B11148   3.882   1.730   1.964 -0.0192 -1.1450 -0.9885
   8423SM  H15C11149   3.889   1.571   2.020 -0.4793  0.5260  0.0171
   8423SM   C1411150   4.056   1.828   2.174 -0.2905 -0.5400  0.7567
   8423SM  H14A11151   4.152   1.806   2.131 -0.7054  0.8135 -0.9966
   8423SM  H14B11152   4.061   1.857   2.278 -0.6179  0.9671  0.3846
   8423SM  H14C11153   4.016   1.912   2.118 -1.0483  0.4026  2.6323
   8423SM   C1311154   3.825   1.776   2.192 -0.0767  0.7951 -0.3599
   8423SM  H13A11155   3.830   1.848   2.273 -0.4049  0.1978  0.2041
   8423SM  H13B11156   3.762   1.697   2.231 -0.7031  1.2865 -0.3546
   8423SM  H13C11157   3.778   1.813   2.102 -1.2751  0.8572  0.2685
   8423SM   C1211158   3.991   1.594   2.257  0.3782  0.2420 -0.0925
   8423SM  H12A11159   4.087   1.559   2.222  0.5823  0.8732 -0.1742
   8423SM  H12B11160   3.925   1.510   2.237  0.4877 -0.0664  0.7942
   8423SM   C1111161   4.013   1.609   2.410  0.0232 -0.4797 -0.4054
   8423SM  H11A11162   4.067   1.519   2.446  1.0339 -0.7799 -2.4881
   8423SM  H11B11163   3.914   1.605   2.459  0.2673  0.7929  0.2159
   8423SM     P11164   4.083   1.803   2.582 -0.0087  0.3170  0.0006
   8423SM   O1311165   4.221   1.811   2.627 -0.4737 -0.4533 -0.4479
   8423SM   O1411166   3.999   1.922   2.584  0.2341  0.5236  0.3391
   8423SM   O1111167   4.011   1.699   2.669 -0.1142 -0.0121  0.3990
   8423SM   O1211168   4.078   1.732   2.438  0.1811 -0.7103  0.2947
   8423SM   C1S11169   4.065   1.640   2.782 -0.5870  0.7560 -0.3839
   8423SM   H1S11170   4.172   1.617   2.768 -0.3221  1.3139  0.6105
   8423SM   H1T11171   4.015   1.541   2.795  2.4624 -1.3771 -3.2599
   8423SM    NF11172   4.093   1.648   3.031  0.1194 -0.5648 -0.1928
   8423SM   HNF11173   4.029   1.601   3.093  1.8097 -1.1694  1.1884
   8423SM   C2S11174   4.031   1.724   2.919  0.5574  0.1227 -0.0622
   8423SM   H2S11175   4.079   1.823   2.904  0.6416 -0.0852 -1.2583
   8423SM   C3S11176   3.883   1.736   2.936  0.0863  0.3055 -0.5033
   8423SM   H3S11177   3.834   1.639   2.958  0.6547 -0.4596 -2.4191
   8423SM    O311178   3.810   1.787   2.824 -0.5694  0.1476 -0.2993
   8423SM   HO311179   3.873   1.792   2.752  1.3467  1.4795  1.3149
   8423SM   C4S11180   3.860   1.827   3.057 -0.8300 -0.3259  0.0812
   8423SM   H4S11181   3.874   1.933   3.029  0.2641 -0.1100  1.3399
   8423SM   C5S11182   3.816   1.794   3.181 -0.0230 -0.7070  0.4550
   8423SM   H5S11183   3.796   1.690   3.208 -0.9773  0.1081  3.1603
   8423SM   C6S11184   3.792   1.892   3.294 -0.6711 -0.2497 -0.1883
   8423SM   H6S11185   3.690   1.867   3.331 -0.1720 -1.2268  0.5799
   8423SM   H6T11186   3.804   1.999   3.269  0.4900 -0.2822  0.1855
   8423SM   C7S11187   3.885   1.865   3.418 -0.8191 -0.1009  0.5085
   8423SM   H7S11188   3.989   1.848   3.383 -0.2491  1.8326  1.0964
   8423SM   H7T11189   3.850   1.767   3.455  2.5793 -0.8542  2.1507
   8423SM   C8S11190   3.868   1.972   3.524 -0.1555 -0.6328  0.9721
   8423SM   H8S11191   3.762   1.999   3.543 -0.3093 -1.1478  0.8466
   8423SM   H8T11192   3.922   2.063   3.488 -1.3756 -0.1852  0.1986
   8423SM   C9S11193   3.924   1.920   3.659  0.2116  0.3694  0.2362
   8423SM   H9S11194   4.033   1.942   3.659  0.2602  0.6196 -2.7181
   8423SM   H9T11195   3.914   1.809   3.654  2.1094  0.1973 -0.6336
   8423SM  C10S11196   3.832   1.973   3.773  0.2403 -0.3776  0.9971
   8423SM  H10S11197   3.729   1.932   3.765  0.2983 -0.7169  1.9328
   8423SM  H10T11198   3.834   2.084   3.774 -0.1355 -0.3651  0.7757
   8423SM  C11S11199   3.886   1.929   3.910  0.7821 -0.0950 -0.2012
   8423SM  H11S11200   3.988   1.971   3.920  0.3352  1.5482 -1.9273
   8423SM  H11T11201   3.899   1.819   3.920  0.9398  0.0912  2.5045
   8423SM  C12S11202   3.808   1.977   4.032 -0.3728 -0.6788 -0.3622
   8423SM  H12S11203   3.699   1.957   4.023 -0.0775 -1.8756 -1.5508
   8423SM  H12T11204   3.823   2.086   4.044 -0.1110 -0.8898  1.4685
   8423SM  C13S11205   3.857   1.913   4.163 -0.2198  0.0193  0.2088
   8423SM  H13S11206   3.967   1.907   4.162 -0.1335  0.7504  1.9346
   8423SM  H13T11207   3.814   1.811   4.181  0.5000 -0.7496 -2.0130
   8423SM  C14S11208   3.817   1.981   4.295  0.0747  0.3824  0.4345
   8423SM  H14S11209   3.708   1.969   4.312 -0.5879  1.7420 -2.2570
   8423SM  H14T11210   3.833   2.089   4.274 -0.3379  0.0502 -1.8463
   8423SM  C15S11211   3.895   1.936   4.415  0.3145  0.0860  0.0735
   8423SM  H15S11212   4.005   1.952   4.406  0.5742 -0.3779  1.9182
   8423SM  H15T11213   3.878   1.830   4.446 -0.9327  0.3809  0.4641
   8423SM  C16S11214   3.846   2.020   4.532 -0.8063 -0.1264 -0.7765
   8423SM  H16S11215   3.748   1.982   4.570 -1.1339  0.2774 -1.1982
   8423SM  H16T11216   3.826   2.126   4.503  2.5201  1.0692  0.7750
   8423SM  C17S11217   3.951   2.021   4.651 -0.3785  0.0870  0.0598
   8423SM  H17S11218   4.040   2.081   4.622 -1.4317  0.9065 -1.5927
   8423SM  H17T11219   3.976   1.916   4.677 -1.5069  0.0949  1.2707
   8423SM  C18S11220   3.888   2.089   4.771 -0.2686  0.5492  0.2913
   8423SM  H18S11221   3.885   2.198   4.751 -0.8872  0.4594 -0.1385
   8423SM  H18T11222   3.941   2.077   4.868 -3.9496  3.1700  2.9137
   8423SM  H18U11223   3.784   2.050   4.781  0.3652 -0.9196  1.7485
   8423SM   C1F11224   4.225   1.651   3.044 -0.6739 -0.1628 -0.7256
   8423SM    OF11225   4.294   1.698   2.957  0.0521  0.0889 -0.2872
   8423SM   C2F11226   4.292   1.600   3.168  0.0703 -0.0173  0.5551
   8423SM   H2F11227   4.364   1.680   3.193 -0.4452  0.8618 -0.6635
   8423SM   H2G11228   4.346   1.508   3.138 -1.9054 -1.1904  0.4013
   8423SM   C3F11229   4.189   1.575   3.283 -0.2679  0.4730  0.7635
   8423SM   H3F11230   4.119   1.493   3.255  0.7632 -0.1154 -0.1553
   8423SM   H3G11231   4.129   1.667   3.303 -1.3256  0.8887 -3.3502
   8423SM   C4F11232   4.274   1.547   3.415  0.5433  0.2199 -0.4057
   8423SM   H4F11233   4.383   1.557   3.392  0.8264 -1.5083  0.0422
   8423SM   H4G11234   4.263   1.442   3.448  0.6582  0.5701  0.7978
   8423SM   C5F11235   4.235   1.638   3.529 -0.1830  0.0348 -0.2204
   8423SM   H5F11236   4.150   1.581   3.571  0.8993 -2.2959 -0.9980
   8423SM   H5G11237   4.201   1.737   3.490  1.7356 -0.3065 -3.1040
   8423SM   C6F11238   4.336   1.659   3.637  0.0859  0.3087 -0.3446
   8423SM   H6F11239   4.411   1.728   3.591  0.8521  0.1838  0.6873
   8423SM   H6G11240   4.389   1.563   3.656  0.0332  0.1374 -1.0257
   8423SM   C7F11241   4.273   1.721   3.761 -0.0641  0.6786 -0.6615
   8423SM   H7F11242   4.187   1.657   3.789 -0.2913  0.9406 -0.7571
   8423SM   H7G11243   4.236   1.820   3.728  0.3861  0.6216 -1.3559
   8423SM   C8F11244   4.367   1.735   3.878  0.4250  0.3815  0.2929
   8423SM   H8F11245   4.463   1.786   3.858 -0.3905  1.1856 -1.8874
   8423SM   H8G11246   4.396   1.637   3.922  3.0010  1.6508  1.6379
   8423SM   C9F11247   4.308   1.813   3.998 -0.3231 -0.1285 -0.4066
   8423SM   H9F11248   4.201   1.786   4.009  0.0272 -2.4688 -2.0095
   8423SM   H9G11249   4.338   1.919   3.987  1.9259 -0.7498 -0.7253
   8423SM  C10F11250   4.387   1.762   4.123 -0.4649 -0.9724  0.8006
   8423SM  H10F11251   4.493   1.793   4.113 -0.6086 -0.4941  0.7361
   8423SM  H10G11252   4.379   1.651   4.122  0.1447 -1.0188 -0.1393
   8423SM  C11F11253   4.331   1.798   4.260 -0.2393 -0.4808 -0.0664
   8423SM  H11F11254   4.400   1.750   4.334 -0.2320 -2.7047 -1.4137
   8423SM  H11G11255   4.225   1.765   4.265 -1.0193  1.8786 -0.1408
   8423SM  C12F11256   4.334   1.948   4.284 -0.3611 -0.5683 -0.3245
   8423SM  H12F11257   4.245   2.000   4.241 -0.1332  1.3127  1.3513
   8423SM  H12G11258   4.417   1.993   4.225  0.9709  0.0212  1.9025
   8423SM  C13F11259   4.344   1.989   4.437 -0.4094  0.5905 -0.0799
   8423SM  H13F11260   4.450   1.973   4.466 -0.0798  0.0612 -1.4784
   8423SM  H13G11261   4.285   1.917   4.498 -0.3645 -0.4544 -1.2096
   8423SM  C14F11262   4.289   2.126   4.457  0.2163  0.6251 -0.4583
   8423SM  H14F11263   4.180   2.112   4.445  0.0090 -1.0818  2.4162
   8423SM  H14G11264   4.337   2.193   4.382  1.5729  0.3577  0.1423
   8423SM  C15F11265   4.328   2.179   4.593  0.1378  0.6109 -0.1045
   8423SM  H15F11266   4.287   2.117   4.676  0.9822  0.6275  0.3375
   8423SM  H15G11267   4.276   2.277   4.603 -1.3255 -0.1771  0.2474
   8423SM  C16F11268   4.482   2.201   4.609 -0.1259  0.0186 -0.2539
   8423SM  H16F11269   4.516   2.240   4.511  1.3122  0.7477  0.4996
   8423SM  H16G11270   4.523   2.102   4.637 -1.1746 -0.1332  0.8507
   8423SM  C17F11271   4.513   2.294   4.727  0.6957  0.0482  0.3518
   8423SM  H17F11272   4.461   2.262   4.820 -0.3958  0.5638 -0.0602
   8423SM  H17G11273   4.479   2.393   4.689  1.3678 -0.4437 -1.6715
   8423SM  C18F11274   4.663   2.299   4.750 -0.7444 -0.6378  0.0584
   8423SM  H18F11275   4.717   2.202   4.746 -1.0662 -0.8250  0.2479
   8423SM  H18G11276   4.686   2.347   4.848  3.2804  0.6671 -1.3141
   8423SM  C19F11277   4.738   2.390   4.641  0.2342 -0.2160 -0.6875
   8423SM  H19F11278   4.699   2.492   4.657  0.1293 -0.4881  0.9715
   8423SM  H19G11279   4.708   2.368   4.536  1.4266  0.4761 -1.1927
   8423SM  C20F11280   4.890   2.380   4.652 -0.0520 -0.1301 -0.2206
   8423SM  H20F11281   4.918   2.273   4.656  0.5869 -0.0880 -2.1783
   8423SM  H20G11282   4.915   2.436   4.745  1.5699 -1.5541  0.2375
   8423SM  C21F11283   4.970   2.459   4.544  0.2291 -0.0433 -0.0803
   8423SM  H21F11284   4.936   2.432   4.441  2.4032 -1.5617 -0.4830
   8423SM  H21G11285   5.077   2.429   4.554  0.5013  0.6423 -0.8271
   8423SM  C22F11286   4.973   2.610   4.568  0.2129 -0.1149 -0.0463
   8423SM  H22F11287   5.029   2.630   4.663  1.3027  2.5612 -1.1358
   8423SM  H22G11288   4.873   2.657   4.581  0.7366  1.3354 -0.9819
   8423SM  C23F11289   5.037   2.677   4.449  0.1017 -0.0019  0.6164
   8423SM  H23F11290   5.029   2.787   4.461 -1.0303 -0.2354  2.2972
   8423SM  H23G11291   4.997   2.653   4.348  0.8078  2.1392 -0.2266
   8423SM  H23H11292   5.145   2.653   4.443  0.3389  1.3339 -1.6273
   8523SM     N11293   7.378   2.896   2.011 -0.2692  0.2375  0.8317
   8523SM   C1511294   7.324   2.837   1.883 -0.5570 -0.2911 -0.1443
   8523SM  H15A11295   7.390   2.851   1.798 -0.0564  1.0670  0.4474
   8523SM  H15B11296   7.229   2.879   1.853  0.1368  0.0082 -2.0969
   8523SM  H15C11297   7.313   2.730   1.898 -1.3300 -0.2108 -0.1092
   8523SM   C1411298   7.508   2.834   2.038 -0.3125 -0.3187  0.1432
   8523SM  H14A11299   7.553   2.865   2.131 -0.1606  0.0397 -0.0492
   8523SM  H14B11300   7.586   2.855   1.966 -0.1994 -0.6487  0.1686
   8523SM  H14C11301   7.497   2.728   2.054 -1.5902 -0.2508 -0.1830
   8523SM   C1311302   7.395   3.041   1.994  0.4161 -0.6966  0.0389
   8523SM  H13A11303   7.446   3.057   1.900 -2.5284 -1.0096 -1.7176
   8523SM  H13B11304   7.460   3.075   2.073 -1.7901  1.5421  0.9883
   8523SM  H13C11305   7.308   3.104   1.985  0.2276 -0.6678  1.7089
   8523SM   C1211306   7.276   2.878   2.126 -0.1023  0.7652 -0.8300
   8523SM  H12A11307   7.185   2.933   2.103 -0.3632  0.5905 -0.2275
   8523SM  H12B11308   7.324   2.922   2.212  0.9858 -0.8519 -0.5564
   8523SM   C1111309   7.224   2.730   2.162  0.3983 -0.0713 -0.2211
   8523SM  H11A11310   7.169   2.679   2.080 -2.0987 -0.4455  1.5637
   8523SM  H11B11311   7.145   2.747   2.238 -1.4427  1.5385 -2.3755
   8523SM     P11312   7.376   2.626   2.352  0.1223 -0.0799  0.5251
   8523SM   O1311313   7.387   2.484   2.381  0.6597  0.3122 -0.1159
   8523SM   O1411314   7.493   2.708   2.382  0.3102  0.0822 -0.2161
   8523SM   O1111315   7.258   2.691   2.435 -0.0033 -0.2469 -0.3846
   8523SM   O1211316   7.335   2.647   2.201  0.3777  0.1393 -0.3575
   8523SM   C1S11317   7.275   2.738   2.569 -0.8760  0.0735 -0.4915
   8523SM   H1S11318   7.368   2.798   2.574 -0.6573 -0.2268 -0.8981
   8523SM   H1T11319   7.281   2.657   2.644 -0.2230 -1.2857 -1.9501
   8523SM    NF11320   7.181   2.871   2.757  0.5841  0.3358  0.6413
   8523SM   HNF11321   7.134   2.852   2.843  0.1545  3.0783  1.0939
   8523SM   C2S11322   7.150   2.812   2.627  0.3089  0.0036 -0.3505
   8523SM   H2S11323   7.112   2.889   2.557 -1.5080 -1.0866 -0.6224
   8523SM   C3S11324   7.032   2.706   2.636 -0.6089  0.2105  0.4798
   8523SM   H3S11325   7.062   2.615   2.691 -1.1443 -0.1843  0.1240
   8523SM    O311326   6.993   2.662   2.509  0.3707 -0.4807 -0.3431
   8523SM   HO311327   7.073   2.680   2.460  1.3616  0.5158  1.5499
   8523SM   C4S11328   6.907   2.775   2.694 -0.4060 -0.4901 -0.2341
   8523SM   H4S11329   6.864   2.847   2.622 -1.3698 -0.8519 -0.0478
   8523SM   C5S11330   6.849   2.744   2.812 -0.4345 -0.0136 -0.1267
   8523SM   H5S11331   6.897   2.679   2.886 -0.6612  0.4777  0.4609
   8523SM   C6S11332   6.729   2.817   2.854 -0.1663 -0.1730  0.1028
   8523SM   H6S11333   6.753   2.925   2.844  2.5546 -0.7856 -0.9381
   8523SM   H6T11334   6.703   2.808   2.962  0.0752 -1.2445  0.0831
   8523SM   C7S11335   6.596   2.777   2.783  0.7834 -0.5617 -0.5206
   8523SM   H7S11336   6.600   2.666   2.780  1.7906 -0.5604  0.2402
   8523SM   H7T11337   6.600   2.827   2.683  0.5753 -0.0379 -0.2686
   8523SM   C8S11338   6.468   2.825   2.854  0.1521  0.1075 -0.2315
   8523SM   H8S11339   6.382   2.797   2.789  0.9052 -1.7516 -0.4904
   8523SM   H8T11340   6.465   2.936   2.854  0.0294  0.1598  2.2630
   8523SM   C9S11341   6.429   2.769   2.992 -0.5994 -0.2043  0.4596
   8523SM   H9S11342   6.496   2.825   3.060 -0.7891 -0.2336  0.6729
   8523SM   H9T11343   6.472   2.667   2.988  0.1370  0.1483 -1.2030
   8523SM  C10S11344   6.282   2.788   3.031  0.1268 -0.1374  0.8953
   8523SM  H10S11345   6.209   2.747   2.958 -1.0585  1.9337  0.8679
   8523SM  H10T11346   6.259   2.896   3.023  0.8123 -0.1236 -1.7981
   8523SM  C11S11347   6.247   2.731   3.172  0.1413  0.1696  0.4772
   8523SM  H11S11348   6.325   2.775   3.238  1.6000  0.5188 -1.3747
   8523SM  H11T11349   6.265   2.622   3.186 -1.7758 -0.0419  1.6036
   8523SM  C12S11350   6.108   2.776   3.221  0.2123 -0.6127 -0.2230
   8523SM  H12S11351   6.041   2.690   3.197 -0.1580 -0.6559  0.9242
   8523SM  H12T11352   6.078   2.866   3.162  0.5083  0.8424  1.7716
   8523SM  C13S11353   6.104   2.805   3.369  0.5577  0.1966 -0.0128
   8523SM  H13S11354   6.203   2.842   3.403 -0.1323  3.0588 -0.8065
   8523SM  H13T11355   6.080   2.709   3.420  0.2455  0.5790  0.5846
   8523SM  C14S11356   6.001   2.912   3.423 -0.0743  0.3691 -0.0142
   8523SM  H14S11357   5.910   2.854   3.449  0.2588  0.1629  0.7346
   8523SM  H14T11358   5.958   2.985   3.352 -0.0362  0.3371 -0.0707
   8523SM  C15S11359   6.045   2.986   3.547  1.1542 -0.3949 -0.1137
   8523SM  H15S11360   6.085   3.087   3.526  2.4976 -0.7652  0.5951
   8523SM  H15T11361   6.129   2.936   3.599  1.3499 -0.7602 -0.7708
   8523SM  C16S11362   5.936   2.997   3.653 -0.1115  0.7143  0.0321
   8523SM  H16S11363   5.844   3.006   3.593 -0.2685  0.0821  0.1692
   8523SM  H16T11364   5.952   3.087   3.717  1.2160 -0.6666  1.7653
   8523SM  C17S11365   5.930   2.867   3.745  0.3706 -0.6512  0.1057
   8523SM  H17S11366   6.009   2.882   3.821 -0.0413  0.6279  0.2882
   8523SM  H17T11367   5.959   2.783   3.678  1.2759 -1.6814  1.7377
   8523SM  C18S11368   5.787   2.849   3.815  0.1409 -0.4096 -0.0341
   8523SM  H18S11369   5.701   2.846   3.746  0.5552  1.4415 -0.6706
   8523SM  H18T11370   5.772   2.925   3.895 -0.4320 -0.4211 -0.1267
   8523SM  H18U11371   5.790   2.753   3.871  0.7346 -0.9461 -0.9500
   8523SM   C1F11372   7.260   2.980   2.767  0.2904  0.5431  0.0034
   8523SM    OF11373   7.299   3.034   2.665 -0.0086 -0.3428 -0.0517
   8523SM   C2F11374   7.287   3.031   2.899  0.4337  0.1022  0.2512
   8523SM   H2F11375   7.392   3.004   2.927  0.7299  0.6415 -0.3085
   8523SM   H2G11376   7.215   2.987   2.970  0.0263 -1.9522 -1.3462
   8523SM   C3F11377   7.280   3.189   2.898  0.4690  0.2385 -0.3267
   8523SM   H3F11378   7.354   3.230   2.826  0.3395  0.7193 -0.1894
   8523SM   H3G11379   7.317   3.227   2.996  2.8004  2.4308 -1.9280
   8523SM   C4F11380   7.140   3.256   2.875  0.1341  0.3447 -0.9196
   8523SM   H4F11381   7.098   3.212   2.781 -0.0394 -3.7915  0.8744
   8523SM   H4G11382   7.155   3.365   2.858 -1.0794  0.3854 -1.8466
   8523SM   C5F11383   7.035   3.231   2.987  0.0328  0.0624 -0.7523
   8523SM   H5F11384   7.042   3.121   2.998 -1.9651 -0.0988 -0.7630
   8523SM   H5G11385   6.937   3.268   2.950  0.4812  3.0743  0.7955
   8523SM   C6F11386   7.067   3.315   3.119  0.1176 -0.4124 -0.2763
   8523SM   H6F11387   7.062   3.425   3.102 -2.2429 -0.2401  1.1012
   8523SM   H6G11388   7.173   3.290   3.143 -0.0430  0.1999  1.1731
   8523SM   C7F11389   6.981   3.281   3.239 -0.7447 -0.1335  0.6208
   8523SM   H7F11390   7.013   3.340   3.328  1.7729 -0.5147  0.0513
   8523SM   H7G11391   7.010   3.178   3.268 -3.3427 -0.5814  1.9823
   8523SM   C8F11392   6.829   3.282   3.219 -0.4255  0.2016 -0.4678
   8523SM   H8F11393   6.808   3.182   3.175  0.4186 -1.5654  2.8649
   8523SM   H8G11394   6.793   3.361   3.150 -1.7104  0.7173  0.7521
   8523SM   C9F11395   6.764   3.287   3.355 -0.7198 -0.0581 -0.4157
   8523SM   H9F11396   6.816   3.360   3.421  1.3617 -1.8393 -0.0099
   8523SM   H9G11397   6.770   3.185   3.396  3.0077  0.6583  1.2033
   8523SM  C10F11398   6.611   3.325   3.346 -0.4308 -0.0653 -0.5792
   8523SM  H10F11399   6.599   3.414   3.281  0.8738  2.1521  2.0499
   8523SM  H10G11400   6.581   3.364   3.445  1.1167 -0.3835  0.0456
   8523SM  C11F11401   6.527   3.208   3.299  0.2478 -0.3234 -0.3401
   8523SM  H11F11402   6.576   3.158   3.213  3.0045 -1.4712  1.7551
   8523SM  H11G11403   6.426   3.243   3.269  0.5742  2.1067  1.1629
   8523SM  C12F11404   6.508   3.100   3.415  1.2108 -0.1239  0.5935
   8523SM  H12F11405   6.608   3.052   3.413  1.8211  1.0827  1.5248
   8523SM  H12G11406   6.426   3.031   3.386 -2.0281  3.0468  1.4816
   8523SM  C13F11407   6.484   3.140   3.561 -0.1048  0.4120 -0.2119
   8523SM  H13F11408   6.403   3.215   3.570 -0.3843  0.4448 -2.4515
   8523SM  H13G11409   6.575   3.188   3.603  0.7005 -1.7367  0.6659
   8523SM  C14F11410   6.452   3.022   3.656 -0.1496  0.0941 -0.0934
   8523SM  H14F11411   6.529   2.942   3.662 -0.6915 -0.5052 -0.9011
   8523SM  H14G11412   6.365   2.972   3.608 -1.6268  1.0731  1.4784
   8523SM  C15F11413   6.415   3.059   3.797 -0.4503  0.6371 -0.6957
   8523SM  H15F11414   6.327   3.126   3.788 -0.2161  1.1158  0.5051
   8523SM  H15G11415   6.491   3.123   3.845 -0.8068 -0.5385  1.6008
   8523SM  C16F11416   6.376   2.950   3.890  0.3999  0.1780 -0.2567
   8523SM  H16F11417   6.464   2.884   3.902  0.4800  0.4818  1.0072
   8523SM  H16G11418   6.303   2.879   3.845  0.8711  0.2191 -1.0980
   8523SM  C17F11419   6.343   2.991   4.035  0.7174  0.3126  1.0924
   8523SM  H17F11420   6.256   3.060   4.028  0.5769  0.0248 -0.1857
   8523SM  H17G11421   6.430   3.039   4.085  2.8818 -3.0792  0.9147
   8523SM  C18F11422   6.325   2.867   4.123  0.2934 -0.1872  0.3143
   8523SM  H18F11423   6.419   2.808   4.130  0.3254 -0.3945 -1.3437
   8523SM  H18G11424   6.247   2.795   4.090  1.8234 -0.4952 -3.0264
   8523SM  C19F11425   6.291   2.908   4.269 -0.2918 -0.5452  0.2906
   8523SM  H19F11426   6.381   2.956   4.314  0.2065 -1.2973  0.1352
   8523SM  H19G11427   6.279   2.819   4.335  1.3433 -1.2882 -0.3498
   8523SM  C20F11428   6.163   2.994   4.288 -1.1256  0.0261 -0.6802
   8523SM  H20F11429   6.083   2.945   4.229 -2.4571 -0.5899  1.5040
   8523SM  H20G11430   6.170   3.095   4.244  0.9128  0.2381 -0.0055
   8523SM  C21F11431   6.137   3.017   4.440 -0.2256 -0.2559 -0.7786
   8523SM  H21F11432   6.126   2.919   4.492  0.5522  0.1871  0.2553
   8523SM  H21G11433   6.040   3.072   4.444  1.0900  2.1300  0.7600
   8523SM  C22F11434   6.248   3.096   4.519  0.7181  1.2463  0.2784
   8523SM  H22F11435   6.234   3.203   4.491 -0.9096  1.1809  0.7606
   8523SM  H22G11436   6.344   3.060   4.476  0.2262  0.7368 -0.4219
   8523SM  C23F11437   6.250   3.075   4.670  0.4895  0.5766  0.7079
   8523SM  H23F11438   6.147   3.074   4.712  0.1785 -2.1639  0.0436
   8523SM  H23G11439   6.309   3.155   4.719  2.2534 -0.2418  0.0176
   8523SM  H23H11440   6.275   2.969   4.690 -1.3352 -0.8855 -3.5468
   8623SM     N11441   3.733   1.387   2.637 -0.0384  0.2881  0.1940
   8623SM   C1511442   3.631   1.282   2.665  0.0076 -0.3145 -0.4039
   8623SM  H15A11443   3.629   1.205   2.590  0.3669  0.1691 -0.9220
   8623SM  H15B11444   3.535   1.332   2.668  0.0973 -0.1479 -0.2096
   8623SM  H15C11445   3.647   1.238   2.763  0.7114  2.2009  0.7110
   8623SM   C1411446   3.759   1.482   2.754 -0.1501  0.3999 -0.4280
   8623SM  H14A11447   3.824   1.564   2.727  1.2106 -0.4745  0.0920
   8623SM  H14B11448   3.801   1.427   2.837  1.3081  0.7091 -0.9308
   8623SM  H14C11449   3.666   1.531   2.778 -0.5688 -1.8798  3.3402
   8623SM   C1311450   3.866   1.315   2.611  0.0953 -0.6131  0.5160
   8623SM  H13A11451   3.954   1.377   2.603  2.1021 -3.0596  2.2467
   8623SM  H13B11452   3.855   1.253   2.523 -0.2584  2.6788 -1.9627
   8623SM  H13C11453   3.883   1.253   2.697  1.8516 -1.6763 -0.5365
   8623SM   C1211454   3.681   1.472   2.524 -0.1525 -0.0026  0.1085
   8623SM  H12A11455   3.692   1.431   2.425 -1.4289 -1.2783  0.4461
   8623SM  H12B11456   3.746   1.557   2.523 -0.9677  0.6482  0.8000
   8623SM   C1111457   3.533   1.515   2.524  0.1270 -0.3412  0.2600
   8623SM  H11A11458   3.476   1.420   2.519  2.8845 -2.0978 -0.0028
   8623SM  H11B11459   3.512   1.570   2.430  0.4226  1.5559  1.2610
   8623SM     P11460   3.360   1.610   2.694 -0.6445 -0.3688  0.1263
   8623SM   O1311461   3.275   1.695   2.607 -0.0499  0.3364 -0.1125
   8623SM   O1411462   3.306   1.477   2.725  0.0746 -0.0860  0.6809
   8623SM   O1111463   3.385   1.686   2.827 -0.6920 -0.2868  0.3223
   8623SM   O1211464   3.505   1.603   2.632 -0.5539 -0.2620 -0.2081
   8623SM   C1S11465   3.370   1.628   2.965  0.7378  0.1927 -0.1058
   8623SM   H1S11466   3.424   1.531   2.969  0.8645  0.0499 -3.1239
   8623SM   H1T11467   3.267   1.588   2.978  1.0287 -1.7972 -3.0301
   8623SM    NF11468   3.435   1.639   3.208  0.1358  0.0868  0.0741
   8623SM   HNF11469   3.366   1.658   3.277  1.7126  0.2833  1.6711
   8623SM   C2S11470   3.422   1.710   3.083  0.0979  0.8866  0.5705
   8623SM   H2S11471   3.523   1.749   3.058  0.6780 -0.7839  0.1853
   8623SM   C3S11472   3.330   1.836   3.096  0.3700 -0.4597 -0.0460
   8623SM   H3S11473   3.230   1.798   3.126 -0.4332  0.7285 -1.1700
   8623SM    O311474   3.318   1.909   2.974  0.1531 -0.0905  0.2314
   8623SM   HO311475   3.367   1.853   2.912 -0.1861  0.3547 -0.4586
   8623SM   C4S11476   3.370   1.929   3.207 -0.4508 -0.6420 -0.3337
   8623SM   H4S11477   3.315   1.917   3.301  1.3865 -1.9982  0.6561
   8623SM   C5S11478   3.469   2.020   3.200 -1.0582  0.3385 -0.2701
   8623SM   H5S11479   3.526   2.020   3.106  0.4010 -1.3067  0.5475
   8623SM   C6S11480   3.512   2.117   3.308 -0.5332  0.3004 -0.0355
   8623SM   H6S11481   3.489   2.220   3.272  0.5161  0.1492 -1.2411
   8623SM   H6T11482   3.621   2.118   3.329 -0.5060 -2.9688  0.4395
   8623SM   C7S11483   3.431   2.096   3.437 -0.2716 -0.1831 -0.1173
   8623SM   H7S11484   3.444   1.993   3.476  2.0851 -0.1518 -0.7197
   8623SM   H7T11485   3.324   2.120   3.420  0.3539  2.5037 -0.7073
   8623SM   C8S11486   3.495   2.185   3.553 -0.2774  0.9953  0.7277
   8623SM   H8S11487   3.453   2.287   3.549 -1.0958  0.7856  2.6107
   8623SM   H8T11488   3.605   2.189   3.538 -0.2269 -0.3982  0.5948
   8623SM   C9S11489   3.464   2.137   3.694  0.7382  0.6398 -0.2141
   8623SM   H9S11490   3.495   2.034   3.720 -2.9399 -0.4126  0.6440
   8623SM   H9T11491   3.354   2.142   3.713  0.8234 -0.6192  0.6670
   8623SM  C10S11492   3.526   2.225   3.802  0.1523  0.0020  0.4642
   8623SM  H10S11493   3.498   2.329   3.778 -0.0224  0.1234  1.1559
   8623SM  H10T11494   3.637   2.223   3.806  0.1160  0.0068  2.3884
   8623SM  C11S11495   3.477   2.194   3.949  0.3497  0.4211  1.0008
   8623SM  H11S11496   3.482   2.083   3.940  0.5971  0.5776 -1.1329
   8623SM  H11T11497   3.369   2.222   3.948  0.4830  0.9273  0.7435
   8623SM  C12S11498   3.548   2.259   4.056 -0.4765 -0.2471 -0.1356
   8623SM  H12S11499   3.537   2.369   4.051  1.6789  0.0501  0.5094
   8623SM  H12T11500   3.658   2.243   4.047 -0.5747 -1.1049  0.1121
   8623SM  C13S11501   3.492   2.212   4.189  0.9578 -0.0922  0.0120
   8623SM  H13S11502   3.527   2.107   4.191  0.4684 -0.2649 -0.4379
   8623SM  H13T11503   3.382   2.221   4.174  0.8492 -1.0895  0.1459
   8623SM  C14S11504   3.544   2.273   4.319 -0.0685  0.8374 -0.4394
   8623SM  H14S11505   3.521   2.381   4.326  0.0354  0.7823  1.3084
   8623SM  H14T11506   3.655   2.273   4.327  0.0515 -0.7653 -1.6335
   8623SM  C15S11507   3.472   2.210   4.438 -0.2643 -0.6907 -0.1382
   8623SM  H15S11508   3.510   2.105   4.433  0.7692 -0.2926 -1.7720
   8623SM  H15T11509   3.362   2.212   4.424 -0.5396 -0.0853  1.8703
   8623SM  C16S11510   3.502   2.271   4.580 -0.0073  0.1505 -0.7347
   8623SM  H16S11511   3.468   2.377   4.578  2.1200  0.9133 -3.4617
   8623SM  H16T11512   3.612   2.271   4.595  0.2132  3.6521 -1.4386
   8623SM  C17S11513   3.435   2.196   4.698  0.2404  0.8354  0.4391
   8623SM  H17S11514   3.473   2.093   4.682  0.9257  1.1711 -0.1775
   8623SM  H17T11515   3.328   2.222   4.686  0.6311  2.3112 -0.0861
   8623SM  C18S11516   3.471   2.236   4.842 -0.2144 -0.1304 -0.7775
   8623SM  H18S11517   3.581   2.223   4.856 -0.4563 -2.5046 -0.5958
   8623SM  H18T11518   3.428   2.171   4.921  0.1036  0.5201 -0.0585
   8623SM  H18U11519   3.428   2.336   4.863 -0.5043 -0.1508 -1.2561
   8623SM   C1F11520   3.519   1.534   3.232 -0.2939 -1.0797  0.0383
   8623SM    OF11521   3.608   1.511   3.152  0.2644  0.5545 -0.1148
   8623SM   C2F11522   3.489   1.445   3.352 -1.4533 -0.2723  0.3994
   8623SM   H2F11523   3.526   1.347   3.316  1.3555  0.8873 -0.1512
   8623SM   H2G11524   3.380   1.440   3.372 -1.6612 -1.6939 -0.9153
   8623SM   C3F11525   3.578   1.492   3.474 -1.0505  0.5454 -0.3086
   8623SM   H3F11526   3.684   1.507   3.443 -0.7051 -1.4925 -0.2494
   8623SM   H3G11527   3.576   1.408   3.547 -2.4497  0.4827 -0.3985
   8623SM   C4F11528   3.525   1.624   3.532  0.3203 -0.0285 -0.9714
   8623SM   H4F11529   3.414   1.628   3.524  0.1987  0.3048  0.6093
   8623SM   H4G11530   3.561   1.710   3.472 -0.3420  0.1833 -1.0643
   8623SM   C5F11531   3.557   1.637   3.680 -0.2091 -0.2236  0.4349
   8623SM   H5F11532   3.525   1.740   3.708 -0.8848  0.0030 -1.0798
   8623SM   H5G11533   3.667   1.635   3.696 -0.0273 -0.6488 -0.8147
   8623SM   C6F11534   3.479   1.538   3.775 -0.9495 -0.3022 -0.3195
   8623SM   H6F11535   3.479   1.438   3.726  1.6252 -1.1699  1.2326
   8623SM   H6G11536   3.376   1.579   3.783 -1.4893 -1.2551 -1.9064
   8623SM   C7F11537   3.541   1.505   3.912 -0.7324 -0.0587  0.2345
   8623SM   H7F11538   3.651   1.492   3.901 -0.7170  0.3305 -0.0929
   8623SM   H7G11539   3.497   1.408   3.943  1.6347 -1.9199 -1.8354
   8623SM   C8F11540   3.528   1.619   4.013  0.0857 -0.4907 -0.3756
   8623SM   H8F11541   3.419   1.628   4.031  0.3309 -0.0232  0.9798
   8623SM   H8G11542   3.560   1.714   3.965  0.2661 -0.8841 -1.0616
   8623SM   C9F11543   3.600   1.592   4.147 -0.0148  0.8487 -0.3231
   8623SM   H9F11544   3.704   1.628   4.137  0.7739 -1.6539 -1.8811
   8623SM   H9G11545   3.605   1.482   4.163 -2.8132  0.7617  0.5229
   8623SM  C10F11546   3.528   1.660   4.257  0.0261 -0.1841 -0.1890
   8623SM  H10F11547   3.420   1.644   4.242 -0.2112  0.8046  0.3620
   8623SM  H10G11548   3.543   1.769   4.242 -1.9098  0.0419 -0.7000
   8623SM  C11F11549   3.569   1.628   4.406 -0.6162  0.9945  0.6967
   8623SM  H11F11550   3.675   1.653   4.428  0.3116 -2.4276  0.6629
   8623SM  H11G11551   3.546   1.522   4.431 -2.5535  0.1820 -3.5958
   8623SM  C12F11552   3.486   1.689   4.514 -0.1975 -0.1684 -0.7458
   8623SM  H12F11553   3.397   1.624   4.524 -1.3364  1.2388 -1.3359
   8623SM  H12G11554   3.462   1.795   4.491 -0.1103 -0.2522 -1.2255
   8623SM  C13F11555   3.554   1.697   4.653  0.2172  0.4386 -0.0749
   8623SM  H13F11556   3.623   1.784   4.651  0.4237  0.4371  2.8105
   8623SM  H13G11557   3.597   1.602   4.692  1.0678  1.1555  0.7825
   8623SM  C14F11558   3.466   1.753   4.769  0.4175 -0.0052 -0.0039
   8623SM  H14F11559   3.365   1.707   4.761 -1.2080  3.5028 -2.5784
   8623SM  H14G11560   3.452   1.856   4.729  0.8954 -0.1262 -0.5023
   8623SM  C15F11561   3.531   1.754   4.909  0.0077  0.1225 -0.1457
   8623SM  H15F11562   3.631   1.803   4.909 -0.5405  1.5440  3.3628
   8623SM  H15G11563   3.557   1.655   4.951  2.3115  0.3035 -1.0010
   8623SM  C16F11564   3.449   1.823   5.022  0.1738 -0.8321  0.2302
   8623SM  H16F11565   3.348   1.778   5.033 -0.4715  0.5976  0.4377
   8623SM  H16G11566   3.404   1.915   4.977 -0.8750 -1.2609  0.3763
   8623SM  C17F11567   3.541   1.847   5.141  0.2685  0.3196  0.1428
   8623SM  H17F11568   3.632   1.906   5.117 -0.7875  2.2414  0.6424
   8623SM  H17G11569   3.558   1.741   5.171  1.0515  0.8098  1.5566
   8623SM  C18F11570   3.462   1.917   5.257  0.0211 -0.4005  0.5861
   8623SM  H18F11571   3.361   1.873   5.268 -0.7926  1.4955  1.1551
   8623SM  H18G11572   3.447   2.023   5.227  2.6496 -0.6388 -2.0640
   8623SM  C19F11573   3.533   1.917   5.391 -0.0976 -0.3648 -0.3274
   8623SM  H19F11574   3.600   2.005   5.396  1.0556 -1.1586 -1.3770
   8623SM  H19G11575   3.603   1.832   5.396  1.2372  0.6287 -1.4462
   8623SM  C20F11576   3.433   1.927   5.502  0.5264 -0.0565 -0.1043
   8623SM  H20F11577   3.363   1.842   5.487  1.2413 -0.4581 -1.3282
   8623SM  H20G11578   3.376   2.022   5.493 -1.1713 -0.9980  0.3407
   8623SM  C21F11579   3.482   1.916   5.647  0.0084 -0.2992  0.3758
   8623SM  H21F11580   3.547   1.826   5.644 -1.6747 -1.7281  3.1532
   8623SM  H21G11581   3.389   1.910   5.708  1.8142  1.3755  3.5063
   8623SM  C22F11582   3.568   2.033   5.693  0.4566 -0.0838 -0.3684
   8623SM  H22F11583   3.655   2.040   5.626  0.3825  0.6335 -0.3973
   8623SM  H22G11584   3.589   2.021   5.802  1.2862  1.7660 -0.2846
   8623SM  C23F11585   3.494   2.163   5.691 -0.5909 -0.2274 -0.0598
   8623SM  H23F11586   3.475   2.199   5.588 -1.8046  0.2942  0.3360
   8623SM  H23G11587   3.555   2.241   5.741  1.0878 -0.0131 -2.2551
   8623SM  H23H11588   3.395   2.162   5.741 -0.3483  2.2974  0.5939
   8723SM     N11589   4.561   0.749   2.678  0.0995  0.6488 -0.2469
   8723SM   C1511590   4.507   0.614   2.694 -0.4160 -0.1770 -0.2219
   8723SM  H15A11591   4.431   0.591   2.621  1.0498 -0.5649 -1.6863
   8723SM  H15B11592   4.456   0.602   2.788 -0.1947  2.0806  0.2423
   8723SM  H15C11593   4.591   0.546   2.690  0.0425  0.4416 -2.0476
   8723SM   C1411594   4.637   0.747   2.544 -0.1863  0.3212  0.2738
   8723SM  H14A11595   4.592   0.686   2.467 -0.2824  0.6604  0.0568
   8723SM  H14B11596   4.733   0.703   2.564 -0.6295 -0.4964  0.6499
   8723SM  H14C11597   4.655   0.852   2.524 -0.1562  0.4971  1.1800
   8723SM   C1311598   4.451   0.844   2.664  0.5869 -0.5970 -0.2384
   8723SM  H13A11599   4.379   0.814   2.589 -0.8393  0.1414  0.7899
   8723SM  H13B11600   4.501   0.937   2.641 -0.3739  0.4655  1.7376
   8723SM  H13C11601   4.399   0.865   2.756 -0.2908  0.3182 -0.9223
   8723SM   C1211602   4.653   0.789   2.793 -0.0832 -0.1811 -0.1243
   8723SM  H12A11603   4.745   0.733   2.787  0.4089  0.4127  1.4452
   8723SM  H12B11604   4.606   0.749   2.881 -1.1605  1.6232  0.1680
   8723SM   C1111605   4.690   0.939   2.798 -0.3416  0.0221 -0.6866
   8723SM  H11A11606   4.763   0.949   2.882 -0.5720 -1.5725 -0.2608
   8723SM  H11B11607   4.592   0.988   2.815 -0.2297 -0.1208  0.4598
   8723SM     P11608   4.789   1.136   2.638  0.0456  0.3838  0.3686
   8723SM   O1311609   4.890   1.157   2.527 -0.0448 -0.5026 -0.8461
   8723SM   O1411610   4.649   1.190   2.617 -0.3044 -0.0099 -0.1869
   8723SM   O1111611   4.848   1.195   2.771  0.0884  0.5316 -0.2826
   8723SM   O1211612   4.757   0.984   2.678 -0.5924 -0.0756  0.2498
   8723SM   C1S11613   4.764   1.261   2.862  0.1819 -0.0810  0.4426
   8723SM   H1S11614   4.674   1.200   2.880  0.0857 -0.3364 -0.8061
   8723SM   H1T11615   4.735   1.357   2.814  3.3780  1.2069  0.8354
   8723SM    NF11616   4.734   1.320   3.098 -0.0176 -0.2065 -0.7633
   8723SM   HNF11617   4.708   1.414   3.120 -0.3425 -0.8786  2.1346
   8723SM   C2S11618   4.833   1.302   2.997 -0.0656 -0.5716  0.4387
   8723SM   H2S11619   4.899   1.222   3.036 -0.7171 -0.5501  1.6252
   8723SM   C3S11620   4.917   1.428   2.970 -0.4454  0.6720 -0.5296
   8723SM   H3S11621   4.837   1.504   2.962 -2.0440 -0.7677  0.9961
   8723SM    O311622   4.993   1.424   2.846  0.5242 -0.3291 -0.3485
   8723SM   HO311623   4.969   1.343   2.800  0.9370  0.5348 -2.1683
   8723SM   C4S11624   5.018   1.442   3.074  0.2819  0.1155 -0.5462
   8723SM   H4S11625   5.083   1.356   3.094  0.8850  0.7158  0.1470
   8723SM   C5S11626   5.043   1.558   3.138 -0.4493 -0.2375  0.1377
   8723SM   H5S11627   4.987   1.649   3.112 -1.7767 -0.4319  2.1112
   8723SM   C6S11628   5.147   1.587   3.236 -0.7648 -0.2479 -0.8259
   8723SM   H6S11629   5.165   1.696   3.244 -1.2338 -0.1677 -0.7989
   8723SM   H6T11630   5.236   1.534   3.197 -1.0172 -1.3102 -0.0074
   8723SM   C7S11631   5.110   1.531   3.376  0.0375 -0.2130  0.2213
   8723SM   H7S11632   5.090   1.421   3.378 -3.6370  0.3506  0.7312
   8723SM   H7T11633   5.019   1.583   3.411  0.1092 -0.6369  1.0733
   8723SM   C8S11634   5.227   1.551   3.475 -0.4653  0.0617 -0.1756
   8723SM   H8S11635   5.178   1.550   3.575  1.2470  0.9005  0.7272
   8723SM   H8T11636   5.261   1.657   3.469  0.6101 -0.2485  0.1269
   8723SM   C9S11637   5.345   1.453   3.476 -0.1011  0.4951 -0.1652
   8723SM   H9S11638   5.390   1.437   3.375  1.0806  0.6181  0.3259
   8723SM   H9T11639   5.310   1.356   3.517  0.5060  1.5862  3.2578
   8723SM  C10S11640   5.463   1.492   3.570  0.4015  0.5929  0.0696
   8723SM  H10S11641   5.509   1.589   3.539  1.2892  0.1410 -0.0620
   8723SM  H10T11642   5.537   1.412   3.553 -1.8346 -0.9845 -3.5554
   8723SM  C11S11643   5.418   1.502   3.718 -0.1392  0.3741  0.4741
   8723SM  H11S11644   5.370   1.406   3.744 -1.1233  0.5568 -0.5850
   8723SM  H11T11645   5.343   1.584   3.711 -1.4421 -0.8763 -0.9673
   8723SM  C12S11646   5.534   1.530   3.818 -0.3860 -0.4880 -0.4488
   8723SM  H12S11647   5.591   1.617   3.778 -0.2325  0.2995  1.3957
   8723SM  H12T11648   5.591   1.435   3.816 -0.9199 -0.8121 -0.3776
   8723SM  C13S11649   5.488   1.564   3.964  0.4602  0.0359  0.0502
   8723SM  H13S11650   5.410   1.488   3.988  1.1126 -1.1185 -1.3246
   8723SM  H13T11651   5.445   1.666   3.966  1.2632  0.3766  0.7364
   8723SM  C14S11652   5.607   1.568   4.070 -0.6614  0.4569  0.4322
   8723SM  H14S11653   5.668   1.659   4.051  0.4213  0.1981  2.4014
   8723SM  H14T11654   5.671   1.477   4.069  1.7385  1.9522  3.2776
   8723SM  C15S11655   5.543   1.589   4.208 -0.4582 -0.3747  0.2937
   8723SM  H15S11656   5.612   1.548   4.284  1.8300 -1.0514 -2.0175
   8723SM  H15T11657   5.442   1.544   4.222 -0.0538 -0.8685  1.8495
   8723SM  C16S11658   5.535   1.741   4.232 -0.0848 -0.4156 -0.2801
   8723SM  H16S11659   5.454   1.784   4.169 -2.7426 -2.3598  1.5312
   8723SM  H16T11660   5.634   1.782   4.206  0.5016 -0.6486  1.4229
   8723SM  C17S11661   5.487   1.775   4.373 -0.5971  0.7291 -0.0536
   8723SM  H17S11662   5.485   1.886   4.379 -1.0304  0.7464 -0.4679
   8723SM  H17T11663   5.551   1.736   4.455 -0.8278  0.4976  0.0175
   8723SM  C18S11664   5.341   1.727   4.397 -0.5680  0.5286  0.0763
   8723SM  H18S11665   5.322   1.618   4.387  2.1146 -0.2009  1.9654
   8723SM  H18T11666   5.284   1.776   4.315 -0.4076  0.7144  0.0746
   8723SM  H18U11667   5.312   1.775   4.493 -0.4313  1.9082 -0.5443
   8723SM   C1F11668   4.665   1.222   3.157  0.0358 -0.1499  0.3080
   8723SM    OF11669   4.705   1.109   3.129  0.3527  0.1209  0.4139
   8723SM   C2F11670   4.549   1.252   3.247 -0.8021  0.2280  0.1484
   8723SM   H2F11671   4.455   1.240   3.188  0.0645  0.0486 -1.2375
   8723SM   H2G11672   4.554   1.359   3.277  0.2436 -0.2058  1.6253
   8723SM   C3F11673   4.539   1.162   3.374 -0.4123 -0.1752 -1.3695
   8723SM   H3F11674   4.634   1.156   3.431 -0.2334 -0.0681 -1.6490
   8723SM   H3G11675   4.535   1.055   3.344  0.5546 -0.6599  0.1237
   8723SM   C4F11676   4.423   1.181   3.471  0.5388 -0.0250 -0.9363
   8723SM   H4F11677   4.331   1.173   3.410 -0.4642  0.6861  0.4282
   8723SM   H4G11678   4.417   1.284   3.510  0.9776 -1.0660  2.1226
   8723SM   C5F11679   4.405   1.080   3.587 -0.1860 -0.4021 -0.2864
   8723SM   H5F11680   4.503   1.071   3.639 -0.6854  2.2133  1.3239
   8723SM   H5G11681   4.376   0.980   3.548 -0.6982  0.4315 -2.1493
   8723SM   C6F11682   4.295   1.120   3.689  0.1298  0.0564 -0.0749
   8723SM   H6F11683   4.193   1.098   3.652 -0.5441  2.4689  0.1604
   8723SM   H6G11684   4.308   1.230   3.694 -0.6531  0.2140 -1.3212
   8723SM   C7F11685   4.318   1.049   3.827  0.3694  0.1634  0.1110
   8723SM   H7F11686   4.418   1.080   3.863  0.2007  2.4449 -1.1655
   8723SM   H7G11687   4.317   0.939   3.813  0.5628  0.1196  0.4460
   8723SM   C8F11688   4.217   1.078   3.939  0.2932 -0.2857 -0.3313
   8723SM   H8F11689   4.123   1.021   3.924  0.1001 -0.4217  1.2682
   8723SM   H8G11690   4.196   1.186   3.956 -0.7108 -0.7100  1.2841
   8723SM   C9F11691   4.267   1.017   4.074 -0.1878 -0.4576  0.1458
   8723SM   H9F11692   4.377   1.025   4.079 -0.3239  1.5117  0.9793
   8723SM   H9G11693   4.250   0.907   4.072 -0.2888 -0.5120  2.1117
   8723SM  C10F11694   4.190   1.077   4.193 -0.3428 -0.3276 -0.4930
   8723SM  H10F11695   4.082   1.067   4.168 -0.4270 -0.5062 -0.0694
   8723SM  H10G11696   4.218   1.184   4.201  0.5572 -0.6683  1.2023
   8723SM  C11F11697   4.222   1.005   4.330 -0.1314 -0.8219  0.8007
   8723SM  H11F11698   4.328   1.008   4.363 -0.1880 -2.1326  1.1413
   8723SM  H11G11699   4.192   0.901   4.308  0.7942 -0.7560 -0.9793
   8723SM  C12F11700   4.138   1.069   4.442 -0.0835  0.1806 -0.4526
   8723SM  H12F11701   4.034   1.079   4.404  0.1115  0.2953 -0.9579
   8723SM  H12G11702   4.170   1.174   4.461  0.1202 -0.3675  3.0062
   8723SM  C13F11703   4.137   0.988   4.577  0.5710 -0.8705  0.4185
   8723SM  H13F11704   4.092   0.887   4.572  2.1988 -1.5750 -0.3593
   8723SM  H13G11705   4.083   1.054   4.649  0.2557  1.3894 -1.7453
   8723SM  C14F11706   4.275   0.960   4.624 -0.0531  0.3102 -0.5351
   8723SM  H14F11707   4.323   1.059   4.614  0.4699  0.0714 -0.3815
   8723SM  H14G11708   4.333   0.889   4.561  3.1994  1.4023  1.0287
   8723SM  C15F11709   4.286   0.931   4.772 -0.0059  0.7933 -0.2013
   8723SM  H15F11710   4.253   1.012   4.841  0.2307 -0.1143  1.0261
   8723SM  H15G11711   4.396   0.913   4.774 -0.2426 -0.8867 -0.7065
   8723SM  C16F11712   4.236   0.787   4.825  0.6564  0.3576 -0.0833
   8723SM  H16F11713   4.254   0.717   4.741  1.3614 -0.7941  0.9913
   8723SM  H16G11714   4.129   0.791   4.853  1.2526  0.8399  2.3985
   8723SM  C17F11715   4.307   0.740   4.953 -0.1304  0.2669 -0.2956
   8723SM  H17F11716   4.295   0.823   5.026  2.7462 -0.1753  0.8090
   8723SM  H17G11717   4.415   0.732   4.928 -0.5850 -2.3036 -1.7362
   8723SM  C18F11718   4.253   0.602   5.006  0.4334 -0.3916  0.2051
   8723SM  H18F11719   4.146   0.623   5.028  0.7011  0.6874  0.5567
   8723SM  H18G11720   4.298   0.579   5.105 -0.0264 -0.1150  0.4807
   8723SM  C19F11721   4.260   0.485   4.914  0.3118  0.6913  0.1834
   8723SM  H19F11722   4.369   0.470   4.921  0.2604  0.4595  0.4943
   8723SM  H19G11723   4.227   0.505   4.810 -0.0673 -1.7352 -0.2311
   8723SM  C20F11724   4.174   0.373   4.971 -0.9050 -0.6712  0.2401
   8723SM  H20F11725   4.064   0.392   4.970 -0.4380  2.7834 -1.2836
   8723SM  H20G11726   4.209   0.357   5.075  1.0906 -3.1633 -0.7167
   8723SM  C21F11727   4.220   0.240   4.904 -0.0948  0.2970 -0.1379
   8723SM  H21F11728   4.330   0.238   4.916 -0.3797 -0.0753  3.4409
   8723SM  H21G11729   4.194   0.238   4.795  2.0802 -0.4189 -0.6878
   8723SM  C22F11730   4.167   0.109   4.971 -0.1770  0.1583  0.5399
   8723SM  H22F11731   4.058   0.113   4.989  0.0128 -1.4349  2.2845
   8723SM  H22G11732   4.206   0.098   5.074 -0.2626 -1.3293  0.4401
   8723SM  C23F11733   4.191  -0.024   4.886 -0.1788  0.2836 -0.8751
   8723SM  H23F11734   4.273  -0.005   4.814  0.4509 -0.1890 -0.2939
   8723SM  H23G11735   4.091  -0.040   4.839 -1.6293 -0.0418  2.0999
   8723SM  H23H11736   4.204  -0.111   4.953 -1.5125  1.4289  0.9540
   8823SM     N11737   1.454   2.665   2.554  0.4439 -0.6632  0.3616
   8823SM   C1511738   1.355   2.748   2.621  0.1809 -0.0203 -0.0461
   8823SM  H15A11739   1.397   2.844   2.645  0.7324  0.1036 -1.4117
   8823SM  H15B11740   1.340   2.694   2.713  1.2886  0.4790  0.4517
   8823SM  H15C11741   1.259   2.762   2.574  0.5094  0.3208 -0.6247
   8823SM   C1411742   1.470   2.725   2.418 -0.1699  0.1509 -0.3748
   8823SM  H14A11743   1.527   2.667   2.346  1.5473  0.8287  0.3890
   8823SM  H14B11744   1.529   2.816   2.420  1.7330 -1.0502  1.5071
   8823SM  H14C11745   1.369   2.734   2.381 -0.9295 -2.2843  0.9282
   8823SM   C1311746   1.590   2.673   2.610 -0.1961  0.0081 -0.1689
   8823SM  H13A11747   1.612   2.777   2.626  2.6026 -0.5134 -0.1644
   8823SM  H13B11748   1.668   2.625   2.552  0.1560  0.0206  0.2968
   8823SM  H13C11749   1.584   2.633   2.710 -2.3885  0.4472 -0.0808
   8823SM   C1211750   1.416   2.520   2.535  0.0778  0.0569  0.3538
   8823SM  H12A11751   1.411   2.466   2.628  0.0886 -2.2071 -0.9030
   8823SM  H12B11752   1.497   2.479   2.476 -0.0403  0.4404 -0.0747
   8823SM   C1111753   1.286   2.486   2.454 -0.0408  0.0473  0.4268
   8823SM  H11A11754   1.290   2.541   2.358 -1.6821  1.2549  1.0138
   8823SM  H11B11755   1.200   2.524   2.513 -0.3349  1.2784 -0.7618
   8823SM     P11756   1.147   2.258   2.453  0.0917 -0.2396 -0.0663
   8823SM   O1311757   1.038   2.323   2.379  0.2447  0.2892 -0.0328
   8823SM   O1411758   1.186   2.116   2.423  0.3113  0.0025  0.1915
   8823SM   O1111759   1.133   2.275   2.616 -0.0860  0.1305  0.2646
   8823SM   O1211760   1.280   2.344   2.427 -0.0828 -0.0704 -0.0254
   8823SM   C1S11761   1.233   2.223   2.697 -1.1473  0.0949 -0.2182
   8823SM   H1S11762   1.336   2.245   2.663  0.1298 -1.2065  2.5126
   8823SM   H1T11763   1.233   2.113   2.710 -2.9717 -0.4766 -3.9349
   8823SM    NF11764   1.331   2.259   2.914 -0.4869  0.6600  0.0475
   8823SM   HNF11765   1.353   2.182   2.973 -0.5891 -1.0861 -2.0506
   8823SM   C2S11766   1.206   2.277   2.846  0.9845 -0.1801 -0.3501
   8823SM   H2S11767   1.182   2.384   2.829  0.0304 -0.7839 -3.2659
   8823SM   C3S11768   1.084   2.205   2.911  0.2769  0.0178  0.2853
   8823SM   H3S11769   1.106   2.096   2.918 -1.3952 -0.5595 -2.1246
   8823SM    O311770   0.958   2.208   2.836  0.2071 -0.9414  0.0305
   8823SM   HO311771   0.989   2.236   2.749 -0.9880 -0.0910 -0.1444
   8823SM   C4S11772   1.063   2.258   3.051 -0.2419 -0.1573 -0.2941
   8823SM   H4S11773   1.131   2.206   3.120  0.9894  0.3867 -1.0708
   8823SM   C5S11774   0.993   2.362   3.090  0.0764 -0.0943  0.2063
   8823SM   H5S11775   0.941   2.418   3.010  1.1057  2.5038  1.2728
   8823SM   C6S11776   0.970   2.413   3.228 -0.2783  0.7440  0.5185
   8823SM   H6S11777   0.870   2.374   3.256  0.5715 -1.4576  0.7128
   8823SM   H6T11778   0.969   2.524   3.233 -1.2078  0.6992  1.6406
   8823SM   C7S11779   1.065   2.366   3.333  0.3184 -0.0458  0.6711
   8823SM   H7S11780   1.169   2.401   3.313  0.2086  0.2379  0.5890
   8823SM   H7T11781   1.079   2.257   3.343 -0.9901 -0.1970  0.9368
   8823SM   C8S11782   1.033   2.421   3.476  0.3122 -0.1856  0.2792
   8823SM   H8S11783   0.952   2.357   3.518  1.3330 -1.1752  0.7733
   8823SM   H8T11784   0.988   2.522   3.464  1.6419  0.3079 -0.7991
   8823SM   C9S11785   1.141   2.423   3.579 -0.0189  0.4176  0.0454
   8823SM   H9S11786   1.240   2.463   3.547 -0.8067 -0.5384 -4.2385
   8823SM   H9T11787   1.161   2.319   3.613 -0.9170  0.1922 -0.0948
   8823SM  C10S11788   1.089   2.507   3.692  0.3883 -0.2151  0.2800
   8823SM  H10S11789   0.993   2.461   3.722 -1.1744  1.6212 -1.6062
   8823SM  H10T11790   1.052   2.608   3.666 -0.9449 -0.4933  1.0070
   8823SM  C11S11791   1.172   2.517   3.819 -0.1621  0.5092 -0.3820
   8823SM  H11S11792   1.254   2.589   3.800  0.3241 -0.4760 -2.3385
   8823SM  H11T11793   1.224   2.420   3.836  1.0104  1.5891  3.0718
   8823SM  C12S11794   1.095   2.559   3.949  0.2343 -0.0686 -0.1907
   8823SM  H12S11795   1.000   2.503   3.955 -0.8495  1.7641  0.8171
   8823SM  H12T11796   1.061   2.664   3.934 -2.5697 -0.8408  0.1946
   8823SM  C13S11797   1.179   2.547   4.075 -0.7781 -0.0511  0.3925
   8823SM  H13S11798   1.285   2.572   4.050 -0.7122  0.7248  1.4285
   8823SM  H13T11799   1.171   2.442   4.110  0.9130 -0.3437  0.0090
   8823SM  C14S11800   1.124   2.634   4.187  0.6797  0.4884 -1.5778
   8823SM  H14S11801   1.017   2.604   4.198  0.6830  0.9582 -0.1349
   8823SM  H14T11802   1.135   2.743   4.167  1.7440  0.9415  1.0888
   8823SM  C15S11803   1.193   2.599   4.322  0.1465  0.1110  0.8369
   8823SM  H15S11804   1.298   2.637   4.325  0.2050  0.1268 -0.4903
   8823SM  H15T11805   1.187   2.489   4.338  0.9776 -0.1969 -0.7292
   8823SM  C16S11806   1.122   2.661   4.445  0.0367 -0.3855 -0.5326
   8823SM  H16S11807   1.012   2.649   4.452 -0.0366  0.6381  0.4052
   8823SM  H16T11808   1.147   2.769   4.436  1.3973 -0.6610 -0.2941
   8823SM  C17S11809   1.187   2.600   4.577  0.0463 -0.7428  0.9110
   8823SM  H17S11810   1.155   2.678   4.649 -3.0307  0.6997 -1.7849
   8823SM  H17T11811   1.297   2.608   4.565  0.1213  1.1033  2.3577
   8823SM  C18S11812   1.137   2.467   4.633 -0.5270  0.0023  0.2083
   8823SM  H18S11813   1.160   2.379   4.569 -1.1838 -1.1807  1.5411
   8823SM  H18T11814   1.026   2.459   4.643 -0.4138 -1.2249  0.6237
   8823SM  H18U11815   1.178   2.449   4.734  1.0181  2.4484  0.0903
   8823SM   C1F11816   1.432   2.346   2.905  0.6058  0.3853 -0.1378
   8823SM    OF11817   1.429   2.443   2.834 -0.4853 -0.2177 -0.0928
   8823SM   C2F11818   1.554   2.315   2.991 -0.6031 -0.3969 -0.0957
   8823SM   H2F11819   1.638   2.382   2.963  2.0387 -3.4320 -0.0531
   8823SM   H2G11820   1.583   2.209   2.975 -0.0436  0.0050 -1.9613
   8823SM   C3F11821   1.516   2.300   3.141 -0.1768 -0.8540 -0.1703
   8823SM   H3F11822   1.613   2.294   3.195 -0.5925  0.3406  0.7575
   8823SM   H3G11823   1.454   2.211   3.164  1.6850 -2.3699 -0.7030
   8823SM   C4F11824   1.442   2.422   3.204  0.3820  0.4593 -0.1033
   8823SM   H4F11825   1.422   2.401   3.311 -0.2212  1.6246  0.0258
   8823SM   H4G11826   1.345   2.442   3.154  0.5300  1.4422 -0.0273
   8823SM   C5F11827   1.526   2.549   3.209  0.1009  0.3673 -0.3751
   8823SM   H5F11828   1.459   2.638   3.218  0.0935  0.1847  2.3818
   8823SM   H5G11829   1.578   2.558   3.112  1.9647 -0.4167  0.5061
   8823SM   C6F11830   1.623   2.569   3.328 -0.1034  0.6804  0.7198
   8823SM   H6F11831   1.663   2.673   3.329  3.1053 -0.4544  0.1453
   8823SM   H6G11832   1.709   2.500   3.328  0.6895  1.6412  1.3805
   8823SM   C7F11833   1.547   2.563   3.457 -0.5504 -0.0676  0.0858
   8823SM   H7F11834   1.526   2.454   3.469 -0.4671  0.0942  2.0146
   8823SM   H7G11835   1.452   2.616   3.437  0.2091  0.8316 -1.3207
   8823SM   C8F11836   1.623   2.605   3.577 -0.1686 -0.0026  0.3730
   8823SM   H8F11837   1.663   2.708   3.565  1.7236 -0.9560 -2.5568
   8823SM   H8G11838   1.713   2.540   3.570 -1.4469 -2.1416  2.2859
   8823SM   C9F11839   1.543   2.577   3.701  0.4389 -0.3763 -0.1556
   8823SM   H9F11840   1.468   2.495   3.696  0.6236 -0.6506  1.3304
   8823SM   H9G11841   1.482   2.668   3.718 -3.2296 -2.8623  1.3208
   8823SM  C10F11842   1.633   2.553   3.825 -0.1400  0.3845  0.0025
   8823SM  H10F11843   1.724   2.614   3.805 -0.4449  1.6136  2.0382
   8823SM  H10G11844   1.663   2.446   3.828  0.1870  0.4797  0.3091
   8823SM  C11F11845   1.574   2.587   3.961 -0.0678 -0.0449 -1.1197
   8823SM  H11F11846   1.483   2.524   3.963 -1.0128  1.2951 -0.5561
   8823SM  H11G11847   1.547   2.695   3.970 -1.0465 -0.4032  0.8960
   8823SM  C12F11848   1.664   2.556   4.077 -0.1135 -0.3717  0.6296
   8823SM  H12F11849   1.760   2.612   4.074 -1.6261  2.3944  0.4652
   8823SM  H12G11850   1.695   2.450   4.066 -0.7862 -0.3789 -1.7992
   8823SM  C13F11851   1.602   2.562   4.214  0.1064  0.0940 -0.0473
   8823SM  H13F11852   1.504   2.510   4.203  0.4193 -0.6119  0.4471
   8823SM  H13G11853   1.581   2.669   4.237 -0.4413 -0.2753  1.2809
   8823SM  C14F11854   1.672   2.478   4.316 -0.0961  0.0092  0.1852
   8823SM  H14F11855   1.777   2.514   4.327  0.1833 -0.5278 -0.6488
   8823SM  H14G11856   1.676   2.380   4.265 -2.8014 -0.1036  0.0466
   8823SM  C15F11857   1.593   2.474   4.447 -0.5984  0.3843  0.0244
   8823SM  H15F11858   1.492   2.435   4.425  0.3683 -0.8649 -2.5640
   8823SM  H15G11859   1.597   2.577   4.488  0.7029 -0.4116  2.0953
   8823SM  C16F11860   1.653   2.391   4.567  0.0267 -0.6162  0.2512
   8823SM  H16F11861   1.757   2.426   4.581 -0.6143  1.3046  0.5856
   8823SM  H16G11862   1.651   2.283   4.540 -0.1754 -0.8956  1.3202
   8823SM  C17F11863   1.567   2.412   4.697 -0.5809 -0.0054  0.1105
   8823SM  H17F11864   1.462   2.389   4.669 -0.8192  0.7679  0.3438
   8823SM  H17G11865   1.576   2.519   4.725  0.9341 -0.2207  0.5286
   8823SM  C18F11866   1.622   2.327   4.815 -0.0821 -0.6248  0.4434
   8823SM  H18F11867   1.725   2.353   4.846 -0.1274  0.8490 -0.5521
   8823SM  H18G11868   1.624   2.219   4.786 -2.7477 -1.0830  1.6326
   8823SM  C19F11869   1.535   2.330   4.945  0.5007 -0.3619  0.5027
   8823SM  H19F11870   1.425   2.324   4.935  0.5318  0.0392 -0.1045
   8823SM  H19G11871   1.551   2.434   4.982  1.4911 -0.6895  1.0365
   8823SM  C20F11872   1.587   2.250   5.068 -0.0728 -0.3484  0.1456
   8823SM  H20F11873   1.549   2.300   5.159  0.6579  0.5992 -0.0601
   8823SM  H20G11874   1.697   2.257   5.068 -0.1390  2.3981 -1.7941
   8823SM  C21F11875   1.538   2.107   5.064  0.8433 -0.4918  0.2155
   8823SM  H21F11876   1.546   2.052   4.968 -0.8578 -0.8989  0.2821
   8823SM  H21G11877   1.429   2.098   5.080  0.6988 -0.3126 -0.6395
   8823SM  C22F11878   1.617   2.025   5.167 -0.3288 -0.2738 -0.3233
   8823SM  H22F11879   1.605   2.073   5.266  1.1529 -0.1008 -0.2018
   8823SM  H22G11880   1.727   2.030   5.155 -0.2496 -3.3571 -1.9762
   8823SM  C23F11881   1.572   1.879   5.166 -0.7840  0.0361 -0.5518
   8823SM  H23F11882   1.591   1.828   5.263 -0.3519  0.0621 -0.6237
   8823SM  H23G11883   1.595   1.817   5.077  0.3437 -1.2801  0.6120
   8823SM  H23H11884   1.462   1.888   5.150 -0.5853  0.5819 -1.6759
   8923SM     N11885   6.380   1.876   2.305 -0.4759 -0.8066 -0.1958
   8923SM   C1511886   6.238   1.862   2.263  0.0013 -0.0095 -0.1440
   8923SM  H15A11887   6.221   1.875   2.157  1.2927  1.7600 -0.1753
   8923SM  H15B11888   6.178   1.939   2.308 -0.7490 -0.8821  0.3817
   8923SM  H15C11889   6.184   1.773   2.290 -0.4470  0.2831 -0.0645
   8923SM   C1411890   6.453   1.759   2.248 -0.0121  0.0565 -0.7276
   8923SM  H14A11891   6.558   1.782   2.253 -0.5358  2.7910 -0.7612
   8923SM  H14B11892   6.426   1.744   2.144 -2.2668 -0.3465 -0.1461
   8923SM  H14C11893   6.435   1.674   2.312 -0.0436  0.5625 -0.0608
   8923SM   C1311894   6.437   1.999   2.245 -0.0262 -0.8979  0.3953
   8923SM  H13A11895   6.374   2.085   2.257 -0.2792 -0.8276 -1.2068
   8923SM  H13B11896   6.442   1.979   2.139  0.4965 -1.1160  0.4578
   8923SM  H13C11897   6.527   2.022   2.301 -1.0099 -0.1972  1.7234
   8923SM   C1211898   6.399   1.893   2.454 -0.3934  0.6047  0.4988
   8923SM  H12A11899   6.371   1.994   2.484 -0.2595  0.0474  2.7079
   8923SM  H12B11900   6.504   1.877   2.473 -0.0106  0.4358 -1.5172
   8923SM   C1111901   6.322   1.796   2.543 -0.0002  0.1460 -0.1757
   8923SM  H11A11902   6.214   1.821   2.540 -0.6834 -1.9808  2.3875
   8923SM  H11B11903   6.352   1.814   2.648  0.3216 -1.2222 -0.0102
   8923SM     P11904   6.233   1.565   2.522  0.0326  0.0633 -0.0487
   8923SM   O1311905   6.130   1.608   2.425 -0.4490  0.3209  0.1790
   8923SM   O1411906   6.291   1.430   2.499  0.2317 -0.3968 -0.7725
   8923SM   O1111907   6.182   1.574   2.670 -0.1207  0.4440 -0.2535
   8923SM   O1211908   6.351   1.661   2.524 -0.5371  0.0502  0.6728
   8923SM   C1S11909   6.251   1.512   2.778 -0.0745  0.4590  0.5091
   8923SM   H1S11910   6.358   1.488   2.756  0.3335 -0.9222  3.5128
   8923SM   H1T11911   6.192   1.422   2.804 -1.7243  1.1458 -0.6943
   8923SM    NF11912   6.334   1.528   3.011  0.4172 -0.5130  0.7952
   8923SM   HNF11913   6.285   1.478   3.082 -1.4277 -0.6781 -0.5200
   8923SM   C2S11914   6.253   1.603   2.911  0.3827 -0.4022  0.4711
   8923SM   H2S11915   6.304   1.695   2.875 -1.9535  0.6708 -0.2959
   8923SM   C3S11916   6.103   1.634   2.949 -0.1295 -0.6880  0.2969
   8923SM   H3S11917   6.062   1.535   2.980  1.5392 -1.3832  0.3567
   8923SM    O311918   6.022   1.698   2.845 -0.1489  0.4283  0.5823
   8923SM   HO311919   6.078   1.701   2.767  1.3034 -1.5344  1.4332
   8923SM   C4S11920   6.109   1.708   3.082  0.5935 -0.9938  0.6831
   8923SM   H4S11921   6.122   1.633   3.162 -3.4498 -1.9226  0.6716
   8923SM   C5S11922   6.115   1.837   3.106  0.0417  0.5285 -0.5118
   8923SM   H5S11923   6.108   1.904   3.020  2.5082  1.5428 -0.0010
   8923SM   C6S11924   6.130   1.904   3.242 -0.1620 -0.3889  0.2491
   8923SM   H6S11925   6.037   1.953   3.277 -0.0646 -1.2041  1.7462
   8923SM   H6T11926   6.200   1.990   3.240 -1.5910  0.8469 -2.3302
   8923SM   C7S11927   6.169   1.820   3.371  0.4513  0.0603  0.2266
   8923SM   H7S11928   6.274   1.783   3.366  0.7321 -0.1553  4.4896
   8923SM   H7T11929   6.101   1.733   3.380  1.1255 -0.8100 -2.2479
   8923SM   C8S11930   6.158   1.914   3.492  0.0007  0.4118 -0.6278
   8923SM   H8S11931   6.051   1.944   3.491 -0.3271 -0.6651 -1.9086
   8923SM   H8T11932   6.212   2.010   3.475  3.4572 -0.5794  3.1997
   8923SM   C9S11933   6.206   1.862   3.622 -0.0718  0.2924 -0.1014
   8923SM   H9S11934   6.308   1.823   3.602 -0.1683  0.1807 -0.3830
   8923SM   H9T11935   6.146   1.773   3.649  0.7435 -0.5473 -0.9878
   8923SM  C10S11936   6.203   1.960   3.737  0.5232 -0.4050 -0.9026
   8923SM  H10S11937   6.095   1.984   3.751 -0.0725 -2.6362 -1.1994
   8923SM  H10T11938   6.262   2.053   3.721  0.7535  0.2102  2.6911
   8923SM  C11S11939   6.242   1.906   3.873  0.1375 -0.6387 -0.5594
   8923SM  H11S11940   6.342   1.858   3.870  0.2981 -0.4548  0.8846
   8923SM  H11T11941   6.156   1.838   3.891 -1.3017  0.9436 -1.1569
   8923SM  C12S11942   6.244   2.018   3.976  0.4201 -0.5465  0.1108
   8923SM  H12S11943   6.149   2.076   3.978  0.1075 -1.0296 -0.4910
   8923SM  H12T11944   6.334   2.080   3.960  1.5223 -1.4070  2.5094
   8923SM  C13S11945   6.264   1.956   4.118  0.1630  0.3402 -0.4388
   8923SM  H13S11946   6.342   1.878   4.109 -0.5855 -0.4604 -0.1776
   8923SM  H13T11947   6.168   1.907   4.145  1.1187 -1.7876 -0.7157
   8923SM  C14S11948   6.301   2.066   4.220 -0.2828  0.7411  0.3983
   8923SM  H14S11949   6.211   2.124   4.248 -0.5979 -0.4165  1.9072
   8923SM  H14T11950   6.376   2.138   4.181  1.6116 -1.5997 -0.5315
   8923SM  C15S11951   6.358   2.002   4.346 -0.0662  0.5340 -0.5683
   8923SM  H15S11952   6.461   1.967   4.322 -0.2923  0.2176 -1.1126
   8923SM  H15T11953   6.297   1.915   4.380  0.0174  0.0409 -1.6186
   8923SM  C16S11954   6.359   2.098   4.468 -0.9740 -0.1921 -0.8437
   8923SM  H16S11955   6.267   2.160   4.477 -0.2125  0.8363  0.0970
   8923SM  H16T11956   6.440   2.174   4.456 -0.1876 -0.8114  0.3768
   8923SM  C17S11957   6.396   2.035   4.606 -0.0542 -0.4569  0.1334
   8923SM  H17S11958   6.499   1.993   4.603  0.5898  1.1299 -1.8923
   8923SM  H17T11959   6.324   1.952   4.623 -0.9676  0.0587 -1.0993
   8923SM  C18S11960   6.397   2.129   4.730  0.5654  0.2416  0.5601
   8923SM  H18S11961   6.482   2.202   4.733  0.1854  0.8539 -1.9183
   8923SM  H18T11962   6.422   2.068   4.819  3.0095  0.3734  0.0343
   8923SM  H18U11963   6.302   2.182   4.753 -0.2607 -1.5854  1.5757
   8923SM   C1F11964   6.461   1.513   2.991 -0.2628  0.3886 -1.4092
   8923SM    OF11965   6.521   1.581   2.909 -0.3426  0.3628  0.6303
   8923SM   C2F11966   6.529   1.406   3.078 -0.3069 -0.5032  1.0940
   8923SM   H2F11967   6.609   1.368   3.011  0.1544  1.6178  0.3630
   8923SM   H2G11968   6.458   1.325   3.108 -0.2076 -0.4612  1.4554
   8923SM   C3F11969   6.581   1.460   3.207  0.3829  0.2411  0.2107
   8923SM   H3F11970   6.659   1.538   3.193 -0.7785  1.4318  0.2502
   8923SM   H3G11971   6.629   1.375   3.260 -0.5693  0.8813  2.2293
   8923SM   C4F11972   6.473   1.502   3.314 -0.5085  0.2846  0.6457
   8923SM   H4F11973   6.415   1.410   3.336  0.9153 -0.0419  3.5899
   8923SM   H4G11974   6.410   1.590   3.289  0.0786  0.5552  0.1042
   8923SM   C5F11975   6.542   1.542   3.449  0.2420  0.8086  0.1773
   8923SM   H5F11976   6.577   1.647   3.451 -2.2531  1.7567 -1.5581
   8923SM   H5G11977   6.628   1.475   3.471  0.4574  0.2739 -1.9737
   8923SM   C6F11978   6.442   1.536   3.572  0.4034  0.4043  0.1026
   8923SM   H6F11979   6.411   1.430   3.581  0.8971  0.2969  0.6215
   8923SM   H6G11980   6.356   1.601   3.544  0.4430  0.2931 -0.2874
   8923SM   C7F11981   6.513   1.590   3.694  0.2962  0.2957 -0.6135
   8923SM   H7F11982   6.536   1.697   3.676  0.4136  0.5631  0.9739
   8923SM   H7G11983   6.612   1.540   3.700  0.9200  1.1377 -3.0630
   8923SM   C8F11984   6.432   1.580   3.832  0.1302 -0.1715 -0.1558
   8923SM   H8F11985   6.391   1.477   3.840  0.0738 -0.1508 -0.1760
   8923SM   H8G11986   6.349   1.650   3.808  1.2573  0.6518 -1.8029
   8923SM   C9F11987   6.510   1.611   3.963  0.4816 -0.6502 -0.8986
   8923SM   H9F11988   6.570   1.704   3.954  1.8621 -1.4860 -0.5279
   8923SM   H9G11989   6.583   1.530   3.982 -0.3554 -1.0680  0.7444
   8923SM  C10F11990   6.418   1.604   4.086  0.1954 -0.1137  0.0573
   8923SM  H10F11991   6.394   1.497   4.101  2.3174 -0.5168  0.9514
   8923SM  H10G11992   6.329   1.669   4.069  0.6669  0.7549  0.7997
   8923SM  C11F11993   6.481   1.666   4.211  0.3233 -0.1295 -0.3002
   8923SM  H11F11994   6.418   1.679   4.301 -0.8017  0.9438 -1.2104
   8923SM  H11G11995   6.521   1.767   4.186  0.1270  0.0946  0.2978
   8923SM  C12F11996   6.612   1.584   4.266  0.7428  0.0768 -0.2468
   8923SM  H12F11997   6.679   1.569   4.178 -1.0437  2.3778 -2.1199
   8923SM  H12G11998   6.570   1.485   4.294  0.2957  0.8328  2.0101
   8923SM  C13F11999   6.695   1.647   4.378  0.5094  0.4410  0.4281
   8923SM  H13F12000   6.704   1.754   4.354 -0.4879  0.2171 -1.0225
   8923SM  H13G12001   6.796   1.600   4.367 -0.2931 -0.8306 -2.3779
   8923SM  C14F12002   6.651   1.619   4.520 -0.1395 -0.5594  0.4961
   8923SM  H14F12003   6.657   1.510   4.543 -1.7225 -0.8985 -0.5088
   8923SM  H14G12004   6.547   1.653   4.538 -0.8495 -2.2197 -0.2167
   8923SM  C15F12005   6.749   1.687   4.614 -0.0352 -0.3431  0.6389
   8923SM  H15F12006   6.731   1.795   4.597  2.5547  0.3227  1.7106
   8923SM  H15G12007   6.855   1.672   4.585 -0.0128  2.6779 -1.2699
   8923SM  C16F12008   6.722   1.669   4.762  0.1180  0.4454 -0.9115
   8923SM  H16F12009   6.742   1.572   4.812 -2.5867  0.4469  0.3560
   8923SM  H16G12010   6.612   1.683   4.769 -0.1315 -1.3530 -0.7681
   8923SM  C17F12011   6.803   1.782   4.839  0.3547  0.1130  0.2155
   8923SM  H17F12012   6.797   1.876   4.780  1.9313  0.4286  0.4993
   8923SM  H17G12013   6.910   1.751   4.831  0.2700 -0.2152  0.3386
   8923SM  C18F12014   6.750   1.807   4.980 -0.4501  0.5079 -0.9265
   8923SM  H18F12015   6.765   1.710   5.032  0.3906  0.1705 -1.7603
   8923SM  H18G12016   6.642   1.817   4.957 -0.5390 -0.8547 -1.1588
   8923SM  C19F12017   6.811   1.919   5.064 -0.5094 -0.5156 -0.4210
   8923SM  H19F12018   6.815   2.005   4.993 -0.9086  0.3206  0.5468
   8923SM  H19G12019   6.914   1.900   5.100 -0.5332  1.0077  0.5233
   8923SM  C20F12020   6.728   1.951   5.186 -0.1738 -0.5551 -0.2937
   8923SM  H20F12021   6.738   1.872   5.263 -1.3346 -0.6887 -0.2719
   8923SM  H20G12022   6.622   1.942   5.157 -0.5638 -0.9391  1.1570
   8923SM  C21F12023   6.755   2.089   5.255 -0.7980 -0.4905  0.2858
   8923SM  H21F12024   6.695   2.086   5.349  1.8231 -0.3824  2.0588
   8923SM  H21G12025   6.731   2.172   5.184  2.4131  0.0415 -0.3017
   8923SM  C22F12026   6.902   2.105   5.289 -0.2022  0.5010  0.0045
   8923SM  H22F12027   6.971   2.110   5.202 -0.3717  0.3237 -0.1384
   8923SM  H22G12028   6.925   2.024   5.361 -1.3051 -1.8212 -2.1434
   8923SM  C23F12029   6.912   2.245   5.356  0.4325  0.1874  0.0571
   8923SM  H23F12030   6.876   2.327   5.289 -0.9407 -1.2492 -1.0419
   8923SM  H23G12031   7.015   2.264   5.394  1.1073 -4.0673  0.8069
   8923SM  H23H12032   6.837   2.248   5.437 -1.4957 -0.3246 -1.6143
   9023SM     N12033   5.876   1.255   2.647  0.0849  0.2661  0.8735
   9023SM   C1512034   5.935   1.367   2.728  0.4136  0.0038 -0.2817
   9023SM  H15A12035   5.872   1.371   2.815  1.2340 -0.6740  0.3717
   9023SM  H15B12036   5.944   1.461   2.676  0.6958 -0.4560 -1.0766
   9023SM  H15C12037   6.033   1.339   2.766  1.2285  1.5792 -1.1319
   9023SM   C1412038   5.945   1.257   2.514  0.8119 -0.3641  0.0477
   9023SM  H14A12039   6.044   1.215   2.506  2.4224  2.7056  1.8412
   9023SM  H14B12040   5.958   1.360   2.484  1.6299 -0.4511  0.0901
   9023SM  H14C12041   5.883   1.216   2.436 -0.5047  1.6257 -0.0437
   9023SM   C1312042   5.910   1.127   2.701  0.0866  0.6823  0.3522
   9023SM  H13A12043   6.017   1.116   2.713  0.1799  1.1306 -0.0289
   9023SM  H13B12044   5.878   1.054   2.628 -2.6471  1.9491  0.1538
   9023SM  H13C12045   5.856   1.103   2.791  3.1701  0.3596  2.2891
   9023SM   C1212046   5.728   1.281   2.638 -0.4638  0.4597  0.2474
   9023SM  H12A12047   5.681   1.265   2.734  2.5928 -0.4107  1.7346
   9023SM  H12B12048   5.687   1.194   2.589  0.1929  0.2289  0.0950
   9023SM   C1112049   5.681   1.419   2.585 -0.0578  0.5269  0.3077
   9023SM  H11A12050   5.706   1.435   2.478  0.9005  1.0409  0.6000
   9023SM  H11B12051   5.728   1.491   2.655  0.2404 -2.1449  3.0645
   9023SM     P12052   5.460   1.537   2.656  0.3088  0.3736  0.3356
   9023SM   O1312053   5.459   1.646   2.550 -1.0259  0.0007  0.1988
   9023SM   O1412054   5.326   1.487   2.697 -0.2395 -0.1646  0.4095
   9023SM   O1112055   5.540   1.603   2.780  0.1636  0.4561  0.2183
   9023SM   O1212056   5.544   1.409   2.604 -0.6776  0.1529 -0.2245
   9023SM   C1S12057   5.544   1.530   2.906 -0.5154 -0.0047  0.1114
   9023SM   H1S12058   5.596   1.432   2.897 -1.6731 -0.6892  0.6315
   9023SM   H1T12059   5.447   1.509   2.955  0.4610  0.4563  2.3879
   9023SM    NF12060   5.677   1.515   3.116  0.2509 -0.3154  0.2616
   9023SM   HNF12061   5.635   1.540   3.203 -0.0638  0.1420 -0.0213
   9023SM   C2S12062   5.638   1.599   3.007  0.1101 -0.3461  0.5940
   9023SM   H2S12063   5.731   1.625   2.953 -0.0643  0.2921  0.5898
   9023SM   C3S12064   5.566   1.732   3.054  0.5301  0.3548  0.5798
   9023SM   H3S12065   5.478   1.707   3.118  0.1413  2.3850  0.9228
   9023SM    O312066   5.522   1.817   2.945  0.2342 -0.1839 -0.4424
   9023SM   HO312067   5.514   1.755   2.872  0.2050  0.8474 -1.3290
   9023SM   C4S12068   5.640   1.821   3.146 -0.4874 -0.1868 -0.1130
   9023SM   H4S12069   5.743   1.844   3.114 -0.1249 -1.3325  0.1685
   9023SM   C5S12070   5.602   1.868   3.268 -0.1736 -0.7196  0.7769
   9023SM   H5S12071   5.507   1.846   3.319 -0.9911 -2.5043 -1.3359
   9023SM   C6S12072   5.683   1.958   3.361  0.0349 -0.0804 -0.0512
   9023SM   H6S12073   5.644   2.062   3.363 -0.2914 -0.0520 -3.1256
   9023SM   H6T12074   5.790   1.955   3.332 -0.2423 -0.7650 -1.0758
   9023SM   C7S12075   5.667   1.884   3.498  0.2058  0.7182 -0.0421
   9023SM   H7S12076   5.715   1.784   3.493 -0.4925  0.3625  0.2701
   9023SM   H7T12077   5.560   1.861   3.518  0.0423  1.8032  0.3779
   9023SM   C8S12078   5.732   1.954   3.614 -0.7641  0.0787 -0.2030
   9023SM   H8S12079   5.675   2.049   3.622 -0.5209  0.0521  2.9790
   9023SM   H8T12080   5.831   1.990   3.578  0.2129  0.2161  2.4497
   9023SM   C9S12081   5.729   1.898   3.752 -0.1876  0.5379 -0.9788
   9023SM   H9S12082   5.797   1.810   3.758 -2.2999 -1.3010 -2.2518
   9023SM   H9T12083   5.622   1.870   3.770 -0.1180  1.5475  1.3064
   9023SM  C10S12084   5.772   2.001   3.866 -0.6710  0.4525 -0.1442
   9023SM  H10S12085   5.688   2.069   3.894 -0.0378  1.3387 -0.3353
   9023SM  H10T12086   5.864   2.048   3.825  1.6598 -2.5012  1.2752
   9023SM  C11S12087   5.814   1.941   4.001  0.0595  0.0872  0.2728
   9023SM  H11S12088   5.912   1.889   3.990  0.6183  0.9467  0.9945
   9023SM  H11T12089   5.744   1.861   4.032 -0.7661  0.2075 -1.1947
   9023SM  C12S12090   5.843   2.034   4.119  0.4205 -0.0438 -0.3366
   9023SM  H12S12091   5.740   2.072   4.141  0.6448  1.1104 -1.2108
   9023SM  H12T12092   5.893   2.130   4.096 -1.3156  1.4706  1.7323
   9023SM  C13S12093   5.897   1.970   4.251  0.4894 -0.3725  0.4449
   9023SM  H13S12094   6.005   1.952   4.235  0.7319  0.5460  0.9745
   9023SM  H13T12095   5.850   1.872   4.276  1.5136 -0.4886  2.0757
   9023SM  C14S12096   5.879   2.056   4.374 -0.4687  0.2173 -1.2763
   9023SM  H14S12097   5.773   2.073   4.402 -0.2713  0.1020 -0.4251
   9023SM  H14T12098   5.913   2.156   4.339 -1.3287  0.3380 -1.7970
   9023SM  C15S12099   5.950   1.996   4.497  0.0700 -0.1554  0.1706
   9023SM  H15S12100   6.058   1.997   4.470 -0.6204 -0.0979 -2.9924
   9023SM  H15T12101   5.904   1.896   4.506 -3.4670  0.8638 -3.4481
   9023SM  C16S12102   5.937   2.089   4.620  0.2400  0.5616  0.1248
   9023SM  H16S12103   5.829   2.112   4.633  0.1009 -0.1951  0.3383
   9023SM  H16T12104   5.982   2.190   4.606 -1.7674  1.8028  1.8935
   9023SM  C17S12105   6.008   2.036   4.746  0.7932 -0.4669 -1.2850
   9023SM  H17S12106   6.115   2.020   4.722  0.4179 -1.9015 -2.1135
   9023SM  H17T12107   5.951   1.944   4.773  0.7963  0.1532  1.0449
   9023SM  C18S12108   6.002   2.137   4.865  0.6083  0.1727 -0.0134
   9023SM  H18S12109   5.901   2.168   4.900 -0.3966 -0.2623 -2.3557
   9023SM  H18T12110   6.031   2.236   4.822 -2.0733  0.5867 -1.0588
   9023SM  H18U12111   6.070   2.118   4.951 -0.4533  0.8347  0.9948
   9023SM   C1F12112   5.774   1.422   3.110 -0.4723  0.1153  0.2594
   9023SM    OF12113   5.808   1.363   3.007  0.0447 -0.0105 -0.2221
   9023SM   C2F12114   5.838   1.387   3.235 -0.7216  0.3817 -0.7311
   9023SM   H2F12115   5.949   1.382   3.236 -0.5432  1.7909  3.5585
   9023SM   H2G12116   5.804   1.284   3.261 -0.6878  0.3146 -0.9495
   9023SM   C3F12117   5.807   1.470   3.361  0.1060  0.2424  0.1873
   9023SM   H3F12118   5.700   1.469   3.391  0.4980 -3.2300  2.0407
   9023SM   H3G12119   5.839   1.576   3.357 -0.8390  0.6925  2.9668
   9023SM   C4F12120   5.873   1.409   3.486 -0.9597  0.3408 -1.0452
   9023SM   H4F12121   5.979   1.388   3.464 -1.0913 -0.3576 -1.0323
   9023SM   H4G12122   5.829   1.310   3.512 -0.6667 -0.2984 -2.8453
   9023SM   C5F12123   5.857   1.504   3.608 -0.1178  0.8709 -0.4699
   9023SM   H5F12124   5.749   1.501   3.637  0.6835 -1.6509  2.8383
   9023SM   H5G12125   5.875   1.608   3.573  2.0539  0.6028 -0.2306
   9023SM   C6F12126   5.942   1.466   3.731 -0.4188 -0.3261 -0.3404
   9023SM   H6F12127   6.043   1.435   3.696  0.0239  0.7391 -0.0397
   9023SM   H6G12128   5.898   1.373   3.774 -0.5859  0.1413  0.5101
   9023SM   C7F12129   5.951   1.577   3.841  0.0504  0.2392  0.7410
   9023SM   H7F12130   5.849   1.620   3.850 -0.7991 -1.7426  1.0850
   9023SM   H7G12131   6.021   1.661   3.819  1.0788 -0.2805  1.9008
   9023SM   C8F12132   5.995   1.523   3.975  0.0824  0.1634  0.1939
   9023SM   H8F12133   6.101   1.488   3.972 -0.9804 -3.5587  0.4057
   9023SM   H8G12134   5.925   1.440   4.000  0.2659 -0.0243  0.0942
   9023SM   C9F12135   5.987   1.630   4.085  0.1434  0.0121  0.2630
   9023SM   H9F12136   5.881   1.648   4.114  0.0139 -1.3716  0.7433
   9023SM   H9G12137   6.029   1.727   4.052 -0.1124 -0.6721 -2.2829
   9023SM  C10F12138   6.064   1.581   4.211  0.3548  0.6970 -0.3834
   9023SM  H10F12139   6.173   1.572   4.190 -0.0552  0.4141 -2.6217
   9023SM  H10G12140   6.025   1.477   4.214  0.8761  0.5114  0.7086
   9023SM  C11F12141   6.038   1.648   4.343 -0.0086  0.9136  0.0918
   9023SM  H11F12142   5.934   1.624   4.374  0.9215 -2.3813  1.1769
   9023SM  H11G12143   6.046   1.755   4.317 -0.9401  0.8914 -0.3269
   9023SM  C12F12144   6.125   1.597   4.450 -0.2927  0.3378 -0.4012
   9023SM  H12F12145   6.234   1.605   4.435 -0.0167  0.0061  1.1976
   9023SM  H12G12146   6.108   1.488   4.465  0.5123  0.3048  0.3310
   9023SM  C13F12147   6.103   1.667   4.585  0.0254  0.4454 -0.2494
   9023SM  H13F12148   6.007   1.626   4.623  0.4198 -0.4892 -0.2324
   9023SM  H13G12149   6.107   1.778   4.574 -0.1576  0.7626  2.2660
   9023SM  C14F12150   6.219   1.636   4.673 -0.3108 -0.6980 -1.1762
   9023SM  H14F12151   6.314   1.666   4.624  0.2508  0.2774  0.4361
   9023SM  H14G12152   6.211   1.527   4.696 -4.1638  0.1092  2.4722
   9023SM  C15F12153   6.218   1.713   4.809  0.1326 -0.0648 -0.3688
   9023SM  H15F12154   6.114   1.702   4.848 -0.0696  0.4118 -0.7541
   9023SM  H15G12155   6.232   1.821   4.788  0.5382  0.4961  2.4915
   9023SM  C16F12156   6.336   1.686   4.902  0.0827 -0.5490  0.1807
   9023SM  H16F12157   6.429   1.734   4.866 -1.6526  0.6016 -3.2002
   9023SM  H16G12158   6.361   1.578   4.905  0.1363 -0.5636 -0.6654
   9023SM  C17F12159   6.316   1.726   5.049 -0.5036 -0.3960 -0.7663
   9023SM  H17F12160   6.402   1.691   5.110  0.2654  1.2513 -0.8578
   9023SM  H17G12161   6.221   1.680   5.083 -1.0124  0.8855 -0.3808
   9023SM  C18F12162   6.291   1.877   5.074 -0.6005 -0.3284  0.1248
   9023SM  H18F12163   6.194   1.903   5.027  0.7549  2.4937 -1.3518
   9023SM  H18G12164   6.361   1.938   5.014 -0.0329 -2.1905 -1.2038
   9023SM  C19F12165   6.319   1.926   5.218  0.1519 -0.5421  0.1188
   9023SM  H19F12166   6.429   1.925   5.236  0.8033  0.6339 -3.1186
   9023SM  H19G12167   6.259   1.858   5.282 -1.2405  0.0631 -0.5028
   9023SM  C20F12168   6.246   2.059   5.239  0.3919  0.0910  0.3054
   9023SM  H20F12169   6.138   2.034   5.239  0.4329 -0.0984  0.0039
   9023SM  H20G12170   6.265   2.128   5.154 -0.1827 -0.3978 -0.2257
   9023SM  C21F12171   6.289   2.126   5.362  0.2432 -0.2662 -0.1591
   9023SM  H21F12172   6.396   2.151   5.346  0.3150 -1.4526 -1.8353
   9023SM  H21G12173   6.289   2.057   5.449 -0.1598 -0.5942 -0.4166
   9023SM  C22F12174   6.213   2.257   5.384  0.6039  0.4744  0.0434
   9023SM  H22F12175   6.251   2.327   5.306 -0.6666 -0.3311 -1.3457
   9023SM  H22G12176   6.230   2.286   5.490 -3.2110 -1.0316  1.2347
   9023SM  C23F12177   6.056   2.267   5.376  0.3791 -0.2479 -0.4396
   9023SM  H23F12178   6.002   2.194   5.440  1.0699 -0.0571  0.3755
   9023SM  H23G12179   6.021   2.243   5.273 -0.9134 -2.8585  0.5054
   9023SM  H23H12180   6.029   2.370   5.406 -0.8082 -0.4977 -0.6024
   9123SM     N12181   0.355   5.198   2.215  0.4584 -0.0925  0.1273
   9123SM   C1512182   0.419   5.317   2.158 -0.1770 -0.3703 -0.7577
   9123SM  H15A12183   0.525   5.313   2.178 -0.3550  2.7479  1.5574
   9123SM  H15B12184   0.386   5.407   2.206  0.3533 -0.2430 -0.6249
   9123SM  H15C12185   0.415   5.318   2.050  0.4776 -0.5690 -0.7883
   9123SM   C1412186   0.208   5.199   2.185  0.2137  0.5584  0.5140
   9123SM  H14A12187   0.156   5.117   2.233 -0.5408  0.4060 -0.5338
   9123SM  H14B12188   0.195   5.197   2.078 -1.2335 -0.8414  0.6883
   9123SM  H14C12189   0.175   5.296   2.221 -0.6247 -0.1412  1.7120
   9123SM   C1312190   0.419   5.079   2.150 -0.0123 -0.4199 -0.3237
   9123SM  H13A12191   0.522   5.067   2.178 -0.6719 -0.2133  2.4968
   9123SM  H13B12192   0.412   5.088   2.043 -5.7803  0.8621 -0.2074
   9123SM  H13C12193   0.370   4.986   2.175 -0.6633 -1.0535 -3.5666
   9123SM   C1212194   0.374   5.197   2.367 -0.9783  0.3230  0.0687
   9123SM  H12A12195   0.479   5.173   2.378 -0.6758 -0.2474 -2.9786
   9123SM  H12B12196   0.308   5.122   2.409 -1.7329  0.4521 -0.8335
   9123SM   C1112197   0.346   5.327   2.444 -0.1810 -0.1973 -0.6208
   9123SM  H11A12198   0.314   5.300   2.547 -2.7581  0.0984 -1.2798
   9123SM  H11B12199   0.253   5.371   2.401 -1.0975 -0.2938  1.1786
   9123SM     P12200   0.578   5.404   2.555  0.3298 -0.3639 -0.2589
   9123SM   O1312201   0.648   5.275   2.538  0.3220  0.6567  0.0412
   9123SM   O1412202   0.660   5.524   2.547  0.1367 -0.2898 -0.3106
   9123SM   O1112203   0.494   5.403   2.691 -0.6068 -0.4370 -0.4049
   9123SM   O1212204   0.460   5.417   2.452 -0.3756  0.0902 -0.4796
   9123SM   C1S12205   0.491   5.285   2.770  0.1239  0.5079  0.1881
   9123SM   H1S12206   0.591   5.250   2.801 -0.3124  1.3149  2.7150
   9123SM   H1T12207   0.446   5.202   2.712 -1.2063  1.5830 -0.3854
   9123SM    NF12208   0.455   5.206   3.000  0.5425  0.6718  0.1135
   9123SM   HNF12209   0.403   5.121   3.004 -1.6292  1.9204 -0.2362
   9123SM   C2S12210   0.415   5.306   2.902  0.3391  0.4134 -0.8565
   9123SM   H2S12211   0.444   5.404   2.944  0.3624  0.2321 -0.4470
   9123SM   C3S12212   0.262   5.306   2.864 -0.3428 -0.2758 -0.6339
   9123SM   H3S12213   0.241   5.205   2.822 -1.1158 -1.7899  3.0183
   9123SM    O312214   0.235   5.411   2.772  0.0821  0.3501 -0.4259
   9123SM   HO312215   0.324   5.435   2.747  0.8261  0.9488  2.4916
   9123SM   C4S12216   0.169   5.328   2.980 -0.2546  0.1690 -0.2711
   9123SM   H4S12217   0.153   5.423   3.033  1.7241  1.4126 -1.7414
   9123SM   C5S12218   0.117   5.222   3.046 -0.3982  0.5474 -0.3328
   9123SM   H5S12219   0.154   5.120   3.030 -2.0232 -0.0589 -0.3525
   9123SM   C6S12220   0.029   5.226   3.168  0.4756  0.2727 -0.1907
   9123SM   H6S12221  -0.072   5.188   3.140  0.8311 -2.2114  1.5251
   9123SM   H6T12222   0.025   5.325   3.218 -1.3201 -0.2005  0.7213
   9123SM   C7S12223   0.074   5.132   3.289 -0.5936  0.7848 -0.0655
   9123SM   H7S12224   0.171   5.176   3.319 -0.7244  1.2408 -0.2856
   9123SM   H7T12225   0.074   5.024   3.265 -0.0620  0.4928  1.1795
   9123SM   C8S12226  -0.019   5.134   3.411  0.2575  0.6403  0.2620
   9123SM   H8S12227  -0.114   5.085   3.382  1.0421 -0.2797 -0.8977
   9123SM   H8T12228  -0.047   5.239   3.432 -1.7008 -0.0950  1.6097
   9123SM   C9S12229   0.043   5.059   3.531  0.2508  0.3257  0.7166
   9123SM   H9S12230   0.132   5.120   3.555  0.1733  1.1960 -1.0049
   9123SM   H9T12231   0.069   4.952   3.514 -1.1324 -0.0290  0.6758
   9123SM  C10S12232  -0.055   5.061   3.645  0.2205  0.7408 -0.0355
   9123SM  H10S12233  -0.130   4.979   3.648 -0.0674  1.0084 -0.0047
   9123SM  H10T12234  -0.110   5.157   3.651 -1.2667 -0.1625  1.4475
   9123SM  C11S12235   0.022   5.042   3.781  0.1048  0.4854  0.3565
   9123SM  H11S12236   0.107   5.113   3.773  0.2901  0.0818 -2.2714
   9123SM  H11T12237   0.076   4.945   3.783 -0.6259  0.0324 -0.8086
   9123SM  C12S12238  -0.060   5.071   3.902 -0.0630  0.7238 -0.1991
   9123SM  H12S12239  -0.151   5.007   3.899 -0.5350  1.2455  1.5784
   9123SM  H12T12240  -0.089   5.176   3.881  0.4885  0.8076 -0.5663
   9123SM  C13S12241   0.010   5.056   4.035  0.3345  0.6996  0.4215
   9123SM  H13S12242   0.102   5.114   4.053  0.8776  0.6475 -1.9560
   9123SM  H13T12243   0.055   4.955   4.031 -2.8121 -0.8416  0.2565
   9123SM  C14S12244  -0.098   5.063   4.147 -0.1360  0.0354 -0.3348
   9123SM  H14S12245  -0.166   4.976   4.139 -0.5223  0.3125 -0.1454
   9123SM  H14T12246  -0.156   5.156   4.128 -1.5653 -0.7453  0.0879
   9123SM  C15S12247  -0.034   5.065   4.287  0.4309  0.2159 -0.4270
   9123SM  H15S12248   0.060   5.123   4.272  1.2008 -1.1786 -1.2793
   9123SM  H15T12249  -0.005   4.971   4.338 -1.2054 -0.2124 -0.2385
   9123SM  C16S12250  -0.132   5.127   4.382 -0.7125  0.1033 -0.3296
   9123SM  H16S12251  -0.220   5.059   4.383 -0.4539 -0.2306  0.0310
   9123SM  H16T12252  -0.168   5.222   4.338  0.4917  0.4875 -0.4966
   9123SM  C17S12253  -0.067   5.152   4.516  0.7817 -0.4033 -0.2569
   9123SM  H17S12254   0.029   5.206   4.506  1.5558 -1.2689  1.9738
   9123SM  H17T12255  -0.060   5.048   4.555  0.7332 -0.5717 -0.6903
   9123SM  C18S12256  -0.161   5.234   4.607 -0.4993  0.1705  0.3445
   9123SM  H18S12257  -0.106   5.278   4.692 -1.1894 -2.8429  2.5336
   9123SM  H18T12258  -0.245   5.169   4.639 -1.4186  1.1274 -0.0616
   9123SM  H18U12259  -0.207   5.308   4.537 -1.0142  0.2484  0.7589
   9123SM   C1F12260   0.561   5.213   3.080  0.8217 -0.0888 -0.5066
   9123SM    OF12261   0.624   5.314   3.086  0.5056 -0.2366  0.0919
   9123SM   C2F12262   0.585   5.100   3.166 -0.5311  0.5075  0.4683
   9123SM   H2F12263   0.684   5.050   3.161 -1.7181 -2.1706  1.3738
   9123SM   H2G12264   0.516   5.022   3.126 -0.6916  0.9080 -0.0472
   9123SM   C3F12265   0.547   5.118   3.319  0.1007 -0.4168 -0.2895
   9123SM   H3F12266   0.447   5.166   3.328 -0.0897 -0.1985 -2.7145
   9123SM   H3G12267   0.621   5.195   3.349 -1.3619  1.5464 -1.4454
   9123SM   C4F12268   0.548   4.986   3.396 -0.2304  0.0056 -1.0396
   9123SM   H4F12269   0.653   4.948   3.401 -0.7516 -1.3527  0.4400
   9123SM   H4G12270   0.491   4.908   3.341  0.4643 -1.3560  0.0938
   9123SM   C5F12271   0.480   5.001   3.533  0.3491  0.2012 -0.3604
   9123SM   H5F12272   0.388   5.054   3.498  1.2834 -0.0753 -3.6086
   9123SM   H5G12273   0.533   5.067   3.604 -1.3545 -0.9277  2.0952
   9123SM   C6F12274   0.449   4.871   3.593  0.2405  0.3882  0.3930
   9123SM   H6F12275   0.545   4.829   3.629 -0.2202 -0.5073  0.6403
   9123SM   H6G12276   0.400   4.796   3.526 -0.2237 -1.3573  2.5376
   9123SM   C7F12277   0.354   4.881   3.713  0.0804  1.2335 -0.5101
   9123SM   H7F12278   0.256   4.911   3.669 -0.5763 -0.4377 -0.2543
   9123SM   H7G12279   0.399   4.953   3.784  1.1427 -0.0651  0.1854
   9123SM   C8F12280   0.352   4.744   3.785  0.7774  0.7081 -0.6483
   9123SM   H8F12281   0.455   4.716   3.817  1.6334  1.2837 -2.7223
   9123SM   H8G12282   0.321   4.667   3.710 -0.1572  0.3446  0.0948
   9123SM   C9F12283   0.251   4.739   3.901  0.6051 -0.8524  0.1916
   9123SM   H9F12284   0.148   4.740   3.860  0.1736 -2.4237  1.1543
   9123SM   H9G12285   0.263   4.827   3.967 -2.2124  0.4584 -0.8556
   9123SM  C10F12286   0.265   4.602   3.982  0.4836  0.8323 -1.2691
   9123SM  H10F12287   0.375   4.598   4.000  0.4114 -2.7417 -0.9319
   9123SM  H10G12288   0.240   4.513   3.919 -1.6932  0.0894  0.5248
   9123SM  C11F12289   0.179   4.598   4.111 -0.1491 -0.4624 -0.1280
   9123SM  H11F12290   0.215   4.509   4.167  2.1922 -0.0913 -0.9249
   9123SM  H11G12291   0.071   4.595   4.085 -0.2309  0.4613  0.0556
   9123SM  C12F12292   0.202   4.718   4.204 -0.7688 -0.1917  0.2846
   9123SM  H12F12293   0.142   4.806   4.171 -2.2875 -1.4813 -0.5861
   9123SM  H12G12294   0.308   4.748   4.194 -0.8422 -0.4932 -1.8630
   9123SM  C13F12295   0.187   4.683   4.357 -0.4330  0.5690  0.1721
   9123SM  H13F12296   0.085   4.642   4.368 -0.4214  0.6755  0.7091
   9123SM  H13G12297   0.200   4.775   4.418  1.7879  2.0899 -2.3299
   9123SM  C14F12298   0.291   4.577   4.412 -0.0385  0.0547  0.0464
   9123SM  H14F12299   0.392   4.615   4.390  0.3344 -0.9356 -0.0177
   9123SM  H14G12300   0.277   4.480   4.359 -1.6902  0.1147  0.3056
   9123SM  C15F12301   0.279   4.558   4.563  0.4783 -0.7683  0.0452
   9123SM  H15F12302   0.251   4.655   4.608  1.2871 -0.3829 -0.2541
   9123SM  H15G12303   0.382   4.532   4.597  1.0261  0.9533 -0.2170
   9123SM  C16F12304   0.181   4.442   4.599 -0.3488  0.7140 -0.0880
   9123SM  H16F12305   0.229   4.342   4.606  0.5095  1.0302 -1.2438
   9123SM  H16G12306   0.096   4.431   4.529 -2.0829 -0.7948  2.1281
   9123SM  C17F12307   0.115   4.465   4.735 -0.0147  0.6244  0.3431
   9123SM  H17F12308   0.076   4.569   4.731 -0.7624  0.3165 -0.5524
   9123SM  H17G12309   0.203   4.471   4.803  0.3085 -1.9336  0.2331
   9123SM  C18F12310   0.002   4.367   4.787  0.3235  0.3547  0.0671
   9123SM  H18F12311   0.047   4.268   4.810  0.5900  0.1870 -1.1327
   9123SM  H18G12312  -0.079   4.351   4.713  0.1250 -1.4090  0.6275
   9123SM  C19F12313  -0.058   4.410   4.926 -0.0957  0.2809  0.3446
   9123SM  H19F12314  -0.101   4.512   4.930 -1.6220 -0.3849  2.0907
   9123SM  H19G12315   0.037   4.422   4.983  0.7898  1.5600 -1.2852
   9123SM  C20F12316  -0.164   4.317   4.985  0.0176  0.0247  0.2195
   9123SM  H20F12317  -0.195   4.346   5.088 -0.3233 -0.0634  0.1425
   9123SM  H20G12318  -0.137   4.209   4.981  0.9146  0.2756 -1.4894
   9123SM  C21F12319  -0.288   4.327   4.901 -0.5555  0.8140 -0.0975
   9123SM  H21F12320  -0.266   4.292   4.798 -0.6972 -1.4563  0.5743
   9123SM  H21G12321  -0.311   4.435   4.906  1.2268  1.2479 -0.8159
   9123SM  C22F12322  -0.385   4.221   4.964  0.2502 -0.0434 -0.4393
   9123SM  H22F12323  -0.418   4.259   5.063 -0.5817 -0.9200 -0.3627
   9123SM  H22G12324  -0.330   4.128   4.990  1.9764 -0.1219 -3.7987
   9123SM  C23F12325  -0.511   4.198   4.877  0.0064 -0.3238  0.2183
   9123SM  H23F12326  -0.496   4.194   4.767  0.4450 -0.9062  0.2901
   9123SM  H23G12327  -0.583   4.279   4.901  0.7936  0.0313  1.4554
   9123SM  H23H12328  -0.564   4.103   4.899  1.0671 -0.8641  0.5017
   9223SM     N12329   5.366   0.910   2.166  0.1634  0.1276  0.1556
   9223SM   C1512330   5.321   0.897   2.020  0.0066  0.5490 -0.2889
   9223SM  H15A12331   5.274   0.988   1.984  4.0858  3.3158  0.6941
   9223SM  H15B12332   5.247   0.819   2.011 -0.3220  0.9083 -0.7326
   9223SM  H15C12333   5.400   0.876   1.949  1.4572 -0.7389  1.6141
   9223SM   C1412334   5.252   0.938   2.257 -0.3258  0.1868 -0.7484
   9223SM  H14A12335   5.288   0.972   2.353 -2.5664 -0.2647  0.3239
   9223SM  H14B12336   5.200   0.844   2.275  0.5640 -0.0050  1.1332
   9223SM  H14C12337   5.190   1.017   2.218 -0.7057 -0.1355 -0.8047
   9223SM   C1312338   5.432   0.784   2.207 -0.3877  0.3774  0.3351
   9223SM  H13A12339   5.517   0.762   2.143 -0.7685 -0.5774  0.1444
   9223SM  H13B12340   5.359   0.704   2.199 -1.0095  0.9780 -0.1372
   9223SM  H13C12341   5.479   0.790   2.304  1.7009 -0.0426 -0.6004
   9223SM   C1212342   5.472   1.020   2.190  0.2334  0.5078 -0.0472
   9223SM  H12A12343   5.442   1.115   2.150  2.7688  1.6927  0.6126
   9223SM  H12B12344   5.555   0.988   2.129  0.5916 -2.5392  1.8356
   9223SM   C1112345   5.533   1.052   2.331  0.1178  0.0980 -0.7463
   9223SM  H11A12346   5.443   1.068   2.394  0.8456  0.7364  0.1426
   9223SM  H11B12347   5.595   1.144   2.325  1.1319 -0.6359 -1.7497
   9223SM     P12348   5.623   0.917   2.539  0.0911 -0.0888  0.3325
   9223SM   O1312349   5.540   0.792   2.560 -0.0748  0.5036  0.4016
   9223SM   O1412350   5.763   0.915   2.576 -0.2486 -0.1557  0.4037
   9223SM   O1112351   5.558   1.039   2.621 -0.4666  0.2174  0.0825
   9223SM   O1212352   5.618   0.949   2.384  0.2563 -0.3089  0.4406
   9223SM   C1S12353   5.432   1.043   2.685 -0.5498 -0.7195  0.5436
   9223SM   H1S12354   5.354   0.990   2.627  0.2324  1.1109 -2.3681
   9223SM   H1T12355   5.405   1.151   2.681  0.5982 -0.4255  0.3722
   9223SM    NF12356   5.295   1.018   2.889  0.9968 -0.1815  0.4379
   9223SM   HNF12357   5.261   1.107   2.921  0.2387 -0.5236  0.6042
   9223SM   C2S12358   5.426   1.006   2.835 -0.5385  0.2553 -0.1348
   9223SM   H2S12359   5.463   0.901   2.844  1.5868  0.7049 -2.5693
   9223SM   C3S12360   5.532   1.099   2.905  0.1200  0.1207  0.2077
   9223SM   H3S12361   5.512   1.205   2.879 -0.0916 -0.0870 -0.5168
   9223SM    O312362   5.666   1.079   2.870  0.0903  0.4506 -0.4525
   9223SM   HO312363   5.663   1.026   2.790 -0.6375  1.2568 -0.9826
   9223SM   C4S12364   5.531   1.074   3.054  0.5461 -0.2749 -0.3229
   9223SM   H4S12365   5.546   0.974   3.097 -1.6678 -1.4447 -2.0372
   9223SM   C5S12366   5.504   1.181   3.136  0.2411 -0.0487  0.0551
   9223SM   H5S12367   5.495   1.283   3.095  1.2686 -0.2555 -0.7265
   9223SM   C6S12368   5.498   1.180   3.287  0.3476 -0.4316 -0.4202
   9223SM   H6S12369   5.392   1.176   3.321  1.0862 -0.4691  2.0894
   9223SM   H6T12370   5.548   1.269   3.331  0.3133 -0.1551 -0.9354
   9223SM   C7S12371   5.574   1.071   3.366 -0.6082  0.4721  0.1444
   9223SM   H7S12372   5.682   1.081   3.344 -1.0060  0.4772 -2.0320
   9223SM   H7T12373   5.536   0.967   3.353 -0.7574  0.0910  3.0908
   9223SM   C8S12374   5.554   1.088   3.523 -0.0273 -0.1940  0.5665
   9223SM   H8S12375   5.447   1.102   3.547 -0.2833 -0.6354 -0.2914
   9223SM   H8T12376   5.610   1.183   3.535 -0.5793  0.3021 -0.6827
   9223SM   C9S12377   5.611   0.978   3.609 -0.1840 -0.2512 -0.3671
   9223SM   H9S12378   5.714   0.956   3.573  0.4381  1.0215  0.5514
   9223SM   H9T12379   5.566   0.881   3.581  1.1405  0.1204 -4.4661
   9223SM  C10S12380   5.616   1.014   3.758  0.0092  0.3219 -0.0265
   9223SM  H10S12381   5.678   0.933   3.802  0.4117 -0.5324 -2.0743
   9223SM  H10T12382   5.520   1.006   3.813 -0.1292 -1.4826 -0.4646
   9223SM  C11S12383   5.681   1.155   3.783 -0.1884 -0.1958 -0.9736
   9223SM  H11S12384   5.625   1.242   3.743 -0.6456  0.5964  1.1976
   9223SM  H11T12385   5.774   1.147   3.723  0.4877 -1.5276  0.1692
   9223SM  C12S12386   5.730   1.167   3.934  1.0510  0.1962  0.9306
   9223SM  H12S12387   5.807   1.246   3.949 -1.4001  2.8518  0.4209
   9223SM  H12T12388   5.781   1.073   3.964  0.8325  0.1253  1.0817
   9223SM  C13S12389   5.618   1.177   4.038 -0.2291 -0.1497 -0.3117
   9223SM  H13S12390   5.552   1.087   4.038 -1.5742  0.7971 -0.2352
   9223SM  H13T12391   5.556   1.265   4.012  1.5821  0.7856 -1.6436
   9223SM  C14S12392   5.694   1.186   4.168 -0.2072 -0.9012 -0.6241
   9223SM  H14S12393   5.765   1.271   4.169  1.1633 -1.9125  2.4614
   9223SM  H14T12394   5.750   1.090   4.172 -3.2939 -2.9068 -1.7956
   9223SM  C15S12395   5.605   1.218   4.285 -0.0919  0.4644  0.3482
   9223SM  H15S12396   5.517   1.152   4.301 -1.1118  2.1151  2.0040
   9223SM  H15T12397   5.558   1.318   4.271  0.5337  0.6598 -0.4390
   9223SM  C16S12398   5.685   1.225   4.412 -0.2633 -0.0544  0.0082
   9223SM  H16S12399   5.608   1.254   4.487 -1.8125 -0.8269 -1.2207
   9223SM  H16T12400   5.764   1.303   4.413 -1.5897  1.3485 -0.4176
   9223SM  C17S12401   5.758   1.091   4.447 -0.1893 -0.3692  0.4142
   9223SM  H17S12402   5.833   1.073   4.367 -2.2949 -0.4716 -1.6423
   9223SM  H17T12403   5.688   1.006   4.434  2.0171 -2.2103 -0.2873
   9223SM  C18S12404   5.830   1.087   4.582  0.6197  0.2231 -0.9805
   9223SM  H18S12405   5.762   1.096   4.669  1.9449 -0.7171  0.1938
   9223SM  H18T12406   5.908   1.164   4.600 -0.8373  1.4583  0.4879
   9223SM  H18U12407   5.875   0.987   4.597  1.1301  0.8034  1.9980
   9223SM   C1F12408   5.216   0.918   2.865 -0.0349  0.2715 -0.5099
   9223SM    OF12409   5.253   0.823   2.799 -0.4184 -0.4504 -0.3093
   9223SM   C2F12410   5.077   0.931   2.919 -0.2758  0.2138  0.1831
   9223SM   H2F12411   5.026   0.832   2.916  0.4588 -0.1486 -1.2440
   9223SM   H2G12412   5.020   0.989   2.843 -0.4277 -0.1161  0.0442
   9223SM   C3F12413   5.065   1.002   3.055  0.5580 -0.0133  0.0599
   9223SM   H3F12414   4.958   1.016   3.084 -0.1723 -1.2253 -1.8738
   9223SM   H3G12415   5.112   1.103   3.046  0.0726  0.1828 -0.3691
   9223SM   C4F12416   5.152   0.946   3.170 -0.4367 -0.3284 -0.4363
   9223SM   H4F12417   5.254   0.930   3.129  0.1789  0.3490  0.7922
   9223SM   H4G12418   5.120   0.845   3.202  1.7601 -1.1182 -0.5717
   9223SM   C5F12419   5.159   1.049   3.282  0.8587  0.0301  0.1940
   9223SM   H5F12420   5.190   1.149   3.244  0.3265  0.2298  0.2730
   9223SM   H5G12421   5.238   1.024   3.356  0.6580 -0.4806  0.2379
   9223SM   C6F12422   5.030   1.058   3.367  0.8195  0.6581 -0.4376
   9223SM   H6F12423   4.978   0.963   3.391  1.2311  0.5310 -0.0365
   9223SM   H6G12424   4.948   1.114   3.316 -1.1709 -2.3451 -0.7767
   9223SM   C7F12425   5.036   1.131   3.506  0.5096  0.3904 -0.5688
   9223SM   H7F12426   4.935   1.125   3.551  0.8365  0.7290  0.2212
   9223SM   H7G12427   5.054   1.238   3.481  3.4441 -0.2222 -1.4804
   9223SM   C8F12428   5.139   1.084   3.607 -0.7365 -0.1276 -0.2327
   9223SM   H8F12429   5.243   1.117   3.586 -1.6552  3.0577 -0.3510
   9223SM   H8G12430   5.136   0.976   3.632  0.4981  0.2364  1.7173
   9223SM   C9F12431   5.113   1.157   3.742 -0.8168  0.0694 -0.6481
   9223SM   H9F12432   5.021   1.132   3.800  0.3496  0.3621  1.4152
   9223SM   H9G12433   5.114   1.262   3.703 -1.7441  1.2386  2.2337
   9223SM  C10F12434   5.233   1.140   3.838 -0.0197 -0.1561 -0.3327
   9223SM  H10F12435   5.329   1.138   3.783 -0.2267 -0.0157 -0.7070
   9223SM  H10G12436   5.217   1.035   3.871  1.7151 -0.5462 -0.6507
   9223SM  C11F12437   5.233   1.230   3.957 -0.3509  0.0227 -0.0901
   9223SM  H11F12438   5.238   1.336   3.925  0.7753 -0.2867 -1.0094
   9223SM  H11G12439   5.319   1.222   4.027 -0.7006  1.8009  0.6015
   9223SM  C12F12440   5.109   1.196   4.050 -0.5084 -0.2529 -0.5113
   9223SM  H12F12441   5.115   1.091   4.086  0.4698  0.0592  0.2866
   9223SM  H12G12442   5.014   1.211   3.995 -0.5811  4.6115  0.5510
   9223SM  C13F12443   5.113   1.275   4.181 -0.2533 -0.1113  0.0547
   9223SM  H13F12444   5.130   1.381   4.152 -0.8687 -0.4417 -1.6889
   9223SM  H13G12445   5.207   1.238   4.227  0.9472  1.4380 -1.0343
   9223SM  C14F12446   4.989   1.266   4.270  0.6979 -0.2753 -0.6068
   9223SM  H14F12447   4.987   1.160   4.304  1.0332 -0.6181 -1.6217
   9223SM  H14G12448   4.898   1.283   4.210  0.3589  1.0198  0.2390
   9223SM  C15F12449   5.002   1.361   4.395 -0.1079 -0.1928 -0.4902
   9223SM  H15F12450   4.907   1.342   4.449  1.7210 -1.0915  2.6633
   9223SM  H15G12451   5.019   1.463   4.357  3.4452 -0.1778  0.7827
   9223SM  C16F12452   5.120   1.329   4.489  0.2745 -0.0499 -0.5125
   9223SM  H16F12453   5.205   1.378   4.437 -0.1825  1.3813  0.0315
   9223SM  H16G12454   5.137   1.220   4.498  2.1656  0.1905 -0.8773
   9223SM  C17F12455   5.108   1.398   4.629  0.4300 -0.1763  0.0116
   9223SM  H17F12456   5.010   1.371   4.675  0.0202  0.7049 -0.3217
   9223SM  H17G12457   5.113   1.509   4.632  0.3648 -0.1458 -0.8034
   9223SM  C18F12458   5.226   1.365   4.722  0.0781  0.7114  0.2222
   9223SM  H18F12459   5.230   1.259   4.753  1.1757  1.4559  2.8555
   9223SM  H18G12460   5.200   1.428   4.809 -0.6242  0.0052  0.5262
   9223SM  C19F12461   5.368   1.406   4.659 -0.0899 -0.0025 -0.0495
   9223SM  H19F12462   5.368   1.517   4.649 -0.1022  0.2749  2.3788
   9223SM  H19G12463   5.377   1.349   4.564  0.5766  0.5017 -0.3043
   9223SM  C20F12464   5.489   1.377   4.737 -0.3779  0.5501 -0.6640
   9223SM  H20F12465   5.575   1.421   4.683  0.1472  0.8350  0.3826
   9223SM  H20G12466   5.500   1.267   4.744 -2.8945  0.2461 -0.2249
   9223SM  C21F12467   5.491   1.436   4.883  0.9300  0.2203  0.3803
   9223SM  H21F12468   5.587   1.413   4.934  1.2399 -0.0257 -0.2929
   9223SM  H21G12469   5.411   1.369   4.923  0.2882 -1.4858 -3.2842
   9223SM  C22F12470   5.441   1.582   4.888 -0.4843 -0.1239  0.1162
   9223SM  H22F12471   5.341   1.592   4.839  0.3347  1.1440 -1.4244
   9223SM  H22G12472   5.504   1.648   4.824 -0.5261 -0.3474 -0.1565
   9223SM  C23F12473   5.437   1.641   5.030  0.1050  0.4430 -0.3187
   9223SM  H23F12474   5.532   1.635   5.089 -1.4900 -1.3612  2.2766
   9223SM  H23G12475   5.361   1.578   5.081  2.1297 -1.0359  1.0242
   9223SM  H23H12476   5.403   1.746   5.025 -0.0577  0.4838  1.0875
   9323SM     N12477   0.554   4.759   2.628 -0.2812 -0.5891 -0.0172
   9323SM   C1512478   0.479   4.668   2.718 -0.3825  0.8397  0.9173
   9323SM  H15A12479   0.490   4.685   2.824 -2.2241 -2.1902  1.7046
   9323SM  H15B12480   0.529   4.574   2.704  1.1222  1.8814 -1.3971
   9323SM  H15C12481   0.377   4.654   2.684  0.8521 -0.0742 -2.9062
   9323SM   C1412482   0.699   4.754   2.660  0.8154 -0.6701 -0.8799
   9323SM  H14A12483   0.754   4.801   2.579  1.4068  0.9447  0.3989
   9323SM  H14B12484   0.733   4.651   2.658  0.4938 -0.7936 -3.6577
   9323SM  H14C12485   0.714   4.798   2.758 -0.6255  0.7428 -1.2551
   9323SM   C1312486   0.533   4.720   2.485  0.3386  0.3465  0.6918
   9323SM  H13A12487   0.578   4.623   2.469 -2.4973 -1.2866  1.7180
   9323SM  H13B12488   0.572   4.794   2.417 -2.5093  2.4566  1.1438
   9323SM  H13C12489   0.428   4.701   2.468  0.9302 -1.2006 -1.6759
   9323SM   C1212490   0.499   4.902   2.658 -0.2190 -0.5165  0.2105
   9323SM  H12A12491   0.553   4.971   2.595 -0.7171  0.4510  0.8283
   9323SM  H12B12492   0.519   4.913   2.763  2.0751 -1.0545 -0.1095
   9323SM   C1112493   0.349   4.933   2.633  0.2503 -0.7824  0.6738
   9323SM  H11A12494   0.332   5.039   2.662  2.6482  0.4781 -1.9677
   9323SM  H11B12495   0.296   4.860   2.697 -0.5637 -0.6250  0.1960
   9323SM     P12496   0.200   4.846   2.431  0.2737  0.0048  0.2844
   9323SM   O1312497   0.159   4.905   2.307  0.1947 -0.7637  0.7384
   9323SM   O1412498   0.240   4.704   2.422  0.1184  0.1306 -0.0587
   9323SM   O1112499   0.077   4.884   2.530 -0.4021  0.2298 -0.1123
   9323SM   O1212500   0.324   4.926   2.491  0.5872  0.5024  0.5990
   9323SM   C1S12501   0.023   5.016   2.539  0.1742 -0.5168  0.5638
   9323SM   H1S12502  -0.028   5.045   2.444  1.4788  0.8434  0.2403
   9323SM   H1T12503   0.103   5.089   2.566  0.9595 -0.4311 -1.7586
   9323SM    NF12504  -0.180   5.140   2.621  0.0315 -0.0962 -0.0663
   9323SM   HNF12505  -0.159   5.227   2.666  0.3260 -0.1488 -0.0977
   9323SM   C2S12506  -0.095   5.021   2.646 -0.6091 -0.1276 -1.0334
   9323SM   H2S12507  -0.149   4.924   2.635  1.8523 -1.7599  0.2919
   9323SM   C3S12508  -0.026   5.017   2.788 -0.5974  0.2696 -0.1838
   9323SM   H3S12509   0.036   5.108   2.802 -0.0579 -0.0641 -0.3775
   9323SM    O312510   0.073   4.911   2.790 -0.3911 -0.2960  0.0634
   9323SM   HO312511   0.090   4.887   2.699  1.7562 -0.5868  0.4901
   9323SM   C4S12512  -0.126   5.003   2.902  0.0665  0.1769  0.5415
   9323SM   H4S12513  -0.178   5.100   2.908 -0.1681  0.0123  1.3976
   9323SM   C5S12514  -0.162   4.900   2.981  0.7251  0.0687 -0.0858
   9323SM   H5S12515  -0.106   4.806   2.983  3.3361  1.4875  2.9540
   9323SM   C6S12516  -0.265   4.917   3.088  0.1388 -0.7942 -0.1113
   9323SM   H6S12517  -0.362   4.870   3.063 -0.2240 -1.1202  1.7474
   9323SM   H6T12518  -0.280   5.026   3.102  0.6922 -0.8863  1.4633
   9323SM   C7S12519  -0.212   4.860   3.217  0.0840  0.2461 -0.6021
   9323SM   H7S12520  -0.285   4.884   3.298  2.2756  0.1997  1.5083
   9323SM   H7T12521  -0.114   4.906   3.243  0.0355  1.3954 -2.2977
   9323SM   C8S12522  -0.188   4.712   3.231 -0.2477 -0.2901 -0.2589
   9323SM   H8S12523  -0.112   4.675   3.159  0.9903 -1.5666  1.5732
   9323SM   H8T12524  -0.273   4.652   3.193  0.8576 -1.1241 -1.5332
   9323SM   C9S12525  -0.133   4.668   3.367  0.3319  0.7260 -0.1437
   9323SM   H9S12526  -0.030   4.704   3.391  0.8723 -1.1474  0.4906
   9323SM   H9T12527  -0.118   4.558   3.368 -0.5421  0.6019  0.9897
   9323SM  C10S12528  -0.211   4.691   3.498 -0.3603 -0.8846  0.3210
   9323SM  H10S12529  -0.317   4.655   3.494 -0.4799 -0.6220  0.9229
   9323SM  H10T12530  -0.216   4.802   3.502 -2.4366 -0.7842 -2.2033
   9323SM  C11S12531  -0.147   4.637   3.631 -0.4257  0.2332 -0.2462
   9323SM  H11S12532  -0.053   4.693   3.651  0.0714 -0.7244  0.1663
   9323SM  H11T12533  -0.117   4.531   3.621 -2.8212 -0.3662 -2.0892
   9323SM  C12S12534  -0.230   4.647   3.760 -0.2022 -0.0179 -0.0174
   9323SM  H12S12535  -0.310   4.571   3.755  0.8889 -1.1478 -0.9994
   9323SM  H12T12536  -0.259   4.754   3.765  0.0431  0.0124  1.1482
   9323SM  C13S12537  -0.147   4.628   3.887 -0.1749 -0.2437 -0.2563
   9323SM  H13S12538  -0.094   4.719   3.922 -1.3964  0.0550  0.9322
   9323SM  H13T12539  -0.072   4.547   3.874 -1.5114 -1.5405 -0.2191
   9323SM  C14S12540  -0.237   4.582   3.999  0.1816 -0.1467 -0.2945
   9323SM  H14S12541  -0.172   4.557   4.085  2.0715  0.7490 -1.3970
   9323SM  H14T12542  -0.293   4.489   3.978  1.8126 -1.2380  0.0715
   9323SM  C15S12543  -0.345   4.690   4.028  0.0538 -0.4715  0.0650
   9323SM  H15S12544  -0.304   4.793   4.033 -1.3224  0.0832  0.4360
   9323SM  H15T12545  -0.418   4.693   3.944  0.5262  2.3919 -0.3588
   9323SM  C16S12546  -0.411   4.677   4.164  1.0017 -0.1907 -0.5661
   9323SM  H16S12547  -0.340   4.707   4.244  0.1678  1.3678 -0.3694
   9323SM  H16T12548  -0.424   4.569   4.186 -2.0889 -0.2054 -1.9460
   9323SM  C17S12549  -0.544   4.747   4.182 -0.2668 -0.9573  0.0439
   9323SM  H17S12550  -0.606   4.715   4.095 -0.1964  2.5923 -1.5210
   9323SM  H17T12551  -0.532   4.857   4.167 -0.7721 -1.0712 -1.3695
   9323SM  C18S12552  -0.618   4.737   4.317 -0.2281  0.1398  0.0816
   9323SM  H18S12553  -0.581   4.806   4.396 -1.4100  0.5668  0.2802
   9323SM  H18T12554  -0.626   4.632   4.352  0.2353  0.4095  1.0552
   9323SM  H18U12555  -0.721   4.773   4.296  0.0782  1.1837  0.3297
   9323SM   C1F12556  -0.272   5.129   2.522 -0.0484 -0.1747 -0.2303
   9323SM    OF12557  -0.293   5.029   2.459  0.0004  0.6229 -0.0826
   9323SM   C2F12558  -0.351   5.261   2.504 -0.1594 -0.5297  0.4168
   9323SM   H2F12559  -0.316   5.303   2.408  0.8372  1.2335  1.4898
   9323SM   H2G12560  -0.319   5.333   2.582  1.0098 -1.8802  1.2382
   9323SM   C3F12561  -0.508   5.244   2.511 -0.1462 -0.4164 -0.3155
   9323SM   H3F12562  -0.549   5.173   2.436  1.2544 -0.0853 -1.4345
   9323SM   H3G12563  -0.543   5.347   2.484  1.7844 -0.2372 -2.4765
   9323SM   C4F12564  -0.549   5.198   2.648  0.1924  0.2802 -0.0205
   9323SM   H4F12565  -0.500   5.103   2.677  0.1833  0.5699  0.9568
   9323SM   H4G12566  -0.659   5.183   2.647  0.1183  0.7762  0.5152
   9323SM   C5F12567  -0.534   5.307   2.755 -0.1573  0.3899  0.1072
   9323SM   H5F12568  -0.594   5.395   2.723 -2.5625 -1.3825 -0.4838
   9323SM   H5G12569  -0.424   5.327   2.756 -0.0655 -0.1237  0.3447
   9323SM   C6F12570  -0.573   5.259   2.894  0.1670 -0.5737 -0.7691
   9323SM   H6F12571  -0.527   5.159   2.911  0.3449 -0.7474 -2.1183
   9323SM   H6G12572  -0.682   5.244   2.904 -0.0246  1.3238  0.4127
   9323SM   C7F12573  -0.547   5.360   3.003  0.2378 -0.7957  0.1867
   9323SM   H7F12574  -0.587   5.460   2.975  1.6337 -0.7398 -1.7259
   9323SM   H7G12575  -0.437   5.366   3.013  0.1392  0.5225  0.6495
   9323SM   C8F12576  -0.582   5.328   3.156  0.1785  0.3661  0.7553
   9323SM   H8F12577  -0.558   5.221   3.168  0.6443  0.4003  0.1470
   9323SM   H8G12578  -0.693   5.327   3.166  0.0799 -2.2893  0.1192
   9323SM   C9F12579  -0.508   5.418   3.260  0.0209  0.2522  0.6732
   9323SM   H9F12580  -0.540   5.520   3.228 -0.3687  0.4292  1.5658
   9323SM   H9G12581  -0.397   5.410   3.262 -0.0372 -2.1908 -1.2032
   9323SM  C10F12582  -0.559   5.413   3.405 -0.1981  0.2082 -0.4679
   9323SM  H10F12583  -0.518   5.500   3.460 -0.5945 -1.1994  2.2443
   9323SM  H10G12584  -0.516   5.317   3.441 -0.9339 -0.4334 -1.2704
   9323SM  C11F12585  -0.709   5.431   3.427  0.7477  0.8900 -0.0331
   9323SM  H11F12586  -0.767   5.347   3.384 -1.1795  1.6955  0.8974
   9323SM  H11G12587  -0.762   5.513   3.373 -0.8667 -0.6971 -0.9383
   9323SM  C12F12588  -0.747   5.462   3.569 -0.7460  0.6026 -0.3244
   9323SM  H12F12589  -0.732   5.569   3.596 -1.9735  0.4499  1.1692
   9323SM  H12G12590  -0.677   5.411   3.638  0.0672  1.4534 -0.4952
   9323SM  C13F12591  -0.888   5.420   3.599 -0.8909 -0.3821 -0.3376
   9323SM  H13F12592  -0.904   5.317   3.561  0.3682 -0.7094 -0.0310
   9323SM  H13G12593  -0.963   5.480   3.543  0.3567  1.9334  0.3403
   9323SM  C14F12594  -0.915   5.427   3.749  0.0337  0.4015  0.4290
   9323SM  H14F12595  -0.860   5.353   3.811 -0.8312  0.3152  1.0950
   9323SM  H14G12596  -1.022   5.404   3.765  0.1526  0.3965  1.2594
   9323SM  C15F12597  -0.888   5.564   3.817 -0.3965  0.1448 -0.1469
   9323SM  H15F12598  -0.927   5.643   3.749  1.6766  1.2695 -0.1270
   9323SM  H15G12599  -0.778   5.574   3.827 -0.2047 -0.3704 -1.5305
   9323SM  C16F12600  -0.972   5.587   3.944 -0.1853 -0.0542  0.3863
   9323SM  H16F12601  -1.080   5.566   3.931 -0.1495  0.2057 -0.3645
   9323SM  H16G12602  -0.952   5.693   3.969  0.7507 -0.2128  0.3479
   9323SM  C17F12603  -0.921   5.498   4.059  0.5913  0.3879  0.6412
   9323SM  H17F12604  -0.814   5.503   4.089  1.4027 -1.5750 -1.6231
   9323SM  H17G12605  -0.948   5.395   4.029  2.2067 -0.7428  2.8130
   9323SM  C18F12606  -1.008   5.527   4.188 -0.3662 -0.3146  0.3361
   9323SM  H18F12607  -1.106   5.477   4.174 -0.7600  0.4148  0.4832
   9323SM  H18G12608  -1.024   5.637   4.193 -2.3612 -0.5516 -0.0329
   9323SM  C19F12609  -0.930   5.490   4.317  0.0850  0.1310 -0.0032
   9323SM  H19F12610  -0.985   5.501   4.413  3.7786  0.0617  2.2782
   9323SM  H19G12611  -0.830   5.536   4.319  0.4460 -0.6343  0.0152
   9323SM  C20F12612  -0.895   5.338   4.317  0.5568 -0.6494 -0.0986
   9323SM  H20F12613  -0.850   5.302   4.221  0.5577  1.6246 -1.0028
   9323SM  H20G12614  -0.987   5.277   4.334  0.1265  0.3136  1.1617
   9323SM  C21F12615  -0.800   5.301   4.423 -0.0602  0.2281 -0.3230
   9323SM  H21F12616  -0.827   5.340   4.524 -1.8617 -0.2407 -0.5798
   9323SM  H21G12617  -0.703   5.347   4.396 -0.6031  0.2574 -2.4620
   9323SM  C22F12618  -0.770   5.152   4.447  0.0241 -0.2822  0.3805
   9323SM  H22F12619  -0.720   5.118   4.354  0.7525  3.0927 -0.5964
   9323SM  H22G12620  -0.868   5.100   4.460 -0.4694  0.8173  1.1769
   9323SM  C23F12621  -0.685   5.128   4.573 -0.3625  0.0778 -0.0095
   9323SM  H23F12622  -0.725   5.171   4.667  0.0503  0.2921  0.0723
   9323SM  H23G12623  -0.602   5.185   4.525  1.1097 -3.2812 -1.8174
   9323SM  H23H12624  -0.656   5.021   4.557 -1.3067  0.0455 -1.7846
   9423SM     N12625   4.750   6.675   2.549 -0.1944  0.0861 -0.5898
   9423SM   C1512626   4.781   6.610   2.419  0.5452 -0.5733 -0.4187
   9423SM  H15A12627   4.875   6.648   2.380  0.5522  0.5100  0.5883
   9423SM  H15B12628   4.706   6.637   2.345  1.5677  0.2417 -1.2013
   9423SM  H15C12629   4.793   6.504   2.430  1.4126 -0.6964 -2.1257
   9423SM   C1412630   4.730   6.821   2.537  0.1908  0.2893  0.4314
   9423SM  H14A12631   4.681   6.857   2.627 -2.9179 -2.2117 -0.0976
   9423SM  H14B12632   4.678   6.831   2.443  0.8532 -0.1931  0.0078
   9423SM  H14C12633   4.821   6.876   2.518  0.1059 -0.0353 -1.0132
   9423SM   C1312634   4.628   6.608   2.605 -0.2624  0.3879  0.3075
   9423SM  H13A12635   4.541   6.648   2.555  0.4964  1.1081 -0.4838
   9423SM  H13B12636   4.607   6.640   2.706  0.5113  2.1284 -0.0344
   9423SM  H13C12637   4.628   6.501   2.597 -0.6489  0.3759  0.4863
   9423SM   C1212638   4.860   6.664   2.656 -0.5199 -0.1624  0.7485
   9423SM  H12A12639   4.861   6.564   2.696  1.0574 -0.5205 -0.0852
   9423SM  H12B12640   4.826   6.719   2.742 -0.8013  0.4907  0.2264
   9423SM   C1112641   5.012   6.704   2.632  0.6695  0.5429  0.1783
   9423SM  H11A12642   5.057   6.636   2.557  2.7836  2.4961 -0.4642
   9423SM  H11B12643   5.060   6.671   2.726 -0.9077 -2.0017  0.1836
   9423SM     P12644   5.158   6.908   2.571  0.2300 -0.2176  0.1429
   9423SM   O1312645   5.242   6.818   2.485  0.5441  0.1731  0.2032
   9423SM   O1412646   5.141   7.053   2.526  0.2804  0.1243 -0.0758
   9423SM   O1112647   5.208   6.902   2.721 -0.1062  0.4241  0.4364
   9423SM   O1212648   5.022   6.839   2.589 -0.4867  0.5856  0.3741
   9423SM   C1S12649   5.131   6.963   2.827 -0.3799 -0.0932  0.1305
   9423SM   H1S12650   5.027   6.924   2.823 -0.2315 -0.4176 -0.8193
   9423SM   H1T12651   5.122   7.073   2.812 -1.2634 -0.2084 -0.2654
   9423SM    NF12652   5.115   6.952   3.071  0.3332 -0.2123  0.3830
   9423SM   HNF12653   5.131   7.043   3.108 -0.7190  0.8332 -1.5636
   9423SM   C2S12654   5.201   6.932   2.962  0.5768 -0.8216  0.0690
   9423SM   H2S12655   5.223   6.823   2.959 -1.5921 -1.3442  0.9959
   9423SM   C3S12656   5.332   7.017   2.984 -0.1142 -0.1583 -0.1720
   9423SM   H3S12657   5.291   7.120   2.983 -1.6398 -0.7187 -2.2241
   9423SM    O312658   5.426   7.010   2.877 -0.0351 -0.2017  0.4123
   9423SM   HO312659   5.381   6.968   2.803 -0.3609 -0.2314  0.6212
   9423SM   C4S12660   5.398   6.975   3.117 -0.4100  0.5508  0.6237
   9423SM   H4S12661   5.452   6.880   3.128  0.0041  0.5514 -1.1474
   9423SM   C5S12662   5.402   7.050   3.227  0.6090 -0.4404  0.6718
   9423SM   H5S12663   5.339   7.140   3.223  1.4780  0.1537 -1.7649
   9423SM   C6S12664   5.464   7.017   3.359  0.1014 -0.3812  0.4177
   9423SM   H6S12665   5.516   7.105   3.402  1.1904 -1.3340  1.1238
   9423SM   H6T12666   5.550   6.947   3.348 -0.6520 -1.7142  2.3951
   9423SM   C7S12667   5.362   6.967   3.466  0.1456 -0.4617  0.0771
   9423SM   H7S12668   5.411   6.935   3.560 -1.4145 -0.9213  0.7513
   9423SM   H7T12669   5.314   6.877   3.422  0.1344  0.8840 -2.9681
   9423SM   C8S12670   5.248   7.059   3.495  0.3808  0.0651 -0.4557
   9423SM   H8S12671   5.173   7.065   3.413  1.5611  0.3103 -1.5529
   9423SM   H8T12672   5.278   7.165   3.512 -1.2838  0.6739 -1.0557
   9423SM   C9S12673   5.165   7.009   3.612 -0.6569  0.2475 -0.1289
   9423SM   H9S12674   5.231   6.965   3.690 -1.8977  1.0783  1.4474
   9423SM   H9T12675   5.101   6.925   3.578  0.2751 -0.6594  0.2992
   9423SM  C10S12676   5.081   7.121   3.676 -0.0367  0.2748 -0.0613
   9423SM  H10S12677   5.005   7.061   3.730 -2.2112  0.7354 -2.3809
   9423SM  H10T12678   5.029   7.169   3.591  1.6102  2.8149  0.2775
   9423SM  C11S12679   5.148   7.229   3.754  0.1329 -0.4601  0.3679
   9423SM  H11S12680   5.074   7.305   3.788  0.3541 -0.7976  1.6380
   9423SM  H11T12681   5.225   7.283   3.696 -1.8299 -1.5796 -3.6600
   9423SM  C12S12682   5.225   7.176   3.877  0.2071 -0.3919 -0.2294
   9423SM  H12S12683   5.268   7.270   3.916 -0.5646  0.0523 -0.4306
   9423SM  H12T12684   5.311   7.116   3.840 -0.3030 -0.6977 -0.9335
   9423SM  C13S12685   5.133   7.109   3.982  0.3877 -0.0482  0.0175
   9423SM  H13S12686   5.086   7.021   3.934 -0.2818  0.5129 -0.3813
   9423SM  H13T12687   5.053   7.177   4.015  0.1861  0.3152 -1.1488
   9423SM  C14S12688   5.209   7.064   4.108 -0.5256  0.4967  0.1097
   9423SM  H14S12689   5.269   7.151   4.142 -1.5180  0.5232  1.9312
   9423SM  H14T12690   5.273   6.977   4.082 -0.3071  1.0224 -1.1699
   9423SM  C15S12691   5.110   7.020   4.218  0.2352 -0.1681 -0.1171
   9423SM  H15S12692   5.059   6.927   4.185  0.8070 -0.6786  0.3917
   9423SM  H15T12693   5.036   7.102   4.227 -1.7699 -2.0545  2.2729
   9423SM  C16S12694   5.178   7.023   4.361  0.3587  0.3925 -0.1023
   9423SM  H16S12695   5.266   6.955   4.368 -0.8484 -1.2093  0.2292
   9423SM  H16T12696   5.105   6.990   4.438  0.5450  1.8241  0.7204
   9423SM  C17S12697   5.221   7.162   4.398  0.3655  0.4399 -0.0551
   9423SM  H17S12698   5.141   7.232   4.366  0.3906  0.5124  0.0426
   9423SM  H17T12699   5.315   7.185   4.344  0.6658  0.4326  0.4667
   9423SM  C18S12700   5.238   7.180   4.545 -0.2649 -0.2808 -0.5796
   9423SM  H18S12701   5.148   7.174   4.610  0.7552  0.9105  1.0064
   9423SM  H18T12702   5.269   7.285   4.561  1.3750 -0.6832 -0.9872
   9423SM  H18U12703   5.313   7.111   4.588 -0.0165  0.0440 -0.4923
   9423SM   C1F12704   5.012   6.870   3.103  0.3353  0.2975 -0.3175
   9423SM    OF12705   4.998   6.760   3.045 -0.4988  0.3619  0.6629
   9423SM   C2F12706   4.926   6.914   3.220 -0.0063  0.0343 -0.6875
   9423SM   H2F12707   4.895   7.020   3.220  0.9184  0.3790  2.0559
   9423SM   H2G12708   4.991   6.898   3.309  1.6447  2.5425 -1.3624
   9423SM   C3F12709   4.797   6.823   3.245  0.1898 -0.0920  0.2845
   9423SM   H3F12710   4.833   6.723   3.276  1.2212 -0.7941 -2.8145
   9423SM   H3G12711   4.745   6.807   3.148  0.9734 -2.3947  0.1973
   9423SM   C4F12712   4.701   6.875   3.350 -0.0565 -0.1239  0.0622
   9423SM   H4F12713   4.625   6.800   3.379 -0.9644  0.2277 -1.3116
   9423SM   H4G12714   4.654   6.972   3.321  1.4782  0.4266 -0.7044
   9423SM   C5F12715   4.777   6.896   3.485  0.7517 -0.4770 -0.4262
   9423SM   H5F12716   4.843   6.985   3.487  0.5800 -0.3486 -0.4029
   9423SM   H5G12717   4.841   6.811   3.517 -0.1512 -0.7838  0.6431
   9423SM   C6F12718   4.681   6.908   3.604 -0.0435  0.0767  0.2603
   9423SM   H6F12719   4.631   6.809   3.611  1.7475 -0.8978 -0.1042
   9423SM   H6G12720   4.601   6.980   3.577  0.2104  0.2547 -0.0239
   9423SM   C7F12721   4.749   6.958   3.729 -0.1836  1.1258 -0.2390
   9423SM   H7F12722   4.778   7.066   3.732 -0.9075  1.3733 -1.3277
   9423SM   H7G12723   4.846   6.907   3.739 -0.0880  1.2815 -0.3565
   9423SM   C8F12724   4.666   6.912   3.847  0.7108 -0.2356 -0.4298
   9423SM   H8F12725   4.641   6.804   3.836 -1.8235  0.2678 -0.2932
   9423SM   H8G12726   4.569   6.966   3.846  1.5461  1.3047 -0.9793
   9423SM   C9F12727   4.731   6.935   3.986  0.6134 -0.1971 -0.1966
   9423SM   H9F12728   4.774   7.037   3.995 -0.1125  0.0060  1.2115
   9423SM   H9G12729   4.825   6.876   3.986  0.0936 -1.0671 -1.4630
   9423SM  C10F12730   4.638   6.897   4.105 -0.2640 -0.3444  0.2107
   9423SM  H10F12731   4.603   6.792   4.095  2.8305 -1.4463 -0.4231
   9423SM  H10G12732   4.552   6.967   4.114 -0.3715 -0.6265  1.5845
   9423SM  C11F12733   4.700   6.899   4.239  0.1130  0.1325 -0.3634
   9423SM  H11F12734   4.682   6.996   4.290  2.6300  0.2448  0.4407
   9423SM  H11G12735   4.806   6.875   4.219 -0.1300 -0.2942 -1.1965
   9423SM  C12F12736   4.659   6.778   4.330 -0.3497 -0.0985  0.5453
   9423SM  H12F12737   4.677   6.685   4.272 -0.0282  0.6684 -0.6136
   9423SM  H12G12738   4.549   6.788   4.337 -0.2840  2.3045 -0.6520
   9423SM  C13F12739   4.715   6.786   4.469  0.0263  0.0425 -0.0564
   9423SM  H13F12740   4.699   6.892   4.498 -0.9584 -0.1158  0.0082
   9423SM  H13G12741   4.825   6.770   4.460  0.0468  0.1254  0.0605
   9423SM  C14F12742   4.653   6.685   4.563  0.0748  0.9407  0.2156
   9423SM  H14F12743   4.734   6.654   4.633  0.7329 -0.9631 -1.3144
   9423SM  H14G12744   4.629   6.594   4.505 -2.9635  0.5549  1.8647
   9423SM  C15F12745   4.539   6.736   4.642  0.2692 -0.2569 -0.1796
   9423SM  H15F12746   4.454   6.766   4.577 -2.5911 -2.6257  2.1482
   9423SM  H15G12747   4.576   6.823   4.699  1.3120 -1.9532  1.8927
   9423SM  C16F12748   4.488   6.642   4.748  0.2633  0.5874  0.6190
   9423SM  H16F12749   4.431   6.705   4.820 -1.9217  0.3264 -0.7725
   9423SM  H16G12750   4.574   6.616   4.813  1.2391  0.6173 -0.6296
   9423SM  C17F12751   4.416   6.525   4.680  0.1095  0.4044 -0.2281
   9423SM  H17F12752   4.483   6.486   4.601 -0.4164  0.4300 -0.6918
   9423SM  H17G12753   4.333   6.570   4.621  2.0182 -0.0769 -3.5753
   9423SM  C18F12754   4.369   6.413   4.777 -0.4463 -0.1346  0.4874
   9423SM  H18F12755   4.453   6.363   4.831 -2.2755 -1.9256  1.8221
   9423SM  H18G12756   4.317   6.345   4.707  0.2244  0.5638 -0.7180
   9423SM  C19F12757   4.272   6.474   4.877 -0.0673 -0.6112 -0.5128
   9423SM  H19F12758   4.189   6.517   4.816 -0.0907  1.0302  0.6102
   9423SM  H19G12759   4.318   6.547   4.946 -1.0380  0.0104 -0.5037
   9423SM  C20F12760   4.207   6.370   4.972  0.6285 -0.3713  1.0239
   9423SM  H20F12761   4.286   6.315   5.028  0.1267 -1.8799  0.2908
   9423SM  H20G12762   4.148   6.298   4.911  0.9125  0.5399 -0.3780
   9423SM  C21F12763   4.115   6.430   5.082 -0.8347  0.3952 -0.1912
   9423SM  H21F12764   4.046   6.515   5.063  0.4183  1.1418 -1.5991
   9423SM  H21G12765   4.184   6.467   5.161  0.5246 -0.4471 -0.9370
   9423SM  C22F12766   4.037   6.315   5.147  0.3506 -0.9022  0.3762
   9423SM  H22F12767   4.102   6.283   5.231  1.1357 -0.2425  0.0360
   9423SM  H22G12768   4.030   6.227   5.080 -1.4552 -0.7021  0.2385
   9423SM  C23F12769   3.896   6.374   5.196 -0.0225 -0.6566 -0.6268
   9423SM  H23F12770   3.923   6.439   5.282 -1.0056 -0.4871 -0.4393
   9423SM  H23G12771   3.824   6.300   5.236  0.1234  0.6665  2.3285
   9423SM  H23H12772   3.858   6.439   5.114  1.8265 -0.2556 -1.2194
   9523SM     N12773   1.600   1.922   2.363  0.1444  0.2950  0.4359
   9523SM   C1512774   1.506   2.024   2.431  0.2968 -0.0406 -0.0208
   9523SM  H15A12775   1.566   2.086   2.496  0.1922 -1.2029  1.2190
   9523SM  H15B12776   1.436   1.962   2.485 -1.4235  0.6056 -1.3891
   9523SM  H15C12777   1.454   2.089   2.363  0.9409  0.5499  0.0416
   9523SM   C1412778   1.512   1.825   2.278 -0.3852  0.0746  0.2252
   9523SM  H14A12779   1.433   1.779   2.336 -0.0823  1.0301  1.4291
   9523SM  H14B12780   1.569   1.754   2.220 -0.9990  0.6123 -1.0599
   9523SM  H14C12781   1.469   1.887   2.201 -1.4502 -1.5943 -0.5807
   9523SM   C1312782   1.688   1.992   2.259 -0.5949  0.3552 -0.6345
   9523SM  H13A12783   1.636   2.050   2.184  2.6623  1.7964 -1.9699
   9523SM  H13B12784   1.747   1.920   2.206 -0.2084  0.3100 -0.1549
   9523SM  H13C12785   1.749   2.071   2.303 -0.9299  0.5071 -0.4337
   9523SM   C1212786   1.692   1.842   2.450 -0.0475  0.5646 -0.0468
   9523SM  H12A12787   1.761   1.894   2.514  0.8896 -0.6092 -0.0573
   9523SM  H12B12788   1.753   1.782   2.384 -0.8297  0.5561 -0.7782
   9523SM   C1112789   1.623   1.742   2.544 -0.4708 -0.6617  0.0274
   9523SM  H11A12790   1.702   1.680   2.592 -0.4273  0.1508  1.0469
   9523SM  H11B12791   1.578   1.675   2.468  0.5773  0.3214 -1.5164
   9523SM     P12792   1.392   1.762   2.675 -0.1126  0.3078 -0.1081
   9523SM   O1312793   1.358   1.844   2.793  0.4773  0.3656  0.2649
   9523SM   O1412794   1.317   1.770   2.550 -0.0941  0.0379 -0.5056
   9523SM   O1112795   1.376   1.612   2.711 -0.0063 -0.0121  0.1548
   9523SM   O1212796   1.543   1.800   2.650 -0.0316  0.1105 -0.2379
   9523SM   C1S12797   1.467   1.554   2.809 -0.6859 -0.0454 -0.1426
   9523SM   H1S12798   1.567   1.602   2.821 -1.2700  0.5197  4.2019
   9523SM   H1T12799   1.480   1.446   2.789 -0.9575 -0.6469  2.5405
   9523SM    NF12800   1.502   1.507   3.050  0.1598  0.6300  0.2527
   9523SM   HNF12801   1.499   1.414   3.083  0.2653  0.7573  0.6153
   9523SM   C2S12802   1.404   1.557   2.956 -0.1117  0.3788  0.3571
   9523SM   H2S12803   1.376   1.662   2.977  0.8079  1.2426 -2.3311
   9523SM   C3S12804   1.279   1.471   2.953 -0.3957  0.1201  0.4063
   9523SM   H3S12805   1.311   1.373   2.912 -2.1217  0.2978 -1.5231
   9523SM    O312806   1.168   1.520   2.874 -0.2101 -0.0161  0.2064
   9523SM   HO312807   1.194   1.582   2.806  1.0102 -1.4422 -0.6915
   9523SM   C4S12808   1.221   1.461   3.087  0.0787  0.3737  0.9990
   9523SM   H4S12809   1.192   1.556   3.135 -1.7330  0.5001 -0.2495
   9523SM   C5S12810   1.199   1.342   3.156 -0.5620 -0.1406  0.1602
   9523SM   H5S12811   1.238   1.246   3.119  0.2167 -0.0599  0.7309
   9523SM   C6S12812   1.139   1.339   3.298  0.4873 -0.6080  0.1538
   9523SM   H6S12813   1.174   1.246   3.347  1.7409  0.0739  0.5989
   9523SM   H6T12814   1.029   1.332   3.288  0.2594  0.5774  1.5209
   9523SM   C7S12815   1.162   1.455   3.403 -0.2507  0.2890 -0.2801
   9523SM   H7S12816   1.098   1.544   3.382 -1.0003  0.2952  1.8490
   9523SM   H7T12817   1.265   1.495   3.397 -0.9019  2.2477  0.9738
   9523SM   C8S12818   1.148   1.419   3.552  0.0490 -0.1091  0.2872
   9523SM   H8S12819   1.201   1.326   3.582  0.2677  0.4157  1.5779
   9523SM   H8T12820   1.043   1.389   3.573 -0.4685  2.0526  1.0089
   9523SM   C9S12821   1.191   1.535   3.640 -0.0816  0.0148 -0.1358
   9523SM   H9S12822   1.129   1.628   3.635 -0.8618 -0.4665  0.3882
   9523SM   H9T12823   1.291   1.572   3.608  0.6482 -0.5381  1.3980
   9523SM  C10S12824   1.180   1.502   3.789 -0.0627  0.2526 -0.5450
   9523SM  H10S12825   1.240   1.412   3.814 -1.0416  0.0656  1.4015
   9523SM  H10T12826   1.075   1.476   3.815  0.2263  0.1853  0.6222
   9523SM  C11S12827   1.239   1.609   3.881  0.2856  0.5718 -0.3641
   9523SM  H11S12828   1.180   1.701   3.866 -1.1642 -0.3846 -0.7388
   9523SM  H11T12829   1.342   1.631   3.847  0.2353  1.9562  0.3028
   9523SM  C12S12830   1.233   1.569   4.029  0.1828 -0.2905 -0.0716
   9523SM  H12S12831   1.280   1.469   4.040  0.1069 -0.1622  1.5541
   9523SM  H12T12832   1.126   1.554   4.055  0.7092 -0.5317  2.1184
   9523SM  C13S12833   1.306   1.671   4.118 -0.4051 -0.1108  0.1452
   9523SM  H13S12834   1.251   1.767   4.126 -0.4961 -0.2889  1.9479
   9523SM  H13T12835   1.405   1.683   4.068 -0.9789 -0.8181 -1.2292
   9523SM  C14S12836   1.356   1.609   4.253 -0.0440 -0.2437 -0.3574
   9523SM  H14S12837   1.429   1.666   4.315  0.5148 -2.5762  1.2585
   9523SM  H14T12838   1.422   1.527   4.216 -2.1343 -3.0298  1.6593
   9523SM  C15S12839   1.242   1.556   4.342  0.0136  0.2775  0.1898
   9523SM  H15S12840   1.180   1.482   4.287  0.1963  0.3978 -0.1781
   9523SM  H15T12841   1.177   1.645   4.352  2.1491  1.8763  0.5710
   9523SM  C16S12842   1.291   1.499   4.477 -0.4259  0.4390 -0.0461
   9523SM  H16S12843   1.352   1.571   4.535  1.1838 -0.1485 -0.9395
   9523SM  H16T12844   1.359   1.413   4.455 -0.2518  0.6559 -0.3561
   9523SM  C17S12845   1.174   1.443   4.552  0.3830 -0.6132 -0.0498
   9523SM  H17S12846   1.111   1.376   4.489  0.1106 -0.7257  0.3398
   9523SM  H17T12847   1.117   1.532   4.587 -0.0628  0.4191 -3.1256
   9523SM  C18S12848   1.220   1.365   4.675  0.2293  0.3540  0.1968
   9523SM  H18S12849   1.305   1.421   4.720 -1.9845  0.9502  3.9923
   9523SM  H18T12850   1.266   1.270   4.639  1.0890  0.6190  0.5764
   9523SM  H18U12851   1.138   1.357   4.749  1.5194  0.6154  1.7253
   9523SM   C1F12852   1.602   1.582   3.083 -0.3587 -0.0764 -0.0325
   9523SM    OF12853   1.617   1.697   3.050 -0.5817  0.6403 -0.0596
   9523SM   C2F12854   1.699   1.517   3.176  0.0392  0.0544 -0.3093
   9523SM   H2F12855   1.791   1.489   3.119 -1.3741 -0.3548 -2.5160
   9523SM   H2G12856   1.663   1.424   3.225  1.8406 -0.8645 -0.6140
   9523SM   C3F12857   1.732   1.611   3.301  0.1737  1.0972  0.4874
   9523SM   H3F12858   1.647   1.650   3.360 -0.0237  0.1156  0.8793
   9523SM   H3G12859   1.785   1.700   3.260  1.1105  0.7417  0.8865
   9523SM   C4F12860   1.828   1.536   3.408  0.1725 -0.5198  0.4847
   9523SM   H4F12861   1.912   1.488   3.354 -0.8250 -0.2739 -1.3811
   9523SM   H4G12862   1.777   1.446   3.448  0.4378  0.0062  2.0431
   9523SM   C5F12863   1.867   1.619   3.521 -0.5372 -0.2561 -0.5442
   9523SM   H5F12864   1.785   1.642   3.593  0.9426 -0.7941  1.4178
   9523SM   H5G12865   1.903   1.718   3.487  1.1209 -0.8994 -0.7646
   9523SM   C6F12866   1.990   1.558   3.591 -0.6003  0.1263 -0.2066
   9523SM   H6F12867   2.077   1.554   3.523 -2.2948 -0.1027 -2.4869
   9523SM   H6G12868   1.961   1.451   3.603  0.4299 -0.2823 -1.2038
   9523SM   C7F12869   2.014   1.626   3.727 -0.1070  1.3995  0.1506
   9523SM   H7F12870   1.921   1.625   3.788 -0.8955  1.2738 -1.0202
   9523SM   H7G12871   2.041   1.730   3.697  1.9154  0.4848 -1.4095
   9523SM   C8F12872   2.134   1.556   3.807  0.6316  0.3151 -0.0717
   9523SM   H8F12873   2.236   1.580   3.769  1.9636 -1.3912  2.1411
   9523SM   H8G12874   2.121   1.447   3.791  1.4938  0.0781  0.7113
   9523SM   C9F12875   2.116   1.556   3.960  0.0802 -0.6002  0.0609
   9523SM   H9F12876   2.030   1.495   3.994  0.1440 -0.6229  0.1839
   9523SM   H9G12877   2.096   1.661   3.993 -0.5506 -1.4290  2.5599
   9523SM  C10F12878   2.235   1.512   4.034  0.0201  0.2919 -0.2210
   9523SM  H10F12879   2.327   1.564   4.001 -0.7165  1.8257  0.0244
   9523SM  H10G12880   2.255   1.404   4.022  0.3519  0.3243  0.0318
   9523SM  C11F12881   2.223   1.530   4.187  0.1641 -0.2863  0.2729
   9523SM  H11F12882   2.141   1.459   4.212  0.8357 -1.7402 -1.4447
   9523SM  H11G12883   2.196   1.635   4.212 -0.0600  0.3301 -2.3159
   9523SM  C12F12884   2.346   1.478   4.263 -0.6744  0.2008  0.7281
   9523SM  H12F12885   2.429   1.542   4.225 -0.6439 -0.3420 -0.1386
   9523SM  H12G12886   2.380   1.377   4.234 -1.5984  0.0596  0.0874
   9523SM  C13F12887   2.325   1.485   4.416 -0.5223  0.5550  0.2571
   9523SM  H13F12888   2.292   1.587   4.448 -0.4075  0.5248  0.4780
   9523SM  H13G12889   2.422   1.465   4.468 -0.4066 -0.2788 -0.2748
   9523SM  C14F12890   2.224   1.386   4.484  0.8465  0.1818 -0.6523
   9523SM  H14F12891   2.235   1.284   4.440 -0.3315  0.1301 -0.8442
   9523SM  H14G12892   2.122   1.419   4.456  0.9372 -1.2553 -2.9373
   9523SM  C15F12893   2.248   1.389   4.638  0.4079 -0.3659 -0.4153
   9523SM  H15F12894   2.261   1.494   4.672  1.1250  0.1086 -2.0627
   9523SM  H15G12895   2.347   1.341   4.657  0.7394  0.1900 -0.7252
   9523SM  C16F12896   2.135   1.317   4.703 -0.7753  0.2155 -0.1253
   9523SM  H16F12897   2.119   1.220   4.650 -1.9996  0.2175  0.2261
   9523SM  H16G12898   2.042   1.377   4.702 -1.7226 -1.1574  1.3673
   9523SM  C17F12899   2.168   1.280   4.844  0.4373 -0.3575 -0.0859
   9523SM  H17F12900   2.197   1.369   4.905  0.4515  1.0235 -2.0244
   9523SM  H17G12901   2.252   1.207   4.848  0.5927 -0.3415 -2.1692
   9523SM  C18F12902   2.049   1.208   4.907 -0.2859  0.0168 -0.4683
   9523SM  H18F12903   2.048   1.108   4.859 -0.0807 -1.1503  1.8012
   9523SM  H18G12904   1.958   1.269   4.890 -0.5608 -0.8559 -2.4141
   9523SM  C19F12905   2.058   1.166   5.060 -0.7709  0.3327 -0.1948
   9523SM  H19F12906   2.083   1.258   5.118 -1.9275  0.8272 -0.4487
   9523SM  H19G12907   2.134   1.088   5.080 -1.3983 -0.0561  0.7263
   9523SM  C20F12908   1.932   1.103   5.129  0.0382  0.5983  0.6867
   9523SM  H20F12909   1.956   1.081   5.235  0.1248  0.2780  0.6044
   9523SM  H20G12910   1.903   1.002   5.090 -1.7646  1.0392  0.8276
   9523SM  C21F12911   1.812   1.196   5.116 -0.2726  0.2563  0.1765
   9523SM  H21F12912   1.776   1.215   5.013 -2.4856  2.8096  1.3280
   9523SM  H21G12913   1.854   1.292   5.153 -0.8428  0.6974 -0.3024
   9523SM  C22F12914   1.688   1.144   5.195  0.2974 -0.9210  0.6910
   9523SM  H22F12915   1.644   1.055   5.146 -1.8862 -0.2722  1.3512
   9523SM  H22G12916   1.606   1.217   5.182 -0.6079 -1.8319  1.1635
   9523SM  C23F12917   1.706   1.132   5.344  0.0754 -0.3901  0.2641
   9523SM  H23F12918   1.615   1.107   5.403 -0.3115 -1.4982 -0.7734
   9523SM  H23G12919   1.739   1.232   5.380 -2.2426  0.2175  0.8657
   9523SM  H23H12920   1.784   1.057   5.368  0.0289  0.2706  2.8129
   9623SM     N12921   2.954   0.372   2.273  0.3173 -0.1932 -0.0569
   9623SM   C1512922   2.953   0.425   2.135 -0.4705 -0.3315 -0.5717
   9623SM  H15A12923   3.051   0.458   2.107  0.2838 -1.3104  0.7739
   9623SM  H15B12924   2.893   0.512   2.113  0.7837  0.6540 -0.2400
   9623SM  H15C12925   2.916   0.349   2.068  1.2295 -1.8191  0.1018
   9623SM   C1412926   2.811   0.342   2.311 -0.3167  0.0424  0.4884
   9623SM  H14A12927   2.797   0.296   2.407  1.2869 -1.4523  0.0590
   9623SM  H14B12928   2.781   0.273   2.234  0.9698 -1.7795  1.5502
   9623SM  H14C12929   2.752   0.432   2.302 -0.2861 -0.0541 -1.1235
   9623SM   C1312930   3.038   0.247   2.267 -0.0011  0.2074  0.4060
   9623SM  H13A12931   3.040   0.205   2.367 -0.7954  1.3927  0.9459
   9623SM  H13B12932   3.142   0.265   2.245  0.1857  0.7898  1.6884
   9623SM  H13C12933   3.005   0.170   2.199  0.1002  0.8881 -0.4390
   9623SM   C1212934   3.017   0.472   2.372 -0.3370 -0.0333  0.4659
   9623SM  H12A12935   2.968   0.566   2.353  0.6230  0.4357  0.3059
   9623SM  H12B12936   3.122   0.482   2.350  0.0183 -0.3563  1.9115
   9623SM   C1112937   3.019   0.446   2.523 -0.1484 -0.2412 -0.3991
   9623SM  H11A12938   2.919   0.437   2.570 -0.0468 -0.1235 -0.1622
   9623SM  H11B12939   3.056   0.542   2.564 -0.8572  0.1627 -0.6809
   9623SM     P12940   3.252   0.362   2.582  0.5614  0.4164 -0.3495
   9623SM   O1312941   3.327   0.237   2.619  0.2449 -0.2426 -0.0873
   9623SM   O1412942   3.299   0.437   2.470 -0.2679  0.0622  0.0276
   9623SM   O1112943   3.248   0.460   2.702  0.3022  0.1849  0.4189
   9623SM   O1212944   3.102   0.332   2.549 -0.1702  0.4620 -0.2486
   9623SM   C1S12945   3.184   0.423   2.829  0.3832  0.0400  0.0578
   9623SM   H1S12946   3.237   0.334   2.869  0.4586 -0.1724 -0.5009
   9623SM   H1T12947   3.079   0.389   2.814 -0.4371  3.0671 -1.9137
   9623SM    NF12948   3.122   0.486   3.058  0.5478  0.0365 -0.1857
   9623SM   HNF12949   3.054   0.540   3.107 -0.4996 -0.4234 -1.1096
   9623SM   C2S12950   3.177   0.539   2.935 -0.2251  0.1921 -0.4379
   9623SM   H2S12951   3.280   0.570   2.961 -1.0085  1.1712  1.7198
   9623SM   C3S12952   3.091   0.655   2.875 -0.8699  0.1771  0.1031
   9623SM   H3S12953   2.989   0.617   2.854  0.1757 -2.7191 -0.1529
   9623SM    O312954   3.134   0.701   2.748 -0.3585  0.0772 -0.1516
   9623SM   HO312955   3.182   0.625   2.714 -1.1390 -0.4702 -0.0423
   9623SM   C4S12956   3.091   0.767   2.977  0.4980 -0.1155 -0.1796
   9623SM   H4S12957   2.990   0.786   3.016  0.7047  1.0650 -0.1836
   9623SM   C5S12958   3.198   0.846   3.005  0.0109  0.6545 -0.5594
   9623SM   H5S12959   3.288   0.829   2.943  1.0397  0.1145  1.0387
   9623SM   C6S12960   3.201   0.959   3.100  0.1551  0.7365 -0.2291
   9623SM   H6S12961   3.108   0.952   3.161  1.2535  0.6293  1.4947
   9623SM   H6T12962   3.190   1.056   3.047 -1.5250  0.8223  0.2057
   9623SM   C7S12963   3.295   0.973   3.220 -0.4756  0.4517  0.2235
   9623SM   H7S12964   3.391   0.925   3.191 -0.9752  0.4373 -1.5487
   9623SM   H7T12965   3.277   0.894   3.295 -0.2734 -1.4599 -1.6312
   9623SM   C8S12966   3.294   1.109   3.272 -0.4389 -1.8174 -0.2538
   9623SM   H8S12967   3.190   1.147   3.280  0.3099 -0.0043  2.0935
   9623SM   H8T12968   3.340   1.170   3.191  1.4894 -0.2202  1.9159
   9623SM   C9S12969   3.366   1.124   3.410  0.5166 -0.1907 -0.3563
   9623SM   H9S12970   3.375   1.234   3.428  1.1137 -0.2353 -0.3963
   9623SM   H9T12971   3.465   1.076   3.400 -0.4323 -1.7865 -3.0373
   9623SM  C10S12972   3.294   1.069   3.529  0.1174  0.5193  0.0976
   9623SM  H10S12973   3.264   0.963   3.515 -2.1253  1.0219  0.7195
   9623SM  H10T12974   3.197   1.119   3.548  0.1018  0.3639  0.4390
   9623SM  C11S12975   3.382   1.074   3.660 -0.2504 -0.4495  0.1988
   9623SM  H11S12976   3.321   1.029   3.741 -2.2957  2.6352  0.5165
   9623SM  H11T12977   3.397   1.177   3.698 -0.8726 -0.2031 -0.2133
   9623SM  C12S12978   3.525   1.020   3.647 -0.7243 -0.0376 -0.0867
   9623SM  H12S12979   3.586   1.094   3.592 -0.0169 -0.2952  0.3406
   9623SM  H12T12980   3.509   0.928   3.587 -0.3231 -0.8848  1.0653
   9623SM  C13S12981   3.589   0.977   3.783 -0.3311 -0.5136 -0.0235
   9623SM  H13S12982   3.693   0.946   3.759 -0.6604 -0.0557 -2.3198
   9623SM  H13T12983   3.530   0.901   3.839 -2.1164  2.6967  2.8658
   9623SM  C14S12984   3.602   1.095   3.881 -0.1933  0.2514 -0.1405
   9623SM  H14S12985   3.503   1.142   3.902 -0.2676  1.0000 -1.9827
   9623SM  H14T12986   3.665   1.172   3.833  0.0057  0.2036  0.0463
   9623SM  C15S12987   3.672   1.055   4.009  0.4008  0.3422 -0.1854
   9623SM  H15S12988   3.774   1.015   3.987 -1.0598 -3.0010 -1.4752
   9623SM  H15T12989   3.611   0.974   4.054  0.0633  0.7941  0.1777
   9623SM  C16S12990   3.674   1.171   4.118  0.2273  0.2567 -0.1253
   9623SM  H16S12991   3.568   1.181   4.150  0.3355  1.1775 -0.0338
   9623SM  H16T12992   3.706   1.269   4.076 -1.6936 -0.0092 -2.3831
   9623SM  C17S12993   3.743   1.114   4.243 -0.7139 -0.7916  0.2613
   9623SM  H17S12994   3.845   1.079   4.214 -1.6329 -1.8015 -2.0346
   9623SM  H17T12995   3.682   1.033   4.288 -0.4886 -1.2520 -0.2348
   9623SM  C18S12996   3.756   1.225   4.352 -0.0533 -0.4005  0.2482
   9623SM  H18S12997   3.781   1.328   4.316  0.1821 -0.9024 -1.0944
   9623SM  H18T12998   3.823   1.195   4.435  3.5666 -0.1793 -2.3491
   9623SM  H18U12999   3.654   1.255   4.383  0.4991  1.7970  0.1308
   9623SM   C1F13000   3.176   0.383   3.121 -0.0544 -0.4037 -0.0610
   9623SM    OF13001   3.274   0.320   3.081 -0.1387  0.1883 -0.3994
   9623SM   C2F13002   3.106   0.335   3.239 -0.2496  0.0257  0.0022
   9623SM   H2F13003   2.996   0.337   3.222 -0.7023 -1.9743  2.0806
   9623SM   H2G13004   3.128   0.397   3.328  3.2101 -2.0642  0.7973
   9623SM   C3F13005   3.151   0.195   3.287 -0.7065  0.3540  0.6365
   9623SM   H3F13006   3.255   0.189   3.324 -0.9250 -1.3518  1.0936
   9623SM   H3G13007   3.130   0.122   3.205 -0.4915  1.6805 -0.6258
   9623SM   C4F13008   3.075   0.134   3.412 -0.2898 -0.0129  0.5617
   9623SM   H4F13009   3.079   0.023   3.413  2.8356  0.0100  1.2121
   9623SM   H4G13010   2.969   0.168   3.402  0.3546  2.1874  0.8036
   9623SM   C5F13011   3.132   0.173   3.543 -0.1128  0.0592  0.2394
   9623SM   H5F13012   3.057   0.153   3.622 -0.2599 -0.3024  0.0080
   9623SM   H5G13013   3.147   0.283   3.531  2.0266  0.2802  3.6824
   9623SM   C6F13014   3.257   0.103   3.595  0.0099  0.1290 -0.2119
   9623SM   H6F13015   3.350   0.122   3.539  0.5499 -2.0822 -0.1432
   9623SM   H6G13016   3.244  -0.007   3.590  0.0908  0.0315  1.1198
   9623SM   C7F13017   3.284   0.142   3.741  0.2225 -0.7567  0.4417
   9623SM   H7F13018   3.199   0.105   3.802 -0.8598  2.2060  0.9216
   9623SM   H7G13019   3.277   0.253   3.750  2.4710 -0.5560  0.1705
   9623SM   C8F13020   3.413   0.086   3.800  1.0864 -0.0368 -0.2563
   9623SM   H8F13021   3.503   0.139   3.760  0.0214 -1.0291 -4.5274
   9623SM   H8G13022   3.419  -0.023   3.781 -0.4608 -0.4984  1.6022
   9623SM   C9F13023   3.400   0.083   3.957 -0.0200  0.2452  0.6659
   9623SM   H9F13024   3.349   0.176   3.992 -0.4865 -0.8505  3.1107
   9623SM   H9G13025   3.504   0.093   3.995 -0.0590 -0.8188  1.0794
   9623SM  C10F13026   3.340  -0.053   4.012  0.0390  0.2153 -0.3191
   9623SM  H10F13027   3.422  -0.124   4.034  0.1190  1.1190  2.7008
   9623SM  H10G13028   3.258  -0.099   3.952 -0.3419 -1.3907  1.3284
   9623SM  C11F13029   3.250  -0.037   4.141  0.4622  0.9619 -0.1528
   9623SM  H11F13030   3.220  -0.136   4.181  1.4322  0.6633 -0.1259
   9623SM  H11G13031   3.162   0.027   4.122 -1.1662 -0.8333  1.0217
   9623SM  C12F13032   3.328   0.034   4.251 -0.0823  0.7528 -0.5115
   9623SM  H12F13033   3.356   0.138   4.221 -1.3509  2.2708  3.0988
   9623SM  H12G13034   3.426  -0.017   4.262 -1.0560 -0.6528  3.0982
   9623SM  C13F13035   3.255   0.038   4.380  0.2145 -0.5137  0.0498
   9623SM  H13F13036   3.208  -0.061   4.401  1.1093 -0.6328  1.6743
   9623SM  H13G13037   3.189   0.128   4.373 -0.3993 -0.9295  0.3474
   9623SM  C14F13038   3.354   0.065   4.503  0.4076  0.0516 -0.0964
   9623SM  H14F13039   3.291   0.050   4.593 -0.4379  2.1673 -0.2674
   9623SM  H14G13040   3.388   0.171   4.495  2.1483 -0.0639  3.8776
   9623SM  C15F13041   3.477  -0.016   4.512  0.2176 -0.5843  0.3013
   9623SM  H15F13042   3.548   0.001   4.429  0.4883 -1.0679  0.4251
   9623SM  H15G13043   3.447  -0.123   4.517 -1.0000 -0.2510  0.4056
   9623SM  C16F13044   3.560   0.019   4.638 -0.5116  0.3975 -0.6546
   9623SM  H16F13045   3.496   0.079   4.706 -3.6038 -2.5055 -0.6818
   9623SM  H16G13046   3.653   0.071   4.609 -0.5993 -0.3117 -2.3120
   9623SM  C17F13047   3.599  -0.117   4.695  0.4679  0.4021  0.4164
   9623SM  H17F13048   3.662  -0.171   4.621  0.7108  1.0878  0.1219
   9623SM  H17G13049   3.512  -0.185   4.707 -0.6370  2.0127  2.0264
   9623SM  C18F13050   3.666  -0.099   4.834  0.1586 -0.4908  0.4018
   9623SM  H18F13051   3.595  -0.066   4.913 -0.2938  0.3165 -0.3198
   9623SM  H18G13052   3.750  -0.027   4.828  0.5574 -0.9025  0.8823
   9623SM  C19F13053   3.730  -0.233   4.870 -0.7662  0.2317 -0.4397
   9623SM  H19F13054   3.797  -0.276   4.792 -0.4558  2.3440 -1.4038
   9623SM  H19G13055   3.648  -0.305   4.888  0.2317 -1.0056 -0.6766
   9623SM  C20F13056   3.827  -0.226   4.994 -0.2154 -0.7241  0.1088
   9623SM  H20F13057   3.905  -0.148   4.980 -0.9954  0.4260  1.8904
   9623SM  H20G13058   3.894  -0.315   4.985 -0.8718 -1.1378 -0.8453
   9623SM  C21F13059   3.772  -0.217   5.137 -0.7419 -0.3061 -0.4833
   9623SM  H21F13060   3.721  -0.312   5.165  1.4611 -1.5723 -0.5551
   9623SM  H21G13061   3.709  -0.126   5.138 -1.9299 -1.0970 -0.5444
   9623SM  C22F13062   3.881  -0.193   5.242 -0.4151  0.7471  0.2415
   9623SM  H22F13063   3.957  -0.117   5.214  1.0476 -0.6663  0.2353
   9623SM  H22G13064   3.936  -0.288   5.261 -0.4221  1.1375  2.4447
   9623SM  C23F13065   3.825  -0.137   5.375 -0.2309 -0.6517  0.4698
   9623SM  H23F13066   3.776  -0.217   5.434 -1.8490  0.6562  1.0041
   9623SM  H23G13067   3.748  -0.065   5.338  1.3266  0.8589  0.0522
   9623SM  H23H13068   3.908  -0.090   5.431 -1.1560 -0.1294  1.4436
   9723SM     N13069   4.466   7.252   2.525 -0.0167 -0.7033  0.7416
   9723SM   C1513070   4.476   7.354   2.411 -0.1099 -0.1608  0.0895
   9723SM  H15A13071   4.569   7.408   2.402 -0.2409 -0.1594 -1.5007
   9723SM  H15B13072   4.400   7.430   2.421  0.6197  1.0085 -2.5005
   9723SM  H15C13073   4.459   7.304   2.317 -0.4785 -1.1823  0.6779
   9723SM   C1413074   4.336   7.200   2.503 -0.3886  0.4766  1.2037
   9723SM  H14A13075   4.322   7.157   2.405 -4.4603 -0.3583  1.9415
   9723SM  H14B13076   4.271   7.286   2.514 -0.2391  0.3510  3.3651
   9723SM  H14C13077   4.313   7.124   2.577 -2.0522 -1.6173 -1.2755
   9723SM   C1313078   4.570   7.147   2.496 -0.0535  0.0969  0.6102
   9723SM  H13A13079   4.670   7.186   2.484 -0.2094  0.0490 -1.2305
   9723SM  H13B13080   4.542   7.106   2.400 -0.4004 -0.3256  0.8939
   9723SM  H13C13081   4.563   7.059   2.558 -1.9133 -0.1871  0.0477
   9723SM   C1213082   4.488   7.308   2.658 -0.2376  0.8976  0.4791
   9723SM  H12A13083   4.587   7.348   2.672  1.6368 -3.2545  0.2801
   9723SM  H12B13084   4.486   7.228   2.730  1.0822 -0.2270 -0.6733
   9723SM   C1113085   4.388   7.425   2.693 -0.4887  0.4789  0.2110
   9723SM  H11A13086   4.396   7.452   2.800  1.2158  1.9359 -0.2439
   9723SM  H11B13087   4.284   7.389   2.674 -0.2831  0.9822 -2.1802
   9723SM     P13088   4.307   7.666   2.636  0.0954 -0.2888  0.0101
   9723SM   O1313089   4.345   7.769   2.540 -0.3258  0.0640  0.3019
   9723SM   O1413090   4.161   7.629   2.631 -0.0984 -0.3281 -0.4471
   9723SM   O1113091   4.352   7.716   2.780 -0.7109 -0.6691 -0.5436
   9723SM   O1213092   4.401   7.544   2.612 -0.6379  0.2219  0.2577
   9723SM   C1S13093   4.270   7.807   2.858  0.7152 -0.4374 -0.5843
   9723SM   H1S13094   4.167   7.767   2.873  1.5697 -2.1620  1.2618
   9723SM   H1T13095   4.256   7.901   2.800 -0.1148 -0.2592 -0.1036
   9723SM    NF13096   4.208   7.925   3.065 -0.4244  0.6443  0.4614
   9723SM   HNF13097   4.239   8.013   3.100  3.1889  0.3930 -1.5928
   9723SM   C2S13098   4.315   7.843   3.005  0.2033 -0.1120  0.5548
   9723SM   H2S13099   4.314   7.746   3.059 -0.7756 -0.5176 -0.1527
   9723SM   C3S13100   4.453   7.911   2.998 -0.8113  0.5505 -0.6940
   9723SM   H3S13101   4.434   8.016   2.968  0.6059  1.2048  0.6036
   9723SM    O313102   4.551   7.845   2.915 -0.0865  0.0442  0.3160
   9723SM   HO313103   4.502   7.804   2.843  1.9922  0.5520 -1.4999
   9723SM   C4S13104   4.514   7.915   3.149  0.3818 -0.6727  0.4269
   9723SM   H4S13105   4.507   8.015   3.194  2.0783 -0.9014  1.2790
   9723SM   C5S13106   4.585   7.815   3.207 -0.0225  0.5263  0.3400
   9723SM   H5S13107   4.581   7.718   3.155  0.6646 -0.2574  1.7024
   9723SM   C6S13108   4.655   7.805   3.343  0.4308 -0.8575  0.9410
   9723SM   H6S13109   4.744   7.740   3.339  2.0484  1.2735  0.7154
   9723SM   H6T13110   4.581   7.748   3.404 -2.0245  0.7900 -0.3128
   9723SM   C7S13111   4.691   7.933   3.421  0.4629 -0.2193  0.1818
   9723SM   H7S13112   4.607   8.005   3.428  1.2575  0.8927 -1.2010
   9723SM   H7T13113   4.771   7.991   3.370 -0.9251  0.2745 -1.5730
   9723SM   C8S13114   4.744   7.896   3.561 -0.5266 -0.0135 -0.8655
   9723SM   H8S13115   4.762   7.997   3.603  1.1514 -0.3312 -0.7818
   9723SM   H8T13116   4.844   7.848   3.562 -0.4610  0.0991  0.5496
   9723SM   C9S13117   4.642   7.821   3.647  0.0322 -0.2311  1.1459
   9723SM   H9S13118   4.686   7.719   3.648 -0.3964 -0.4905 -1.0874
   9723SM   H9T13119   4.540   7.833   3.604  1.0271  0.6660 -1.1523
   9723SM  C10S13120   4.633   7.876   3.788 -0.2082 -0.4310 -0.5003
   9723SM  H10S13121   4.550   7.837   3.851 -0.9883  2.9894  0.8196
   9723SM  H10T13122   4.602   7.983   3.789 -2.0294 -0.7734  3.6721
   9723SM  C11S13123   4.756   7.864   3.878  0.9150  0.9608  0.5289
   9723SM  H11S13124   4.854   7.852   3.828  1.5524 -1.2386  2.1581
   9723SM  H11T13125   4.731   7.773   3.937  1.2667 -0.1648 -0.9792
   9723SM  C12S13126   4.766   7.991   3.968 -0.9379  0.1362  0.2533
   9723SM  H12S13127   4.666   7.999   4.016 -0.6477 -2.0447  1.3391
   9723SM  H12T13128   4.799   8.074   3.902  3.0742 -0.4127  1.3159
   9723SM  C13S13129   4.877   7.993   4.072 -0.2873 -0.3267 -0.0352
   9723SM  H13S13130   4.977   7.977   4.026 -0.0705  1.7245 -0.3648
   9723SM  H13T13131   4.853   7.914   4.146  2.3217 -0.1774  1.0665
   9723SM  C14S13132   4.878   8.132   4.137  0.1726  0.0816 -0.2258
   9723SM  H14S13133   4.777   8.156   4.176  1.2299 -0.4376  3.1373
   9723SM  H14T13134   4.916   8.202   4.060  1.3182  0.6379  0.8000
   9723SM  C15S13135   4.957   8.151   4.261 -0.6435  0.6085 -0.4730
   9723SM  H15S13136   4.942   8.243   4.322  0.6186  0.2312  0.4386
   9723SM  H15T13137   5.064   8.153   4.231 -0.7928  1.9510 -1.0195
   9723SM  C16S13138   4.935   8.036   4.358 -0.2235  0.3026 -0.2935
   9723SM  H16S13139   4.997   7.952   4.321  1.4430  0.5339  1.7750
   9723SM  H16T13140   4.826   8.018   4.358 -0.0931 -0.5195  0.5406
   9723SM  C17S13141   4.971   8.082   4.502  0.1869 -0.1515  0.2915
   9723SM  H17S13142   4.912   8.016   4.570  1.9559 -2.6856 -0.4781
   9723SM  H17T13143   4.924   8.182   4.507 -0.5786 -0.2340 -2.9760
   9723SM  C18S13144   5.124   8.084   4.535 -0.0423 -0.1813 -0.0024
   9723SM  H18S13145   5.162   7.981   4.517 -0.2492 -0.2127 -0.2688
   9723SM  H18T13146   5.122   8.104   4.644  4.2131 -1.4327  0.4831
   9723SM  H18U13147   5.173   8.164   4.476  1.3710 -0.9645  0.0476
   9723SM   C1F13148   4.090   7.863   3.096  0.0425 -0.4629  0.2207
   9723SM    OF13149   4.073   7.742   3.074 -0.0863  0.3130  0.4383
   9723SM   C2F13150   3.983   7.943   3.167 -0.4028 -0.2360  0.4034
   9723SM   H2F13151   3.921   7.998   3.092  0.8956 -1.0431 -1.3446
   9723SM   H2G13152   4.046   8.018   3.219  0.6478  0.1965 -1.4017
   9723SM   C3F13153   3.886   7.872   3.276  0.5675  0.1126  0.4264
   9723SM   H3F13154   3.939   7.830   3.364 -1.4905 -2.9179  0.3758
   9723SM   H3G13155   3.860   7.778   3.222  0.8097  0.1347  0.2705
   9723SM   C4F13156   3.753   7.949   3.311  0.5377 -0.0209  0.0211
   9723SM   H4F13157   3.696   7.950   3.216  1.0830 -0.9751 -0.3345
   9723SM   H4G13158   3.780   8.052   3.344  2.8611 -0.7132  0.5015
   9723SM   C5F13159   3.669   7.877   3.419 -0.0891  0.1881 -0.2543
   9723SM   H5F13160   3.645   7.774   3.386  1.5875  0.0131 -1.0308
   9723SM   H5G13161   3.573   7.933   3.422 -1.5661 -2.2657  1.1278
   9723SM   C6F13162   3.735   7.866   3.555 -0.3775  0.2449 -0.2893
   9723SM   H6F13163   3.835   7.817   3.552  0.3452  1.5461  1.0940
   9723SM   H6G13164   3.675   7.794   3.615 -0.7339  0.9440  0.2009
   9723SM   C7F13165   3.758   8.001   3.622 -0.4453  0.7597 -0.1813
   9723SM   H7F13166   3.660   8.047   3.647 -1.1067 -0.5619 -0.2703
   9723SM   H7G13167   3.817   8.062   3.550 -0.3490 -0.3815 -1.0973
   9723SM   C8F13168   3.848   7.989   3.750 -0.2423  0.0004  0.2513
   9723SM   H8F13169   3.856   8.088   3.799  0.2745 -0.1720  0.5243
   9723SM   H8G13170   3.950   7.957   3.717 -0.6546 -2.0038  0.7649
   9723SM   C9F13171   3.814   7.888   3.858  0.6243  0.4134 -0.1192
   9723SM   H9F13172   3.800   7.784   3.819  0.9080  1.3185 -2.8895
   9723SM   H9G13173   3.713   7.919   3.892 -0.4134 -0.3601 -2.3039
   9723SM  C10F13174   3.907   7.881   3.979  0.5484  0.8442  0.3036
   9723SM  H10F13175   3.902   7.972   4.042  1.6599  0.0469  1.6042
   9723SM  H10G13176   4.010   7.865   3.940  0.0763  1.0237 -1.0585
   9723SM  C11F13177   3.887   7.756   4.071  0.6436  0.3290 -0.4662
   9723SM  H11F13178   3.783   7.764   4.107  0.2156  1.5490 -1.8770
   9723SM  H11G13179   3.949   7.773   4.162 -0.3620  2.4584 -0.1105
   9723SM  C12F13180   3.892   7.612   4.016  1.0288 -0.5727 -0.0857
   9723SM  H12F13181   4.000   7.594   3.999  1.2747  0.7029  0.0310
   9723SM  H12G13182   3.839   7.612   3.918  1.5256 -1.1868 -0.3580
   9723SM  C13F13183   3.848   7.506   4.118 -0.1639 -0.2075 -0.1965
   9723SM  H13F13184   3.887   7.540   4.217 -0.5587  0.3090 -0.2100
   9723SM  H13G13185   3.907   7.415   4.099  0.6057  0.4064 -0.7948
   9723SM  C14F13186   3.698   7.487   4.132  0.8996  0.4210 -0.0244
   9723SM  H14F13187   3.652   7.446   4.039  0.4683 -0.3635  0.5203
   9723SM  H14G13188   3.646   7.583   4.151  1.3477  1.0563 -1.7384
   9723SM  C15F13189   3.675   7.390   4.252  0.1835  0.3705  0.1766
   9723SM  H15F13190   3.566   7.378   4.269  0.3741 -0.3949  0.9017
   9723SM  H15G13191   3.726   7.430   4.342  0.2151  1.7881 -0.4353
   9723SM  C16F13192   3.736   7.248   4.237 -0.4198 -0.0167 -0.0118
   9723SM  H16F13193   3.845   7.261   4.223 -0.1255  0.1690  2.1869
   9723SM  H16G13194   3.693   7.206   4.143  2.7647 -1.8978 -0.7585
   9723SM  C17F13195   3.717   7.159   4.350  0.1099  0.3240 -0.6810
   9723SM  H17F13196   3.737   7.057   4.310  1.1970  0.1368  0.2765
   9723SM  H17G13197   3.614   7.170   4.391 -0.2971 -1.7366 -1.0540
   9723SM  C18F13198   3.813   7.172   4.473  0.4249 -0.1642  0.5001
   9723SM  H18F13199   3.789   7.270   4.519  1.3282 -0.0132  0.6685
   9723SM  H18G13200   3.920   7.180   4.446 -0.0663  1.4733 -1.2003
   9723SM  C19F13201   3.791   7.070   4.581 -0.3979  0.3381  0.6562
   9723SM  H19F13202   3.795   6.969   4.534 -1.3762  1.4857 -2.1260
   9723SM  H19G13203   3.687   7.075   4.620 -0.9357 -0.2104 -0.6451
   9723SM  C20F13204   3.875   7.093   4.706  0.1231 -0.4005  0.8361
   9723SM  H20F13205   3.887   7.198   4.741  0.2606  0.7886 -2.4438
   9723SM  H20G13206   3.973   7.043   4.696  0.0266 -0.3240 -0.6011
   9723SM  C21F13207   3.799   7.027   4.819 -0.1239 -0.1002 -0.1855
   9723SM  H21F13208   3.782   6.925   4.780  1.6255 -0.5322  0.0777
   9723SM  H21G13209   3.700   7.075   4.831 -0.2890  0.2988 -2.6845
   9723SM  C22F13210   3.870   7.015   4.954 -0.0413 -0.3440 -0.0706
   9723SM  H22F13211   3.903   7.117   4.982 -0.2654 -0.1385 -0.5426
   9723SM  H22G13212   3.966   6.959   4.948  0.3708  0.3599 -0.0970
   9723SM  C23F13213   3.777   6.949   5.062 -0.4793  0.3212  0.1844
   9723SM  H23F13214   3.675   6.990   5.053 -0.0175  1.3850 -0.3907
   9723SM  H23G13215   3.818   6.974   5.162 -1.3461 -1.7052  1.1200
   9723SM  H23H13216   3.777   6.838   5.055 -0.6580  0.3372 -0.0545
   9823SM     N13217   6.865   0.315   2.433  0.2253 -0.4527  0.1363
   9823SM   C1513218   6.746   0.339   2.525 -0.2858  0.0524 -0.4991
   9823SM  H15A13219   6.765   0.311   2.627 -1.0717 -0.2034 -0.4195
   9823SM  H15B13220   6.658   0.288   2.489 -1.2005  0.3660  1.2111
   9823SM  H15C13221   6.713   0.441   2.532 -2.0115 -0.3326 -2.1712
   9823SM   C1413222   6.825   0.382   2.305  0.6224  0.1309  0.0379
   9823SM  H14A13223   6.820   0.490   2.312 -2.3769  0.0313  0.9176
   9823SM  H14B13224   6.733   0.344   2.264  0.7561 -1.9690  1.5352
   9823SM  H14C13225   6.895   0.358   2.226  0.8801 -0.0218  0.3125
   9823SM   C1313226   6.991   0.382   2.482 -0.0722 -0.1984  0.3360
   9823SM  H13A13227   7.023   0.332   2.572  0.6315 -0.1117  0.1421
   9823SM  H13B13228   6.977   0.489   2.491 -0.2719  0.0952 -2.5005
   9823SM  H13C13229   7.070   0.379   2.408  0.2410 -1.6813  0.6953
   9823SM   C1213230   6.890   0.164   2.414  0.3516 -0.4509 -0.2226
   9823SM  H12A13231   6.793   0.119   2.400 -1.3787  2.6029  0.9209
   9823SM  H12B13232   6.930   0.122   2.506 -0.7492 -1.4503 -0.1677
   9823SM   C1113233   6.973   0.125   2.295  0.2705  0.3556 -0.2797
   9823SM  H11A13234   6.914   0.151   2.204 -0.0676 -0.8906 -0.4358
   9823SM  H11B13235   6.986   0.015   2.299  2.2831  0.5843  2.2243
   9823SM     P13236   7.230   0.123   2.359 -0.1848  0.0187  0.0321
   9823SM   O1313237   7.247  -0.013   2.298 -0.4503 -1.0613 -0.6857
   9823SM   O1413238   7.343   0.214   2.352  0.4755  0.0254 -0.2307
   9823SM   O1113239   7.189   0.105   2.517  0.3087 -0.3427  0.1876
   9823SM   O1213240   7.103   0.190   2.288  0.4981  0.2099  0.1145
   9823SM   C1S13241   7.298   0.110   2.622  0.0726 -0.2549 -0.0075
   9823SM   H1S13242   7.318   0.219   2.627 -0.1344 -0.0731 -2.1239
   9823SM   H1T13243   7.394   0.057   2.601  1.1591  1.4546  0.4898
   9823SM    NF13244   7.340   0.103   2.866  0.1888  0.8560  0.3127
   9823SM   HNF13245   7.374   0.029   2.924 -2.9537 -1.0078  0.0042
   9823SM   C2S13246   7.243   0.077   2.767  0.8676 -0.3058  0.2834
   9823SM   H2S13247   7.162   0.153   2.778  1.4714  0.1915  1.3787
   9823SM   C3S13248   7.186  -0.065   2.763  0.1631 -0.3223 -0.6827
   9823SM   H3S13249   7.273  -0.133   2.752  1.6186  1.4197 -0.3787
   9823SM    O313250   7.087  -0.089   2.661 -0.0261  0.1844 -0.3996
   9823SM   HO313251   7.102  -0.008   2.612 -1.6464  1.8671  1.6683
   9823SM   C4S13252   7.125  -0.093   2.896 -0.6703 -0.8530 -0.3129
   9823SM   H4S13253   7.191  -0.150   2.963  0.8138  1.7469  0.5831
   9823SM   C5S13254   7.000  -0.071   2.936  0.7373 -0.5904 -0.6927
   9823SM   H5S13255   6.945  -0.010   2.862  2.1695 -1.2222 -2.3282
   9823SM   C6S13256   6.943  -0.108   3.073  0.1048  0.1861  0.7349
   9823SM   H6S13257   6.886  -0.203   3.060  1.6537 -0.9208  1.6338
   9823SM   H6T13258   6.866  -0.032   3.099  0.2239 -0.2978  2.6343
   9823SM   C7S13259   7.050  -0.125   3.185  0.5035  0.2719 -0.0328
   9823SM   H7S13260   7.130  -0.047   3.178 -0.1528  1.4649  3.4918
   9823SM   H7T13261   7.100  -0.224   3.182  2.2545  1.1049  0.1662
   9823SM   C8S13262   6.979  -0.126   3.323  0.1115 -0.1260 -0.7469
   9823SM   H8S13263   6.913  -0.214   3.335 -0.5557 -0.0229 -3.2012
   9823SM   H8T13264   6.906  -0.042   3.329  0.3465  0.0897 -0.8943
   9823SM   C9S13265   7.072  -0.115   3.447 -0.0833 -0.0842  0.0546
   9823SM   H9S13266   7.100  -0.008   3.450  1.5027 -0.4304 -1.1446
   9823SM   H9T13267   7.167  -0.169   3.429 -1.0651 -0.9461 -3.2028
   9823SM  C10S13268   7.002  -0.150   3.573 -0.1650  0.1750 -0.6960
   9823SM  H10S13269   6.981  -0.259   3.575 -1.6500  0.4372 -0.7448
   9823SM  H10T13270   6.907  -0.092   3.581  0.0148  0.4048 -0.1751
   9823SM  C11S13271   7.074  -0.114   3.706  0.0666 -0.0315 -0.7172
   9823SM  H11S13272   7.102  -0.007   3.694 -0.8087  0.2044 -0.7060
   9823SM  H11T13273   7.162  -0.181   3.718 -0.6292 -0.5424  2.4507
   9823SM  C12S13274   6.984  -0.133   3.832 -0.6110 -0.8116  0.4098
   9823SM  H12S13275   6.901  -0.062   3.815  0.5856  0.3013 -1.1153
   9823SM  H12T13276   7.033  -0.091   3.923 -0.4815  2.9869 -1.2487
   9823SM  C13S13277   6.939  -0.272   3.847 -0.7912 -0.1530  0.0447
   9823SM  H13S13278   7.005  -0.353   3.809  0.1992 -0.4019  2.1483
   9823SM  H13T13279   6.851  -0.290   3.782  1.2506 -1.8689 -2.4398
   9823SM  C14S13280   6.877  -0.297   3.988 -0.0128 -0.1565  0.6222
   9823SM  H14S13281   6.808  -0.213   4.009 -0.7935 -0.5851 -0.1447
   9823SM  H14T13282   6.957  -0.300   4.064  1.2358 -0.9574 -0.6616
   9823SM  C15S13283   6.792  -0.426   3.988  0.0865 -0.0921  0.0945
   9823SM  H15S13284   6.826  -0.496   3.910  1.0847  0.3015  0.1621
   9823SM  H15T13285   6.685  -0.399   3.970  0.1790  1.0071  1.0443
   9823SM  C16S13286   6.789  -0.487   4.128 -0.0577  0.0307  0.4275
   9823SM  H16S13287   6.763  -0.409   4.203  2.5321  1.0345  0.3506
   9823SM  H16T13288   6.892  -0.517   4.156 -0.9035 -2.6442  0.9601
   9823SM  C17S13289   6.690  -0.606   4.145  0.1593 -0.2285 -0.6648
   9823SM  H17S13290   6.674  -0.663   4.051 -1.3207  0.3140 -0.7569
   9823SM  H17T13291   6.592  -0.568   4.178  0.5423 -0.0483  0.2880
   9823SM  C18S13292   6.733  -0.711   4.240  0.0542  0.4077 -0.8805
   9823SM  H18S13293   6.842  -0.733   4.233  0.6375  1.1099  3.2742
   9823SM  H18T13294   6.679  -0.807   4.225 -0.4016  0.8517 -2.2908
   9823SM  H18U13295   6.717  -0.677   4.344  3.4987 -0.9994  0.2489
   9823SM   C1F13296   7.382   0.226   2.896  0.1371 -0.0105 -0.1940
   9823SM    OF13297   7.355   0.324   2.836  0.1352 -0.0121 -0.6673
   9823SM   C2F13298   7.491   0.228   3.004  0.3721  0.2799  0.5462
   9823SM   H2F13299   7.589   0.244   2.954  0.2015  3.1786  0.9486
   9823SM   H2G13300   7.495   0.128   3.052  0.6043 -0.6285 -1.2928
   9823SM   C3F13301   7.478   0.338   3.112 -0.2668 -0.0327 -0.5288
   9823SM   H3F13302   7.503   0.437   3.069 -0.8513  0.7256  0.8085
   9823SM   H3G13303   7.546   0.312   3.197  0.0359  1.7583 -0.1731
   9823SM   C4F13304   7.335   0.367   3.164 -0.2640 -0.7253 -0.1403
   9823SM   H4F13305   7.274   0.409   3.082 -1.2135 -0.7603  0.5331
   9823SM   H4G13306   7.346   0.447   3.239  0.3021  0.5497 -1.5338
   9823SM   C5F13307   7.263   0.246   3.223 -0.2532 -0.7377 -0.3907
   9823SM   H5F13308   7.323   0.202   3.306 -2.0664 -1.4863  0.6169
   9823SM   H5G13309   7.237   0.177   3.140 -2.1572 -1.3394  0.6209
   9823SM   C6F13310   7.125   0.273   3.293 -0.4487  0.1407  0.7854
   9823SM   H6F13311   7.056   0.186   3.285 -1.4849  0.9930  0.1276
   9823SM   H6G13312   7.079   0.364   3.248 -1.1169  0.0270  1.2202
   9823SM   C7F13313   7.145   0.311   3.439  0.3069  0.3567  0.1469
   9823SM   H7F13314   7.203   0.405   3.441  1.0538  0.0561 -2.6824
   9823SM   H7G13315   7.203   0.234   3.495  0.7615  0.9510  0.5033
   9823SM   C8F13316   7.012   0.320   3.512  0.2344  0.1208  0.0814
   9823SM   H8F13317   6.953   0.226   3.514 -1.5581  1.2083  0.7550
   9823SM   H8G13318   6.948   0.396   3.461  0.2427 -0.2044 -0.4110
   9823SM   C9F13319   7.035   0.356   3.658 -1.0019 -0.0277 -0.0124
   9823SM   H9F13320   7.098   0.447   3.656 -3.1435  1.5752 -2.6456
   9823SM   H9G13321   7.099   0.278   3.704 -0.3068 -0.5055 -1.6998
   9823SM  C10F13322   6.905   0.379   3.725 -0.2311 -0.9936  0.2618
   9823SM  H10F13323   6.845   0.447   3.662  1.3864 -0.2658 -0.5419
   9823SM  H10G13324   6.924   0.413   3.830 -3.3025  0.6310  0.4016
   9823SM  C11F13325   6.817   0.254   3.746 -0.3178  0.2837 -0.0262
   9823SM  H11F13326   6.889   0.175   3.775  2.2286  2.9358  1.3982
   9823SM  H11G13327   6.784   0.222   3.645  0.2805 -0.7541  0.0862
   9823SM  C12F13328   6.700   0.280   3.843  0.3576  1.1297 -0.1237
   9823SM  H12F13329   6.629   0.197   3.822  0.4080  1.3409 -1.2039
   9823SM  H12G13330   6.640   0.368   3.812  0.6614  0.6586 -2.2012
   9823SM  C13F13331   6.735   0.297   3.990 -0.3817 -0.2852  0.2540
   9823SM  H13F13332   6.639   0.312   4.044 -1.2491  1.5512 -1.6542
   9823SM  H13G13333   6.805   0.378   4.017  2.2806 -2.7660  1.3540
   9823SM  C14F13334   6.810   0.174   4.039  0.7706  0.2335 -0.1522
   9823SM  H14F13335   6.918   0.191   4.018  1.1481 -1.1274  0.5491
   9823SM  H14G13336   6.773   0.087   3.981  0.5393 -1.0998  1.8957
   9823SM  C15F13337   6.786   0.140   4.184  0.3067  0.0694 -0.6301
   9823SM  H15F13338   6.676   0.136   4.194  0.3813  0.0271  0.3392
   9823SM  H15G13339   6.835   0.226   4.234 -0.2094  0.1848 -0.3217
   9823SM  C16F13340   6.858   0.013   4.222 -0.1053 -0.0300  0.7644
   9823SM  H16F13341   6.963   0.021   4.187 -0.5021 -0.7816 -0.7265
   9823SM  H16G13342   6.812  -0.072   4.167 -0.8801  1.3650 -0.8390
   9823SM  C17F13343   6.861  -0.013   4.371 -0.8631  0.5600 -0.5949
   9823SM  H17F13344   6.756  -0.005   4.407 -0.6310 -0.0244  0.2082
   9823SM  H17G13345   6.935   0.060   4.410 -0.1742  1.2390 -2.9683
   9823SM  C18F13346   6.917  -0.154   4.409 -0.6095 -0.8272  0.5007
   9823SM  H18F13347   7.009  -0.170   4.349 -0.9942  0.6274 -0.5445
   9823SM  H18G13348   6.837  -0.227   4.385 -2.9827  1.2429  1.6747
   9823SM  C19F13349   6.955  -0.165   4.564  0.2662  0.0056  0.2383
   9823SM  H19F13350   7.053  -0.115   4.579  0.1386  0.0980  0.8039
   9823SM  H19G13351   6.973  -0.271   4.592  1.5513  0.2197  0.2644
   9823SM  C20F13352   6.849  -0.096   4.653 -0.3253  0.2303 -0.2818
   9823SM  H20F13353   6.747  -0.116   4.614  0.0615 -2.9885  0.0651
   9823SM  H20G13354   6.860   0.013   4.638  1.6019 -0.0471 -1.0965
   9823SM  C21F13355   6.865  -0.137   4.794  0.1758  0.6893 -0.1792
   9823SM  H21F13356   6.967  -0.108   4.826  0.4606  1.5724 -1.7852
   9823SM  H21G13357   6.870  -0.247   4.810 -0.8524  0.6777  0.1374
   9823SM  C22F13358   6.756  -0.097   4.896  0.0212  0.8387 -0.1820
   9823SM  H22F13359   6.718   0.006   4.882 -0.2105  0.3917 -3.7644
   9823SM  H22G13360   6.787  -0.107   5.002  1.0472  2.9904 -0.2177
   9823SM  C23F13361   6.630  -0.184   4.869  0.3910  0.5553 -0.5989
   9823SM  H23F13362   6.660  -0.288   4.892 -0.7395  0.2437 -0.4625
   9823SM  H23G13363   6.602  -0.190   4.762  0.4119 -0.9375 -0.5347
   9823SM  H23H13364   6.543  -0.154   4.931 -0.5059 -0.0844 -1.5264
   9923SM     N13365   1.527   0.017   2.051 -0.5238 -0.0007 -0.3028
   9923SM   C1513366   1.479  -0.108   1.992 -0.0175  0.1785  0.1451
   9923SM  H15A13367   1.484  -0.110   1.884  0.3655  0.1968  0.1608
   9923SM  H15B13368   1.376  -0.129   2.020 -0.7068  2.4871 -0.3935
   9923SM  H15C13369   1.539  -0.188   2.031 -3.8552 -2.3369  1.4114
   9923SM   C1413370   1.675   0.018   2.038 -0.5134  0.1514  0.0665
   9923SM  H14A13371   1.719   0.091   2.105 -1.3772 -0.5384  1.4224
   9923SM  H14B13372   1.707   0.046   1.938 -1.9820  1.6755 -0.0225
   9923SM  H14C13373   1.715  -0.080   2.058  0.4909  0.3790 -0.6668
   9923SM   C1313374   1.473   0.140   1.982 -0.0720 -0.8315 -0.0871
   9923SM  H13A13375   1.366   0.152   1.978 -0.1159 -1.2764 -0.2377
   9923SM  H13B13376   1.515   0.153   1.884  0.5345 -0.3336  0.2269
   9923SM  H13C13377   1.508   0.222   2.043 -0.4190 -0.2154 -0.7033
   9923SM   C1213378   1.494   0.010   2.199 -0.0646 -0.9541  0.0674
   9923SM  H12A13379   1.533   0.100   2.244  0.7287 -0.7651 -0.9529
   9923SM  H12B13380   1.552  -0.065   2.251 -1.1297 -0.7357  1.6545
   9923SM   C1113381   1.350  -0.022   2.245  0.3580  0.0386  0.1281
   9923SM  H11A13382   1.287   0.043   2.181 -0.0678 -0.5823 -0.0967
   9923SM  H11B13383   1.333   0.020   2.347 -1.6960 -0.1946 -0.0652
   9923SM     P13384   1.347  -0.267   2.337 -0.2411 -0.1895  0.2898
   9923SM   O1313385   1.242  -0.359   2.311 -0.5106  0.9651  0.9119
   9923SM   O1413386   1.484  -0.322   2.337 -0.1930 -0.6227 -0.3149
   9923SM   O1113387   1.314  -0.188   2.471  0.3974 -0.0619  0.2714
   9923SM   O1213388   1.321  -0.158   2.231 -0.1764  0.2601  0.0366
   9923SM   C1S13389   1.205  -0.230   2.551  0.0666  0.0117  0.2228
   9923SM   H1S13390   1.139  -0.311   2.515  0.4050 -1.2622  2.2810
   9923SM   H1T13391   1.132  -0.150   2.575 -1.4434 -1.4436  0.5883
   9923SM    NF13392   1.156  -0.345   2.763 -0.0576  0.0344  0.3044
   9923SM   HNF13393   1.129  -0.291   2.842  0.9764  2.5697 -0.9445
   9923SM   C2S13394   1.270  -0.287   2.690  0.1795 -0.7783  0.1650
   9923SM   H2S13395   1.335  -0.371   2.660  0.2595 -0.2421 -1.2521
   9923SM   C3S13396   1.332  -0.160   2.764 -0.3149 -0.6454  0.1195
   9923SM   H3S13397   1.257  -0.083   2.793  0.2249 -0.1045  0.0911
   9923SM    O313398   1.431  -0.089   2.688 -0.3192 -0.2766 -0.9054
   9923SM   HO313399   1.400  -0.112   2.600 -1.1095 -2.7867 -0.0794
   9923SM   C4S13400   1.392  -0.209   2.898 -0.0875  0.1344 -0.8985
   9923SM   H4S13401   1.460  -0.295   2.895 -0.8372 -0.7257  2.6784
   9923SM   C5S13402   1.354  -0.176   3.024  0.6893 -0.2334  0.5454
   9923SM   H5S13403   1.275  -0.101   3.032 -2.6260 -3.3249 -0.6673
   9923SM   C6S13404   1.417  -0.238   3.141 -0.0679 -0.0544 -0.8739
   9923SM   H6S13405   1.452  -0.166   3.218  0.6479  0.4192 -1.6198
   9923SM   H6T13406   1.504  -0.304   3.120  1.8776  2.2458 -0.4106
   9923SM   C7S13407   1.309  -0.326   3.217 -0.5118 -0.2625  0.4023
   9923SM   H7S13408   1.237  -0.255   3.262 -0.8557 -2.4419  3.6900
   9923SM   H7T13409   1.363  -0.371   3.303 -0.9094 -0.7631  0.3991
   9923SM   C8S13410   1.222  -0.433   3.145 -0.0974  0.0630 -0.0287
   9923SM   H8S13411   1.280  -0.526   3.124 -0.3382  0.1314 -1.0639
   9923SM   H8T13412   1.197  -0.390   3.045  2.7162  0.8830 -0.4863
   9923SM   C9S13413   1.098  -0.483   3.216 -0.4281  0.2023 -0.1143
   9923SM   H9S13414   1.043  -0.548   3.144 -1.2493  0.3981  0.3140
   9923SM   H9T13415   1.021  -0.404   3.229  0.5873  1.4247 -1.2580
   9923SM  C10S13416   1.126  -0.558   3.346 -0.1204  0.1548 -0.2785
   9923SM  H10S13417   1.221  -0.615   3.341 -0.2787 -0.5623  2.8831
   9923SM  H10T13418   1.044  -0.632   3.358 -0.0968  0.3518  1.2769
   9923SM  C11S13419   1.134  -0.472   3.472 -0.0810 -0.1971  0.0073
   9923SM  H11S13420   1.043  -0.407   3.476 -1.4170 -1.9200 -1.0040
   9923SM  H11T13421   1.225  -0.408   3.466 -0.5279  0.3775 -0.8745
   9923SM  C12S13422   1.129  -0.553   3.599 -0.6084  0.5398  0.3474
   9923SM  H12S13423   1.206  -0.632   3.601  1.0505  2.0963  1.0057
   9923SM  H12T13424   1.039  -0.619   3.603  1.5572 -2.5888  1.7193
   9923SM  C13S13425   1.126  -0.467   3.724  0.2159 -0.0730 -0.6702
   9923SM  H13S13426   1.036  -0.401   3.726  0.0609 -0.3001  0.3152
   9923SM  H13T13427   1.211  -0.398   3.710  0.1899 -0.4682 -3.3416
   9923SM  C14S13428   1.140  -0.532   3.860  0.9051  0.2115 -0.1230
   9923SM  H14S13429   1.241  -0.578   3.865  1.1504  0.7629  0.0607
   9923SM  H14T13430   1.064  -0.611   3.875 -1.1610  2.0808 -0.1319
   9923SM  C15S13431   1.143  -0.430   3.974  0.2035  0.3248 -0.0444
   9923SM  H15S13432   1.041  -0.389   3.983  0.1124 -0.0380  0.7004
   9923SM  H15T13433   1.221  -0.355   3.950  0.2424  0.3732  0.2241
   9923SM  C16S13434   1.179  -0.492   4.115 -0.6257  0.5445  1.0055
   9923SM  H16S13435   1.281  -0.534   4.103 -0.8925 -0.1941  1.2755
   9923SM  H16T13436   1.121  -0.577   4.158  0.3523 -0.2203  0.8614
   9923SM  C17S13437   1.177  -0.380   4.228 -0.2195  0.0122 -0.2347
   9923SM  H17S13438   1.223  -0.288   4.185  0.7449 -0.4924 -0.3199
   9923SM  H17T13439   1.231  -0.416   4.318 -1.6775 -1.6337  0.0323
   9923SM  C18S13440   1.040  -0.344   4.271  0.3762  0.1412  0.4269
   9923SM  H18S13441   0.965  -0.330   4.190  0.5007 -1.8460 -0.0978
   9923SM  H18T13442   1.043  -0.251   4.331 -0.8055  0.0102  0.7259
   9923SM  H18U13443   0.989  -0.427   4.325 -0.2050 -0.1140 -0.4888
   9923SM   C1F13444   1.102  -0.464   2.730 -0.4614  0.1826  0.2072
   9923SM    OF13445   1.149  -0.520   2.627 -0.0905  0.2337 -0.5415
   9923SM   C2F13446   1.007  -0.533   2.814 -0.0435  1.0487 -0.2528
   9923SM   H2F13447   1.038  -0.517   2.920 -3.4217  1.3002  0.8129
   9923SM   H2G13448   1.018  -0.643   2.799  3.6238  0.8599  2.4104
   9923SM   C3F13449   0.863  -0.482   2.815  0.8015  0.3484  0.0575
   9923SM   H3F13450   0.818  -0.475   2.713  1.5172 -0.5158 -0.3306
   9923SM   H3G13451   0.869  -0.383   2.865  2.0155  0.5070 -0.3735
   9923SM   C4F13452   0.762  -0.557   2.906 -0.4679 -0.3263 -0.1983
   9923SM   H4F13453   0.808  -0.568   3.006  0.6760 -0.7026 -0.7482
   9923SM   H4G13454   0.754  -0.662   2.871  1.2303 -1.8594  3.5542
   9923SM   C5F13455   0.628  -0.482   2.917 -0.3209 -0.3628  0.2848
   9923SM   H5F13456   0.553  -0.550   2.964 -1.0885 -0.1495 -0.5943
   9923SM   H5G13457   0.579  -0.465   2.818  2.4650  2.3092 -0.7804
   9923SM   C6F13458   0.639  -0.349   2.996 -0.2791  0.7010 -0.4585
   9923SM   H6F13459   0.675  -0.263   2.935  0.4270  1.3117  0.7582
   9923SM   H6G13460   0.706  -0.358   3.085  0.0564  1.1453 -0.6592
   9923SM   C7F13461   0.501  -0.312   3.055 -0.0512 -0.2473  0.1801
   9923SM   H7F13462   0.449  -0.402   3.095  0.6361 -1.4168 -1.4615
   9923SM   H7G13463   0.428  -0.275   2.980 -0.3269 -1.8232 -0.3834
   9923SM   C8F13464   0.513  -0.208   3.162  0.2248  0.0943 -0.1125
   9923SM   H8F13465   0.549  -0.118   3.109  0.5641  1.1482  1.8112
   9923SM   H8G13466   0.590  -0.239   3.237 -0.3559 -2.3405 -0.4260
   9923SM   C9F13467   0.377  -0.178   3.233 -0.4590 -0.2364 -0.0063
   9923SM   H9F13468   0.336  -0.260   3.295 -0.8694 -0.9630 -1.1950
   9923SM   H9G13469   0.304  -0.153   3.153 -0.2037 -0.3099 -0.2665
   9923SM  C10F13470   0.379  -0.052   3.314  0.4222 -0.1480 -0.3340
   9923SM  H10F13471   0.275  -0.018   3.336  0.7914  1.2966 -0.7575
   9923SM  H10G13472   0.432   0.030   3.262  1.9777 -1.0706 -0.2435
   9923SM  C11F13473   0.439  -0.083   3.453  0.3849  0.5056  0.3102
   9923SM  H11F13474   0.542  -0.044   3.442 -0.1768  2.1470  0.6854
   9923SM  H11G13475   0.446  -0.194   3.464  0.3297  0.1021 -2.7536
   9923SM  C12F13476   0.370  -0.009   3.570 -0.2881 -0.1297 -0.1658
   9923SM  H12F13477   0.268  -0.053   3.566 -0.1968 -0.3354 -3.6711
   9923SM  H12G13478   0.360   0.099   3.550 -0.0826  0.4573  2.5207
   9923SM  C13F13479   0.443  -0.040   3.696 -0.0186 -0.5241 -0.3660
   9923SM  H13F13480   0.548  -0.015   3.673 -0.5893  1.7128 -0.7858
   9923SM  H13G13481   0.447  -0.148   3.719  0.7869 -0.0340  2.1697
   9923SM  C14F13482   0.381   0.029   3.825  0.3360  0.9250 -0.5839
   9923SM  H14F13483   0.380   0.139   3.814  0.9532  1.2839  2.1858
   9923SM  H14G13484   0.455   0.008   3.905  0.5574  2.3962 -0.3825
   9923SM  C15F13485   0.241  -0.028   3.868  0.0621  0.4605  0.8724
   9923SM  H15F13486   0.258  -0.134   3.894  1.0120  0.1221 -0.9985
   9923SM  H15G13487   0.183  -0.015   3.774  2.0802 -1.6881 -0.7665
   9923SM  C16F13488   0.172   0.044   3.984  0.1542  0.1823 -0.9067
   9923SM  H16F13489   0.068   0.007   3.993  0.5928 -1.1718 -1.2322
   9923SM  H16G13490   0.162   0.152   3.959  0.5968  0.3004 -0.5842
   9923SM  C17F13491   0.250   0.035   4.117  0.3737 -0.1735 -0.0806
   9923SM  H17F13492   0.345   0.090   4.104 -0.1301  0.7810  0.1763
   9923SM  H17G13493   0.276  -0.073   4.128  1.3010  0.0264 -0.2769
   9923SM  C18F13494   0.177   0.096   4.235  0.4866 -0.1198 -0.0865
   9923SM  H18F13495   0.081   0.042   4.254  0.6543 -1.0764 -1.7843
   9923SM  H18G13496   0.150   0.200   4.208 -1.8743 -0.0500  2.1196
   9923SM  C19F13497   0.260   0.097   4.361 -0.1074 -0.1530  0.0299
   9923SM  H19F13498   0.352   0.153   4.333  0.5554 -0.7495  0.9618
   9923SM  H19G13499   0.283  -0.007   4.390 -0.2406  0.2622  1.6867
   9923SM  C20F13500   0.190   0.164   4.481 -0.4227  0.5840 -0.7886
   9923SM  H20F13501   0.145   0.262   4.457  0.7520  1.1812 -0.6550
   9923SM  H20G13502   0.264   0.199   4.557 -0.6032 -0.2311 -0.2193
   9923SM  C21F13503   0.079   0.072   4.549 -0.2566  0.2234 -0.1000
   9923SM  H21F13504   0.042   0.007   4.467 -1.4124 -0.4586  0.9300
   9923SM  H21G13505  -0.010   0.134   4.574 -1.1084 -0.7725 -0.5721
   9923SM  C22F13506   0.119  -0.004   4.680 -0.1605  0.1777 -0.1701
   9923SM  H22F13507   0.036  -0.067   4.717  0.2465  0.7086  1.7871
   9923SM  H22G13508   0.116   0.070   4.763  1.0597  2.7091 -2.2349
   9923SM  C23F13509   0.262  -0.071   4.672  0.8864  0.5266  0.0492
   9923SM  H23F13510   0.287  -0.131   4.763  0.8108  1.0006  0.3860
   9923SM  H23G13511   0.339   0.008   4.659  0.5648  0.4382 -3.0100
   9923SM  H23H13512   0.270  -0.135   4.581  2.2044  1.4509 -0.5157
  10023SM     N13513   0.795   7.426   2.318 -0.1416  0.0544 -0.1524
  10023SM   C1513514   0.710   7.547   2.293  0.3222 -0.9568 -0.1998
  10023SM  H15A13515   0.762   7.622   2.351  0.4355 -0.4747 -0.9201
  10023SM  H15B13516   0.607   7.536   2.324  0.5385  0.7829  1.2901
  10023SM  H15C13517   0.717   7.575   2.189 -1.8286  0.6393  0.0068
  10023SM   C1413518   0.752   7.330   2.214  0.3672 -0.4499 -0.6116
  10023SM  H14A13519   0.779   7.363   2.115 -0.9505  0.2554 -0.7582
  10023SM  H14B13520   0.645   7.318   2.221  0.5686 -1.6095  1.0678
  10023SM  H14C13521   0.792   7.232   2.239 -0.0495 -0.1446  1.4127
  10023SM   C1313522   0.941   7.466   2.304  0.0342 -0.7650  0.1908
  10023SM  H13A13523   0.973   7.493   2.204  0.6890 -0.7004  0.4167
  10023SM  H13B13524   1.002   7.380   2.325  1.5860  0.7057  2.0114
  10023SM  H13C13525   0.963   7.545   2.373  1.6975 -0.6207 -0.4655
  10023SM   C1213526   0.781   7.386   2.466 -0.5864  0.0909  0.4333
  10023SM  H12A13527   0.836   7.293   2.480  0.1007  0.1910 -1.2745
  10023SM  H12B13528   0.679   7.364   2.492 -0.8193  0.2491 -0.3310
  10023SM   C1113529   0.824   7.482   2.583  0.6023 -0.6929  0.3831
  10023SM  H11A13530   0.934   7.484   2.598  0.6289 -0.8290  0.2174
  10023SM  H11B13531   0.782   7.440   2.677  2.5367  0.5592  1.8998
  10023SM     P13532   0.865   7.748   2.571 -0.0986  0.1788 -0.2271
  10023SM   O1313533   0.975   7.738   2.479 -0.2646 -0.2936  0.4531
  10023SM   O1413534   0.778   7.863   2.551  0.1655 -0.2919  0.5445
  10023SM   O1113535   0.923   7.750   2.721 -0.3160 -0.2182  0.1312
  10023SM   O1213536   0.773   7.619   2.570  0.2303 -0.1101  0.7829
  10023SM   C1S13537   0.848   7.803   2.827 -0.4379  0.0992 -0.3465
  10023SM   H1S13538   0.744   7.820   2.791 -0.2001  2.5755 -0.0534
  10023SM   H1T13539   0.890   7.902   2.854 -0.5175  0.3231 -1.0085
  10023SM    NF13540   0.773   7.812   3.055 -0.4317 -0.2572 -0.6152
  10023SM   HNF13541   0.844   7.839   3.120 -1.6120  0.1308  0.5518
  10023SM   C2S13542   0.825   7.717   2.957 -0.0011  0.1458  0.7146
  10023SM   H2S13543   0.756   7.634   2.932 -0.5372  0.2419  1.8137
  10023SM   C3S13544   0.958   7.660   3.001 -0.4323 -0.2927 -0.0330
  10023SM   H3S13545   1.037   7.737   3.012 -0.0147 -0.9092  1.5707
  10023SM    O313546   1.018   7.572   2.907 -0.5582  0.4809 -0.4529
  10023SM   HO313547   1.006   7.605   2.818 -0.8744 -1.7890 -1.3274
  10023SM   C4S13548   0.937   7.589   3.134  0.1870 -0.1761 -0.2607
  10023SM   H4S13549   0.904   7.484   3.129 -1.6215  0.1472  2.4750
  10023SM   C5S13550   0.957   7.640   3.253  0.4869  0.3964  0.1897
  10023SM   H5S13551   1.009   7.735   3.272 -0.1994  0.8603 -0.2252
  10023SM   C6S13552   0.929   7.554   3.373 -0.4793 -0.2624  0.5409
  10023SM   H6S13553   1.014   7.488   3.397 -0.4713 -0.3243  0.3430
  10023SM   H6T13554   0.834   7.497   3.363 -0.3060 -0.3153 -0.9820
  10023SM   C7S13555   0.906   7.647   3.497  0.1654 -0.2199  0.2417
  10023SM   H7S13556   0.848   7.739   3.472 -0.3185 -0.6700 -0.3237
  10023SM   H7T13557   1.011   7.679   3.516  0.8899 -1.7573 -0.9147
  10023SM   C8S13558   0.855   7.593   3.623  0.5441 -0.0844 -0.4431
  10023SM   H8S13559   0.902   7.495   3.648 -1.0329 -0.7781 -0.0830
  10023SM   H8T13560   0.746   7.572   3.621  0.2994  0.7001  1.6550
  10023SM   C9S13561   0.877   7.707   3.726  0.8355  0.0133 -0.1512
  10023SM   H9S13562   0.823   7.795   3.684 -0.2658 -1.6439 -2.4093
  10023SM   H9T13563   0.985   7.728   3.743  1.1878  0.0795 -2.2494
  10023SM  C10S13564   0.798   7.681   3.856 -0.7948 -0.0820 -0.0989
  10023SM  H10S13565   0.830   7.583   3.897  2.2203  0.8986  0.1398
  10023SM  H10T13566   0.690   7.669   3.830 -1.0621  0.2874  0.7908
  10023SM  C11S13567   0.816   7.790   3.961 -0.2084 -0.1902  0.2581
  10023SM  H11S13568   0.829   7.892   3.920  0.8907  0.3807  1.9114
  10023SM  H11T13569   0.909   7.767   4.019  0.6578 -0.0646 -1.0396
  10023SM  C12S13570   0.711   7.786   4.069 -0.6383  0.0788  0.6828
  10023SM  H12S13571   0.699   7.683   4.107  0.8066  0.6002  2.7250
  10023SM  H12T13572   0.612   7.813   4.025 -1.9250 -1.6721  2.3529
  10023SM  C13S13573   0.743   7.884   4.187  0.4825  0.1005  0.1987
  10023SM  H13S13574   0.735   7.992   4.162 -1.6378 -0.1133 -0.2953
  10023SM  H13T13575   0.847   7.867   4.220  0.4221 -0.6629  0.0062
  10023SM  C14S13576   0.649   7.861   4.307  0.1941 -0.0273 -0.1271
  10023SM  H14S13577   0.557   7.813   4.270  0.3478 -0.4766  0.0736
  10023SM  H14T13578   0.616   7.953   4.361 -1.1014 -2.2649  3.1836
  10023SM  C15S13579   0.710   7.759   4.404  0.0545 -0.3645  0.4842
  10023SM  H15S13580   0.783   7.819   4.462  0.1134  0.4511 -0.4158
  10023SM  H15T13581   0.754   7.674   4.348 -1.1042  1.0162 -2.7513
  10023SM  C16S13582   0.612   7.694   4.500 -0.4847 -0.5959 -0.4235
  10023SM  H16S13583   0.552   7.616   4.447 -1.4003 -0.6844  0.7048
  10023SM  H16T13584   0.537   7.761   4.547  0.9396  0.1265  0.8769
  10023SM  C17S13585   0.684   7.623   4.620  0.1632 -0.2841 -0.0121
  10023SM  H17S13586   0.760   7.551   4.583 -1.0260 -1.5232 -0.1544
  10023SM  H17T13587   0.609   7.552   4.662  2.3826 -1.3963  2.3650
  10023SM  C18S13588   0.744   7.701   4.736  0.1974 -0.6811  0.4018
  10023SM  H18S13589   0.789   7.635   4.813 -1.8684 -0.5391  1.8170
  10023SM  H18T13590   0.674   7.767   4.791  1.0973  1.7096 -1.1796
  10023SM  H18U13591   0.834   7.756   4.704  0.5332 -1.6698 -0.3998
  10023SM   C1F13592   0.645   7.853   3.049 -0.3676 -0.7038  0.5416
  10023SM    OF13593   0.570   7.804   2.964  0.5209 -0.3042 -0.6522
  10023SM   C2F13594   0.594   7.954   3.147 -0.3934 -0.3532 -0.5698
  10023SM   H2F13595   0.483   7.958   3.146 -0.3753  0.2753 -1.5448
  10023SM   H2G13596   0.635   8.052   3.114  1.6360 -1.1834 -0.6646
  10023SM   C3F13597   0.637   7.926   3.300  0.6238 -0.0869 -0.1866
  10023SM   H3F13598   0.741   7.956   3.324  0.6009 -1.7352  2.3400
  10023SM   H3G13599   0.624   7.817   3.319 -0.1339 -0.5328 -2.7983
  10023SM   C4F13600   0.559   8.016   3.398  0.3091 -0.1263 -0.0615
  10023SM   H4F13601   0.454   7.987   3.372 -0.1234  0.3486  1.0869
  10023SM   H4G13602   0.579   8.122   3.369 -0.1418  0.2533  0.9927
  10023SM   C5F13603   0.591   7.997   3.552 -0.5043 -0.2625  0.4189
  10023SM   H5F13604   0.696   8.017   3.581 -0.2535  0.9559 -1.2164
  10023SM   H5G13605   0.595   7.887   3.571 -2.3237 -0.4040  0.1278
  10023SM   C6F13606   0.491   8.065   3.644 -0.1097  0.2245  0.7518
  10023SM   H6F13607   0.394   8.010   3.644 -0.3830  0.6718 -0.4281
  10023SM   H6G13608   0.458   8.165   3.607  1.9165  0.9415  0.7900
  10023SM   C7F13609   0.532   8.084   3.790  0.0844  0.1306 -0.4939
  10023SM   H7F13610   0.612   8.161   3.791  0.5692 -0.3693 -0.3946
  10023SM   H7G13611   0.580   7.993   3.830  0.0273 -0.1316 -1.0163
  10023SM   C8F13612   0.408   8.126   3.874 -0.0290 -0.6886  0.1307
  10023SM   H8F13613   0.339   8.039   3.880 -2.5535  1.1849 -0.0032
  10023SM   H8G13614   0.359   8.212   3.823 -0.5006 -1.0690 -0.0607
  10023SM   C9F13615   0.436   8.159   4.024  0.4135 -0.3567 -0.1473
  10023SM   H9F13616   0.526   8.224   4.022 -0.3063  0.6680 -0.2418
  10023SM   H9G13617   0.452   8.070   4.089 -1.8686  1.2754  2.9348
  10023SM  C10F13618   0.325   8.232   4.096  0.1884 -0.1673  0.5927
  10023SM  H10F13619   0.233   8.170   4.086  0.5997 -0.6624 -0.2460
  10023SM  H10G13620   0.318   8.324   4.034 -0.6024  0.4011  1.5154
  10023SM  C11F13621   0.352   8.285   4.239  0.1547 -0.1370 -0.0832
  10023SM  H11F13622   0.275   8.362   4.263 -0.8166 -1.1879  0.2777
  10023SM  H11G13623   0.447   8.342   4.232  0.0660  0.3695  2.0498
  10023SM  C12F13624   0.353   8.184   4.352 -0.1150 -0.7004  0.2530
  10023SM  H12F13625   0.422   8.101   4.324 -1.0416 -1.8176  1.1708
  10023SM  H12G13626   0.255   8.133   4.360 -0.8457  0.3946 -1.4276
  10023SM  C13F13627   0.395   8.239   4.492  0.6752  0.0430  0.2315
  10023SM  H13F13628   0.311   8.289   4.546  1.9329  0.9558  1.3946
  10023SM  H13G13629   0.487   8.301   4.489  0.9488 -0.3940 -0.5973
  10023SM  C14F13630   0.445   8.133   4.591 -1.0341  0.4722 -0.0751
  10023SM  H14F13631   0.535   8.074   4.562 -0.7295  0.2618  1.2411
  10023SM  H14G13632   0.365   8.056   4.601 -0.9273  0.4449  0.6355
  10023SM  C15F13633   0.460   8.180   4.735 -0.4638  0.8407 -0.4680
  10023SM  H15F13634   0.365   8.228   4.768 -1.1643  0.3430 -1.6711
  10023SM  H15G13635   0.539   8.257   4.733  1.8347 -1.3714 -1.4959
  10023SM  C16F13636   0.499   8.064   4.828  0.0398 -0.5882 -0.3374
  10023SM  H16F13637   0.527   8.107   4.926  0.8631 -1.0738 -0.3538
  10023SM  H16G13638   0.590   8.019   4.784 -1.1363 -2.6420 -0.8460
  10023SM  C17F13639   0.377   7.966   4.852 -0.2123  1.1000 -0.4111
  10023SM  H17F13640   0.344   7.920   4.757  2.3272 -1.1283 -0.3309
  10023SM  H17G13641   0.291   8.027   4.889 -0.4093 -0.7866  2.6643
  10023SM  C18F13642   0.418   7.859   4.960  0.1194 -0.2286  0.2978
  10023SM  H18F13643   0.474   7.912   5.040  0.5369  0.4929 -0.4453
  10023SM  H18G13644   0.495   7.795   4.910 -0.6763  0.6897 -2.3019
  10023SM  C19F13645   0.302   7.802   5.030  0.1912  0.2677 -0.7885
  10023SM  H19F13646   0.247   7.734   4.961 -0.6336 -0.5053  0.5818
  10023SM  H19G13647   0.223   7.872   5.064  1.3177  0.6737  1.1218
  10023SM  C20F13648   0.341   7.714   5.158 -0.0858  0.0744 -0.0475
  10023SM  H20F13649   0.415   7.776   5.214  0.3953  1.4111 -2.0386
  10023SM  H20G13650   0.391   7.623   5.118  0.4491  1.0723 -1.7575
  10023SM  C21F13651   0.210   7.673   5.230 -0.1371  0.4222 -0.0234
  10023SM  H21F13652   0.131   7.652   5.155  0.4886 -2.4735  0.0101
  10023SM  H21G13653   0.167   7.751   5.296 -2.6558 -1.7558  1.0990
  10023SM  C22F13654   0.222   7.546   5.309  0.2855  0.4029 -0.0547
  10023SM  H22F13655   0.229   7.455   5.246 -0.2142  0.5898 -0.3886
  10023SM  H22G13656   0.123   7.526   5.357  1.3983 -1.7226  1.5374
  10023SM  C23F13657   0.330   7.565   5.413  0.5174  0.6715 -0.2892
  10023SM  H23F13658   0.375   7.467   5.440 -2.3325 -0.3470  1.1489
  10023SM  H23G13659   0.292   7.617   5.503  1.3590 -0.1555  0.5724
  10023SM  H23H13660   0.413   7.627   5.374  0.5343  1.9017  1.5975
  101CHL1    C313661   3.728   4.243   6.848 -0.1708  0.0725 -0.5679
  101CHL1    H313662   3.621   4.271   6.846 -0.2780 -0.2553  0.2514
  101CHL1    O313663   3.774   4.242   6.981 -0.6790  0.1267  0.0907
  101CHL1   H3'13664   3.830   4.165   6.988  0.1967  0.7577  0.1710
  101CHL1    C413665   3.765   4.110   6.777  0.3348  0.5455  0.0353
  101CHL1   H4A13666   3.874   4.087   6.775  0.3321  0.4611  0.6425
  101CHL1   H4B13667   3.721   4.017   6.820 -1.3889  0.1653 -2.4093
  101CHL1    C513668   3.726   4.100   6.635 -0.1690  0.0292 -0.2808
  101CHL1    C613669   3.638   4.014   6.583  0.9084  0.4503 -0.0370
  101CHL1    H613670   3.586   3.942   6.647  1.8888  0.4857  0.8192
  101CHL1    C713671   3.577   4.009   6.442  0.3453  0.2200  0.4397
  101CHL1   H7A13672   3.575   3.906   6.399  2.1992 -0.8402  2.6568
  101CHL1   H7B13673   3.473   4.049   6.449  0.8744  1.3361  3.0430
  101CHL1    C813674   3.670   4.092   6.347  0.4033  0.5720 -0.1038
  101CHL1    H813675   3.764   4.035   6.333  0.0805 -0.2930  1.0654
  101CHL1   C1413676   3.605   4.112   6.205  0.4856  0.7379  0.0748
  101CHL1   H1413677   3.507   4.156   6.233 -0.9048 -3.3582  2.4895
  101CHL1   C1513678   3.562   3.987   6.126 -0.8253  0.3936 -0.2420
  101CHL1  H15A13679   3.643   3.912   6.113 -2.2718 -0.8563 -2.7226
  101CHL1  H15B13680   3.480   3.941   6.186  0.9113  1.3135  3.0986
  101CHL1   C1613681   3.525   4.040   5.988 -0.8977  0.3714  0.0005
  101CHL1  H16A13682   3.575   3.987   5.905  0.8261  1.3830  0.3513
  101CHL1  H16B13683   3.415   4.032   5.972 -0.8826 -1.8379  0.6252
  101CHL1   C1713684   3.570   4.187   5.989  0.4349 -0.4191 -0.3058
  101CHL1   H1713685   3.476   4.240   6.014 -0.8323 -1.3846 -2.7155
  101CHL1   C1313686   3.668   4.205   6.104  1.0199 -0.3611  0.3146
  101CHL1   C1813687   3.792   4.142   6.047  0.3468  0.0738  0.0449
  101CHL1  H18A13688   3.846   4.228   6.001 -3.3731  2.6506  0.0276
  101CHL1  H18B13689   3.860   4.102   6.125  0.8606  0.4868 -0.1844
  101CHL1  H18C13690   3.774   4.054   5.982  0.2262 -0.7899  1.2253
  101CHL1   C1213691   3.689   4.341   6.173  0.2644 -0.4545 -0.3310
  101CHL1  H12A13692   3.729   4.420   6.106 -2.5073 -0.8486 -2.6185
  101CHL1  H12B13693   3.590   4.380   6.204  0.4265 -0.2169 -0.0999
  101CHL1   C1113694   3.776   4.319   6.302  0.5342 -0.5087 -0.5302
  101CHL1  H11A13695   3.878   4.282   6.280 -0.3255 -2.5900 -1.2946
  101CHL1  H11B13696   3.794   4.424   6.335  0.3827 -0.3092 -1.0645
  101CHL1    C913697   3.705   4.237   6.411  0.0885 -0.0478  0.4321
  101CHL1    H913698   3.600   4.267   6.434 -0.0402 -0.0390 -0.1412
  101CHL1   C1013699   3.777   4.221   6.546 -0.3689 -0.2058  0.1100
  101CHL1   C1913700   3.932   4.188   6.527 -0.3420  0.3209  0.1802
  101CHL1  H19A13701   3.929   4.091   6.473  0.7225  0.6192 -0.4428
  101CHL1  H19B13702   3.987   4.273   6.482 -1.3325  1.2902  0.7548
  101CHL1  H19C13703   3.979   4.171   6.626 -1.4880  0.8870  0.8465
  101CHL1    C113704   3.757   4.361   6.622  0.5857  0.0554  0.1345
  101CHL1   H1A13705   3.814   4.436   6.563  0.2309 -1.0805 -1.7316
  101CHL1   H1B13706   3.652   4.397   6.613  0.9429  0.6361 -3.9543
  101CHL1    C213707   3.800   4.353   6.776 -0.4642  0.4713  0.6331
  101CHL1   H2A13708   3.803   4.451   6.828 -1.0157 -0.2375  2.0570
  101CHL1   H2B13709   3.907   4.333   6.755 -0.2451  2.2031 -0.0789
  101CHL1   C2013710   3.601   4.240   5.844  0.1961 -0.1554  0.0274
  101CHL1   H2013711   3.694   4.196   5.802  0.2434 -0.2821  0.2638
  101CHL1   C2113712   3.627   4.391   5.854  0.3592 -0.0833  0.0594
  101CHL1  H21A13713   3.555   4.437   5.925  0.0738 -0.1473 -0.1853
  101CHL1  H21B13714   3.618   4.445   5.758  2.3487 -0.6621 -0.4832
  101CHL1  H21C13715   3.727   4.420   5.892 -0.5214  1.3124  1.4360
  101CHL1   C2213716   3.483   4.215   5.749 -0.5049 -0.0337 -0.0449
  101CHL1  H22A13717   3.450   4.109   5.746 -0.7798  0.0035  1.2547
  101CHL1  H22B13718   3.390   4.266   5.780 -0.1437  1.2228 -0.9554
  101CHL1   C2313719   3.520   4.251   5.607  0.1607  0.4195 -0.7642
  101CHL1  H23A13720   3.514   4.362   5.598 -0.7729  0.4578  0.1703
  101CHL1  H23B13721   3.626   4.222   5.594  0.2457  0.2936  0.1570
  101CHL1   C2413722   3.427   4.186   5.507  0.6899  0.0791 -0.5127
  101CHL1  H24A13723   3.452   4.077   5.506  1.2824  0.2002  0.5038
  101CHL1  H24B13724   3.323   4.190   5.545  0.4145 -5.1186  0.0514
  101CHL1   C2513725   3.421   4.229   5.357  0.1888  0.3126 -0.1290
  101CHL1   H2513726   3.518   4.229   5.303  0.2988  1.8324  0.0075
  101CHL1   C2613727   3.329   4.139   5.269 -0.2338 -0.0280 -0.1602
  101CHL1  H26A13728   3.315   4.180   5.166 -0.1331 -0.6881 -0.4433
  101CHL1  H26B13729   3.377   4.042   5.244 -1.8689 -1.3323  1.4196
  101CHL1  H26C13730   3.237   4.109   5.324 -0.3657 -0.3457 -0.5440
  101CHL1   C2713731   3.384   4.370   5.344 -0.2065 -0.4006  0.8612
  101CHL1  H27A13732   3.459   4.434   5.395  0.6613 -0.1782 -0.6461
  101CHL1  H27B13733   3.368   4.398   5.238  1.2304  0.9871  0.9723
  101CHL1  H27C13734   3.283   4.391   5.387  0.4162  0.9831  1.7164
  102CHL1    C313735   2.450   3.848   6.715 -0.5161  0.4931  0.0382
  102CHL1    H313736   2.560   3.843   6.729 -0.4091 -1.0152 -1.0533
  102CHL1    O313737   2.376   3.839   6.837  0.4296 -0.4595 -0.1733
  102CHL1   H3'13738   2.287   3.861   6.809  1.0365  2.3308 -0.1910
  102CHL1    C413739   2.422   3.986   6.651  0.0907  0.0320  0.2905
  102CHL1   H4A13740   2.312   4.004   6.655 -0.4276 -2.7524  1.2850
  102CHL1   H4B13741   2.477   4.063   6.709  0.5863 -0.6903  0.8090
  102CHL1    C513742   2.460   3.999   6.507  0.0547  0.5196 -0.8992
  102CHL1    C613743   2.526   4.103   6.455 -0.4687  0.4889  0.2149
  102CHL1    H613744   2.559   4.187   6.518  0.5321  0.2217  0.0750
  102CHL1    C713745   2.553   4.123   6.308  0.1605 -0.2421  0.6723
  102CHL1   H7A13746   2.509   4.223   6.284 -1.0432 -0.7266  0.7703
  102CHL1   H7B13747   2.662   4.118   6.291  0.0921 -1.5806  0.4925
  102CHL1    C813748   2.468   4.029   6.213 -0.4510 -1.0771 -0.2821
  102CHL1    H813749   2.365   4.071   6.207  0.9429  2.4739 -2.1760
  102CHL1   C1413750   2.531   4.035   6.070 -0.2095 -0.3196 -0.1994
  102CHL1   H1413751   2.633   3.995   6.088 -0.1926  0.0093  0.4819
  102CHL1   C1513752   2.544   4.173   6.007  0.1694  0.1667 -0.4102
  102CHL1  H15A13753   2.444   4.218   6.022 -1.1469 -3.4078  3.4155
  102CHL1  H15B13754   2.617   4.244   6.050  2.0436 -0.0186 -3.0352
  102CHL1   C1613755   2.585   4.130   5.861  0.2464  0.2780 -0.1202
  102CHL1  H16A13756   2.530   4.201   5.795  0.0299 -0.2973 -0.5692
  102CHL1  H16B13757   2.694   4.130   5.840  0.1174 -1.8833 -0.9570
  102CHL1   C1713758   2.539   3.977   5.841 -0.0861 -0.0991  0.5012
  102CHL1   H1713759   2.631   3.914   5.835 -0.0476 -0.0107  0.1553
  102CHL1   C1313760   2.465   3.939   5.972 -0.0282  0.0752  0.3458
  102CHL1   C1813761   2.316   3.976   5.959  0.2082  0.4371  0.1926
  102CHL1  H18A13762   2.267   3.921   5.876  0.9349  1.4405 -0.9413
  102CHL1  H18B13763   2.258   3.949   6.049  0.7156 -0.4395  0.2676
  102CHL1  H18C13764   2.302   4.084   5.933  1.5051  0.1185 -2.1213
  102CHL1   C1213765   2.487   3.796   6.028  0.8907  0.7962  0.1378
  102CHL1  H12A13766   2.443   3.716   5.965  0.3204  1.0354  0.2280
  102CHL1  H12B13767   2.594   3.765   6.036  0.8629 -0.5308 -3.0967
  102CHL1   C1113768   2.421   3.784   6.170 -0.3558  0.9499 -0.3922
  102CHL1  H11A13769   2.310   3.795   6.161 -0.3328  0.2121 -1.8479
  102CHL1  H11B13770   2.444   3.682   6.206 -2.5063  0.0923 -1.2796
  102CHL1    C913771   2.472   3.890   6.268  0.1086 -0.2479  0.1789
  102CHL1    H913772   2.582   3.875   6.279  0.0625  0.5377  2.2418
  102CHL1   C1013773   2.419   3.877   6.418 -0.1114 -0.1733  0.6752
  102CHL1   C1913774   2.263   3.873   6.402  0.8374 -0.0102  0.1036
  102CHL1  H19A13775   2.201   3.908   6.488 -2.0862 -0.6259 -1.6081
  102CHL1  H19B13776   2.219   3.929   6.317  2.6424  1.1560 -0.1009
  102CHL1  H19C13777   2.242   3.764   6.390 -0.5491  0.3373 -0.7765
  102CHL1    C113778   2.469   3.750   6.487 -0.3302  0.1078  1.0586
  102CHL1   H1A13779   2.445   3.660   6.425  1.0644  0.5997 -0.2656
  102CHL1   H1B13780   2.580   3.758   6.493 -0.3179  0.3933  0.5310
  102CHL1    C213781   2.417   3.731   6.629  0.1824 -0.0680 -0.0045
  102CHL1   H2A13782   2.460   3.638   6.670 -1.6996 -0.8155  0.3809
  102CHL1   H2B13783   2.307   3.717   6.617 -0.1479  2.4093 -0.3703
  102CHL1   C2013784   2.472   3.942   5.706 -0.5755  0.1686 -1.0550
  102CHL1   H2013785   2.372   3.991   5.702 -1.2490 -0.9362  0.9725
  102CHL1   C2113786   2.433   3.794   5.699 -0.4613  0.8156 -0.1399
  102CHL1  H21A13787   2.394   3.773   5.597  0.2318 -0.8576 -0.0979
  102CHL1  H21B13788   2.349   3.770   5.767 -0.4573 -0.4966 -0.5697
  102CHL1  H21C13789   2.518   3.724   5.713 -0.3478  1.5772  4.0017
  102CHL1   C2213790   2.552   3.981   5.580 -0.7426 -0.1508  1.0335
  102CHL1  H22A13791   2.580   4.089   5.583  2.4040 -0.8717  1.8096
  102CHL1  H22B13792   2.647   3.923   5.569  0.1682  1.6927 -2.7641
  102CHL1   C2313793   2.479   3.963   5.448 -0.1826 -0.3721 -0.2612
  102CHL1  H23A13794   2.469   3.855   5.422  0.1208 -0.0393 -1.8970
  102CHL1  H23B13795   2.377   4.005   5.448 -0.7007 -1.5784 -0.5313
  102CHL1   C2413796   2.555   4.028   5.331 -0.6946  0.2332 -0.1734
  102CHL1  H24A13797   2.561   4.136   5.353 -1.5416 -0.0879  1.8482
  102CHL1  H24B13798   2.656   3.982   5.319  0.0761  1.7005  0.5238
  102CHL1   C2513799   2.477   4.011   5.202  0.1346 -0.0444  0.6406
  102CHL1   H2513800   2.382   4.070   5.206  0.1889 -0.0352  2.9985
  102CHL1   C2613801   2.567   4.064   5.085  0.0801 -0.2431 -0.1443
  102CHL1  H26A13802   2.555   4.174   5.086 -0.7901 -0.3065  1.8792
  102CHL1  H26B13803   2.674   4.035   5.098 -0.3190 -1.0605  1.6579
  102CHL1  H26C13804   2.519   4.018   4.997 -1.8687 -3.0394  2.1752
  102CHL1   C2713805   2.438   3.862   5.175 -0.0757 -0.4381 -0.3957
  102CHL1  H27A13806   2.371   3.818   5.252 -0.1176  0.7329  0.2632
  102CHL1  H27B13807   2.390   3.843   5.077  1.8554  1.1729 -1.7233
  102CHL1  H27C13808   2.529   3.799   5.178  1.1201  1.2306 -0.5409
  103CHL1    C313809   2.332   3.229   6.741  0.3426 -0.0498 -0.6436
  103CHL1    H313810   2.394   3.139   6.719  1.0935  1.1289 -4.0509
  103CHL1    O313811   2.328   3.247   6.880  0.3445 -0.4315 -0.4300
  103CHL1   H3'13812   2.410   3.288   6.909 -1.3036  0.3691  3.8707
  103CHL1    C413813   2.395   3.349   6.674  0.5053  0.0903  0.4064
  103CHL1   H4A13814   2.340   3.436   6.717 -0.9537 -0.8936  0.6259
  103CHL1   H4B13815   2.494   3.365   6.722 -0.1274 -0.1553  1.8747
  103CHL1    C513816   2.396   3.349   6.521 -0.0233 -0.8789  0.2644
  103CHL1    C613817   2.513   3.362   6.450  0.1898  0.0100 -0.4154
  103CHL1    H613818   2.606   3.373   6.508 -0.7759 -2.1100  1.6771
  103CHL1    C713819   2.518   3.359   6.295  0.8143  0.6617  0.2372
  103CHL1   H7A13820   2.583   3.434   6.245 -0.1773 -0.8596 -3.6698
  103CHL1   H7B13821   2.564   3.259   6.280  0.2757 -0.1784  3.3386
  103CHL1    C813822   2.376   3.373   6.238 -0.5089  0.2268  0.4955
  103CHL1    H813823   2.354   3.482   6.242 -0.7357  0.5700 -4.1570
  103CHL1   C1413824   2.388   3.337   6.090 -0.4077 -0.0282  0.5102
  103CHL1   H1413825   2.418   3.230   6.096  1.3608  0.4015  0.1233
  103CHL1   C1513826   2.498   3.406   6.011  0.1378 -0.2543  0.3322
  103CHL1  H15A13827   2.498   3.515   6.035  0.3472 -0.7000  2.5518
  103CHL1  H15B13828   2.606   3.388   6.032  0.9984  2.6864 -0.9758
  103CHL1   C1613829   2.447   3.394   5.867  0.4549  0.1896  0.0942
  103CHL1  H16A13830   2.453   3.494   5.820  1.2408 -0.2485 -0.7672
  103CHL1  H16B13831   2.525   3.323   5.830  1.0424  0.0017  1.5909
  103CHL1   C1713832   2.305   3.328   5.874  0.4004  0.2379 -0.0432
  103CHL1   H1713833   2.322   3.218   5.879 -0.0481  0.1569 -0.3300
  103CHL1   C1313834   2.257   3.361   6.015  0.5056  0.4836 -0.4792
  103CHL1   C1813835   2.213   3.511   6.023 -0.1101  0.3498 -0.1845
  103CHL1  H18A13836   2.182   3.529   6.129  0.3936  1.5352 -0.2228
  103CHL1  H18B13837   2.294   3.576   5.985 -0.0926 -0.0828 -0.9089
  103CHL1  H18C13838   2.122   3.527   5.960  0.7365  3.1108 -0.8362
  103CHL1   C1213839   2.149   3.261   6.077  0.2314 -0.5483  0.2604
  103CHL1  H12A13840   2.045   3.287   6.045 -0.0158 -0.4927  1.0952
  103CHL1  H12B13841   2.164   3.156   6.047 -2.4472 -1.5991  2.2103
  103CHL1   C1113842   2.138   3.271   6.232  0.1251  0.3720  0.1064
  103CHL1  H11A13843   2.071   3.350   6.274 -0.8183  0.5540 -1.6704
  103CHL1  H11B13844   2.080   3.179   6.251 -0.7800  0.5885 -1.4694
  103CHL1    C913845   2.277   3.283   6.310 -0.2208 -0.2259  1.1027
  103CHL1    H913846   2.315   3.179   6.306 -1.7613 -0.8683  2.0503
  103CHL1   C1013847   2.260   3.323   6.461  0.4113  0.2347  0.2409
  103CHL1   C1913848   2.167   3.449   6.488 -0.1841 -0.0953  0.4229
  103CHL1  H19A13849   2.170   3.479   6.595  0.0632  3.4696 -0.4395
  103CHL1  H19B13850   2.212   3.535   6.434  1.8037  0.2942  2.5043
  103CHL1  H19C13851   2.061   3.435   6.461  0.0123 -0.9481  0.0737
  103CHL1    C113852   2.191   3.202   6.519 -0.0603 -0.4095 -0.5101
  103CHL1   H1A13853   2.083   3.191   6.496 -0.3757  0.4492  0.4691
  103CHL1   H1B13854   2.244   3.107   6.499 -0.8149 -0.9053 -0.2045
  103CHL1    C213855   2.189   3.207   6.677 -0.4109 -0.2324  0.0889
  103CHL1   H2A13856   2.151   3.111   6.717  0.3321 -0.3423  0.5347
  103CHL1   H2B13857   2.122   3.291   6.708 -0.0054  0.6145 -1.2317
  103CHL1   C2013858   2.221   3.374   5.752  0.7706  0.2827 -0.2445
  103CHL1   H2013859   2.216   3.485   5.751  2.5035  0.3793 -0.2449
  103CHL1   C2113860   2.079   3.312   5.770  0.2447  0.8142  0.5293
  103CHL1  H21A13861   2.020   3.371   5.844  0.6284  0.9135  0.7550
  103CHL1  H21B13862   2.091   3.207   5.806 -3.1918 -0.2559 -1.0088
  103CHL1  H21C13863   2.021   3.285   5.679  0.7957  0.6329  0.2280
  103CHL1   C2213864   2.282   3.343   5.615 -0.5632  0.1281 -0.0205
  103CHL1  H22A13865   2.390   3.368   5.609 -0.4928 -0.0140  0.6434
  103CHL1  H22B13866   2.275   3.235   5.592  2.0056  0.1430 -1.1924
  103CHL1   C2313867   2.213   3.423   5.508 -0.2322 -0.0722 -0.0538
  103CHL1  H23A13868   2.104   3.404   5.516 -0.1196 -1.2001 -0.8905
  103CHL1  H23B13869   2.249   3.528   5.512 -0.7289  0.1731 -1.4115
  103CHL1   C2413870   2.267   3.365   5.373 -0.3125 -0.1131 -0.0804
  103CHL1  H24A13871   2.377   3.369   5.385  0.0746  0.1280 -3.0393
  103CHL1  H24B13872   2.235   3.259   5.370  2.0615 -0.8585 -2.1673
  103CHL1   C2513873   2.234   3.450   5.258 -0.5046 -0.7640 -0.2116
  103CHL1   H2513874   2.267   3.554   5.276  2.9643 -1.7126 -0.4583
  103CHL1   C2613875   2.322   3.415   5.135  0.4010  1.0200 -0.4098
  103CHL1  H26A13876   2.297   3.311   5.105  0.7178  1.1622 -1.1993
  103CHL1  H26B13877   2.297   3.482   5.050  2.3022  1.3407 -0.7784
  103CHL1  H26C13878   2.432   3.415   5.155  0.1814 -1.2351  1.0599
  103CHL1   C2713879   2.086   3.461   5.227  0.5847  0.3610 -0.2645
  103CHL1  H27A13880   2.061   3.506   5.128 -0.4115  0.3134 -0.0416
  103CHL1  H27B13881   2.046   3.357   5.226 -0.7221  0.8038  1.7513
  103CHL1  H27C13882   2.030   3.518   5.303  1.9904  1.1045  0.2483
  104CHL1    C313883   6.432   3.392   6.800  0.4866  0.2095 -0.3480
  104CHL1    H313884   6.540   3.416   6.806  0.5471 -0.0172 -0.4835
  104CHL1    O313885   6.387   3.341   6.928  0.3685 -0.7435 -0.0825
  104CHL1   H3'13886   6.416   3.250   6.934 -0.0751 -0.9795 -1.2503
  104CHL1    C413887   6.352   3.521   6.762 -0.2521  0.2352  0.4877
  104CHL1   H4A13888   6.248   3.489   6.783  0.0368 -2.1962 -1.3583
  104CHL1   H4B13889   6.376   3.601   6.835 -0.2279  1.1024 -0.4424
  104CHL1    C513890   6.380   3.570   6.620 -0.3603 -0.2352 -0.7338
  104CHL1    C613891   6.435   3.688   6.603  0.6869 -0.5849  0.5665
  104CHL1    H613892   6.444   3.756   6.689 -0.6188 -0.3843  0.5771
  104CHL1    C713893   6.467   3.738   6.465  0.0079 -0.6629 -0.3429
  104CHL1   H7A13894   6.426   3.841   6.457 -0.5263 -0.9389 -1.2499
  104CHL1   H7B13895   6.577   3.750   6.458  0.0545  0.5134  1.5780
  104CHL1    C813896   6.390   3.661   6.352 -0.1921  0.1807 -0.4356
  104CHL1    H813897   6.281   3.679   6.355 -0.4307 -0.9469 -1.4570
  104CHL1   C1413898   6.450   3.707   6.213 -0.4647 -0.5476 -0.0990
  104CHL1   H1413899   6.559   3.688   6.224 -0.2074  1.2601  0.7382
  104CHL1   C1513900   6.443   3.855   6.172 -0.0273 -0.2619 -0.5990
  104CHL1  H15A13901   6.341   3.893   6.193  1.0433  2.7408 -0.3923
  104CHL1  H15B13902   6.513   3.922   6.226 -0.8006 -1.2470  1.7705
  104CHL1   C1613903   6.456   3.850   6.018 -0.0148  0.7379 -0.3443
  104CHL1  H16A13904   6.398   3.932   5.970 -2.5653  0.0686  1.4255
  104CHL1  H16B13905   6.562   3.880   5.998  0.4389  0.3730  1.3465
  104CHL1   C1713906   6.450   3.706   5.967  0.0187 -0.5497  0.4050
  104CHL1   H1713907   6.554   3.677   5.940 -0.1848  0.4435 -1.5882
  104CHL1   C1313908   6.393   3.628   6.094  0.0226 -0.4992  0.1315
  104CHL1   C1813909   6.236   3.634   6.093 -0.7653 -0.0988  0.1430
  104CHL1  H18A13910   6.179   3.590   6.008 -0.0450 -1.1100  0.1766
  104CHL1  H18B13911   6.190   3.598   6.187 -0.8708  1.2100  0.6104
  104CHL1  H18C13912   6.217   3.743   6.086  1.1210  0.1734 -2.0786
  104CHL1   C1213913   6.442   3.480   6.109  0.4808  0.3247 -0.1209
  104CHL1  H12A13914   6.394   3.416   6.032 -2.0749  0.5674  1.1248
  104CHL1  H12B13915   6.552   3.473   6.098  0.5424 -0.2569  0.7504
  104CHL1   C1113916   6.394   3.424   6.242 -0.4339 -0.2140  0.0465
  104CHL1  H11A13917   6.286   3.396   6.241  0.1403 -2.8158 -3.0689
  104CHL1  H11B13918   6.445   3.326   6.247 -1.2589 -0.8232 -2.1799
  104CHL1    C913919   6.420   3.514   6.366  0.5129 -0.3059 -0.0052
  104CHL1    H913920   6.530   3.506   6.372  0.7002  1.9600  0.1863
  104CHL1   C1013921   6.356   3.460   6.506  0.0248  0.5435 -0.0460
  104CHL1   C1913922   6.204   3.435   6.495 -0.3567 -0.0186 -0.0275
  104CHL1  H19A13923   6.176   3.352   6.427  0.3949 -0.2766 -0.0256
  104CHL1  H19B13924   6.166   3.417   6.598  0.8763  0.8608  0.6030
  104CHL1  H19C13925   6.160   3.530   6.459  1.1437  0.6139 -0.2551
  104CHL1    C113926   6.432   3.329   6.549  0.0829 -0.7074  0.5459
  104CHL1   H1A13927   6.407   3.258   6.468 -1.1562 -0.4910  0.7189
  104CHL1   H1B13928   6.538   3.362   6.552  0.0887 -0.6705 -0.0919
  104CHL1    C213929   6.413   3.279   6.696  0.1567  1.0251 -0.8344
  104CHL1   H2A13930   6.467   3.185   6.720 -1.6833  0.3786  1.0587
  104CHL1   H2B13931   6.306   3.249   6.688  0.2970  0.3406 -0.2528
  104CHL1   C2013932   6.375   3.687   5.834  0.4941  0.8658 -0.0099
  104CHL1   H2013933   6.265   3.700   5.846  0.4840  2.5993 -1.4799
  104CHL1   C2113934   6.416   3.550   5.780 -0.4441  0.0044 -0.2567
  104CHL1  H21A13935   6.526   3.542   5.761 -0.6727 -1.2110 -1.1923
  104CHL1  H21B13936   6.381   3.521   5.679 -1.7659 -0.4486  0.3142
  104CHL1  H21C13937   6.375   3.471   5.846  0.0516  0.1521  0.2385
  104CHL1   C2213938   6.400   3.794   5.723 -0.9933  0.0260  0.2638
  104CHL1  H22A13939   6.371   3.897   5.755  2.2590  0.4405  2.3859
  104CHL1  H22B13940   6.509   3.804   5.702 -0.8909  0.3596  0.9204
  104CHL1   C2313941   6.341   3.762   5.589 -0.7451 -0.4014 -0.3325
  104CHL1  H23A13942   6.388   3.680   5.530  1.9773  1.2180 -0.5665
  104CHL1  H23B13943   6.234   3.742   5.609 -1.5819  3.2333 -0.5942
  104CHL1   C2413944   6.336   3.886   5.499 -0.2342 -0.4613  0.1559
  104CHL1  H24A13945   6.285   3.969   5.552 -0.5261 -1.6024  1.7299
  104CHL1  H24B13946   6.439   3.917   5.470 -0.3706  0.9952  1.1400
  104CHL1   C2513947   6.263   3.867   5.360 -0.4364 -0.3799  0.3803
  104CHL1   H2513948   6.326   3.792   5.306 -0.9020 -0.3972 -0.1572
  104CHL1   C2613949   6.117   3.818   5.367  0.2744 -0.1491  0.1637
  104CHL1  H26A13950   6.071   3.809   5.266  0.7979  0.3389 -0.1231
  104CHL1  H26B13951   6.121   3.723   5.424  1.9064  0.3642  0.9748
  104CHL1  H26C13952   6.049   3.885   5.423  1.1744  1.5357 -0.6917
  104CHL1   C2713953   6.271   3.995   5.272  0.0387  0.5653 -0.4671
  104CHL1  H27A13954   6.257   3.976   5.164 -2.2087 -1.6685  0.1335
  104CHL1  H27B13955   6.186   4.064   5.289 -1.3343 -0.6763 -2.0087
  104CHL1  H27C13956   6.361   4.059   5.288  0.6273 -0.5253  0.7835
  105CHL1    C313957   5.087   3.184   6.748 -0.0407 -0.0948 -0.2339
  105CHL1    H313958   5.035   3.255   6.681  0.8531 -2.2581 -3.4544
  105CHL1    O313959   5.035   3.184   6.881  0.3620  0.0190 -0.1967
  105CHL1   H3'13960   4.941   3.187   6.862  0.4815  2.5267 -0.7371
  105CHL1    C413961   5.064   3.040   6.687  0.3672  0.6120  0.0757
  105CHL1   H4A13962   5.110   2.968   6.757 -0.4291  0.0865  0.0711
  105CHL1   H4B13963   4.956   3.014   6.696  0.8514 -1.6052 -0.0024
  105CHL1    C513964   5.108   3.049   6.541  0.1003 -0.5528  0.0865
  105CHL1    C613965   5.023   3.041   6.435  0.1811 -0.1169 -0.0918
  105CHL1    H613966   4.925   3.001   6.464  0.6626 -0.0502  1.7807
  105CHL1    C713967   5.068   3.035   6.292  0.4467  0.1910 -0.5913
  105CHL1   H7A13968   5.017   2.952   6.239  0.9954  0.0185 -0.8567
  105CHL1   H7B13969   5.031   3.133   6.254 -4.7004 -0.4093  1.9802
  105CHL1    C813970   5.220   3.009   6.286 -0.9398  0.6628 -0.5193
  105CHL1    H813971   5.245   2.905   6.317 -1.0354  0.5302 -0.8886
  105CHL1   C1413972   5.256   3.039   6.138 -0.2582  0.2764  0.8352
  105CHL1   H1413973   5.221   3.142   6.113 -1.4505 -0.1256  0.7725
  105CHL1   C1513974   5.198   2.952   6.027  0.2843 -0.1422 -0.1330
  105CHL1  H15A13975   5.216   2.848   6.061 -0.1218  0.4279  1.9533
  105CHL1  H15B13976   5.090   2.971   6.007 -0.7695 -1.5009  3.5586
  105CHL1   C1613977   5.284   2.988   5.902 -0.3396 -0.0825 -0.5832
  105CHL1  H16A13978   5.317   2.896   5.849  1.5972  1.3708 -2.0330
  105CHL1  H16B13979   5.234   3.057   5.832  0.9054  1.4970  0.0268
  105CHL1   C1713980   5.408   3.068   5.962  0.3991  0.1348  0.2725
  105CHL1   H1713981   5.383   3.175   5.944 -1.5144 -0.4814 -1.0439
  105CHL1   C1313982   5.411   3.040   6.112  0.4375 -0.1022 -0.0132
  105CHL1   C1813983   5.471   2.906   6.150 -0.4859 -0.0072  0.3146
  105CHL1  H18A13984   5.470   2.877   6.258  0.4130 -1.9619 -0.1511
  105CHL1  H18B13985   5.420   2.823   6.097  0.0041 -2.0761  2.8410
  105CHL1  H18C13986   5.579   2.898   6.127 -0.2344 -2.1055  1.9428
  105CHL1   C1213987   5.474   3.151   6.200  0.4363 -0.5198 -0.6155
  105CHL1  H12A13988   5.582   3.138   6.178  0.3314  2.3528 -3.7191
  105CHL1  H12B13989   5.448   3.252   6.161  0.7547 -0.1875  0.0104
  105CHL1   C1113990   5.442   3.133   6.348  0.3582  0.0184  0.4159
  105CHL1  H11A13991   5.508   3.054   6.390  1.3550  0.1792 -0.7840
  105CHL1  H11B13992   5.481   3.225   6.396  3.5993 -0.2042 -1.5065
  105CHL1    C913993   5.285   3.112   6.375 -0.2628  0.3855 -0.5000
  105CHL1    H913994   5.241   3.210   6.346  2.8804  1.9580 -0.4566
  105CHL1   C1013995   5.255   3.088   6.527  0.5437 -0.5431  0.0287
  105CHL1   C1913996   5.342   2.977   6.588 -0.6058  0.1520  0.2189
  105CHL1  H19A13997   5.294   2.939   6.681 -0.7620  1.0435  0.5201
  105CHL1  H19B13998   5.355   2.889   6.522  1.5253  0.7580 -0.2462
  105CHL1  H19C13999   5.441   3.021   6.612 -1.2810  1.0639  1.4976
  105CHL1    C114000   5.278   3.225   6.599  0.0745 -0.0342 -0.4075
  105CHL1   H1A14001   5.385   3.253   6.586  0.1504  0.7447  1.4762
  105CHL1   H1B14002   5.212   3.297   6.547  0.8498  0.6235 -0.5101
  105CHL1    C214003   5.235   3.213   6.746  0.6475 -0.6000 -0.5876
  105CHL1   H2A14004   5.253   3.310   6.798 -0.4656 -1.0493  0.6837
  105CHL1   H2B14005   5.292   3.135   6.800 -1.1537  0.0129  2.3779
  105CHL1   C2014006   5.532   3.040   5.874 -0.3726 -1.2268 -0.4663
  105CHL1   H2014007   5.566   2.934   5.875  0.6170 -0.9241  0.1901
  105CHL1   C2114008   5.658   3.115   5.928  0.4540 -0.0349  0.5461
  105CHL1  H21A14009   5.629   3.222   5.932 -2.1718 -0.5419 -1.6171
  105CHL1  H21B14010   5.745   3.120   5.859  0.6660 -0.0632  0.8108
  105CHL1  H21C14011   5.691   3.078   6.027  2.9655  0.3589 -0.0848
  105CHL1   C2214012   5.507   3.080   5.728 -0.2701 -0.3149 -0.2607
  105CHL1  H22A14013   5.420   3.020   5.692  1.3046 -1.4132 -2.4816
  105CHL1  H22B14014   5.482   3.188   5.731  0.6018 -0.1074 -0.2273
  105CHL1   C2314015   5.611   3.039   5.621 -0.0306 -0.2275  0.0519
  105CHL1  H23A14016   5.701   3.104   5.623  0.2833 -0.6040 -1.0198
  105CHL1  H23B14017   5.651   2.937   5.636  1.2276  0.3045  0.4053
  105CHL1   C2414018   5.544   3.043   5.478  0.1573  0.0838 -0.4277
  105CHL1  H24A14019   5.467   2.963   5.472 -2.4927  1.9947  3.6955
  105CHL1  H24B14020   5.487   3.138   5.470  1.6273  1.2265  1.5449
  105CHL1   C2514021   5.643   3.038   5.360  0.2261  0.3139 -0.3084
  105CHL1   H2514022   5.712   3.125   5.359  0.3781  0.1922 -0.9735
  105CHL1   C2614023   5.733   2.910   5.366  0.1703  0.0940  0.3772
  105CHL1  H26A14024   5.670   2.819   5.357 -2.7031  2.1217 -1.7725
  105CHL1  H26B14025   5.800   2.912   5.277  1.2928  2.1561  1.1934
  105CHL1  H26C14026   5.802   2.904   5.453  0.7438 -2.0838 -0.1663
  105CHL1   C2714027   5.568   3.041   5.228 -0.0934 -0.2272 -0.5307
  105CHL1  H27A14028   5.519   3.138   5.203 -3.0830 -1.5242 -0.1447
  105CHL1  H27B14029   5.627   2.996   5.145  0.9954 -2.7289  1.4538
  105CHL1  H27C14030   5.493   2.959   5.237  2.1613 -2.2800  0.7944
  106CHL1    C314031   1.182   2.182   6.779  0.6808  0.5085  0.5051
  106CHL1    H314032   1.244   2.274   6.781  1.6149 -0.0966  0.1098
  106CHL1    O314033   1.215   2.096   6.881 -0.1720 -0.4773  0.0163
  106CHL1   H3'14034   1.292   2.136   6.922 -0.8562  0.5740  0.3080
  106CHL1    C414035   1.031   2.227   6.782 -0.5237 -0.3776  0.1584
  106CHL1   H4A14036   0.958   2.143   6.787 -0.0099 -0.9213 -1.1340
  106CHL1   H4B14037   1.019   2.288   6.874  0.7747 -0.8779  0.6783
  106CHL1    C514038   0.990   2.299   6.654  0.2112 -0.4479  0.1562
  106CHL1    C614039   0.946   2.429   6.657 -0.1055 -1.1770  0.5157
  106CHL1    H614040   0.928   2.479   6.754  1.3189 -0.2131  0.2997
  106CHL1    C714041   0.917   2.519   6.538  0.2830  0.6228  0.2619
  106CHL1   H7A14042   0.820   2.571   6.541  0.7190  1.4216  0.8600
  106CHL1   H7B14043   0.993   2.599   6.527  0.2117  0.7516  0.7094
  106CHL1    C814044   0.911   2.430   6.407  0.1832  0.5127  0.1568
  106CHL1    H814045   0.815   2.375   6.396  0.4194  0.4713 -2.1569
  106CHL1   C1414046   0.928   2.523   6.287 -0.0403 -0.7879 -0.2090
  106CHL1   H1414047   1.021   2.581   6.302 -1.4710  1.7360 -0.5047
  106CHL1   C1514048   0.810   2.628   6.270  1.1493  0.4233 -0.3038
  106CHL1  H15A14049   0.713   2.574   6.274  1.0818  0.6091  2.4042
  106CHL1  H15B14050   0.810   2.690   6.361  0.9365 -1.3691  0.9776
  106CHL1   C1614051   0.840   2.684   6.133  0.9954  0.6312 -0.5631
  106CHL1  H16A14052   0.746   2.674   6.075  1.2754 -0.2324 -0.8837
  106CHL1  H16B14053   0.869   2.791   6.133 -0.6687  1.1114  0.1736
  106CHL1   C1714054   0.941   2.591   6.069 -0.0048  0.2167  0.2941
  106CHL1   H1714055   1.044   2.627   6.087  0.7266 -1.0330 -1.0799
  106CHL1   C1314056   0.934   2.464   6.143  0.6442  0.4754 -0.1081
  106CHL1   C1814057   0.799   2.386   6.109 -0.1385  0.2607 -0.5501
  106CHL1  H18A14058   0.699   2.431   6.124  0.0957  0.5727  0.1284
  106CHL1  H18B14059   0.799   2.347   6.005 -1.7024  0.9158 -0.8227
  106CHL1  H18C14060   0.797   2.286   6.159 -1.9897 -0.1798 -1.4236
  106CHL1   C1214061   1.055   2.374   6.143  0.0389 -0.1733  0.4503
  106CHL1  H12A14062   1.066   2.311   6.052 -1.0855  2.7963 -1.8801
  106CHL1  H12B14063   1.148   2.432   6.163  0.6888 -1.3865  1.1181
  106CHL1   C1114064   1.036   2.262   6.259 -0.0014  0.2891 -0.4971
  106CHL1  H11A14065   0.944   2.203   6.239 -0.0725 -0.0227  0.6767
  106CHL1  H11B14066   1.126   2.197   6.249 -1.5543 -2.0220 -0.0285
  106CHL1    C914067   1.021   2.323   6.401  0.0919 -0.2633  0.5440
  106CHL1    H914068   1.110   2.388   6.415  0.0034 -0.1145  0.4271
  106CHL1   C1014069   1.020   2.229   6.519  0.1643 -0.2144 -0.2285
  106CHL1   C1914070   0.916   2.118   6.493 -0.3067  0.3743 -0.5811
  106CHL1  H19A14071   0.912   2.042   6.574 -0.7067  0.9664 -0.0346
  106CHL1  H19B14072   0.816   2.154   6.461 -0.5287 -1.2304 -1.8051
  106CHL1  H19C14073   0.946   2.063   6.401 -0.9491 -1.3914  0.2285
  106CHL1    C114074   1.165   2.174   6.520 -0.1095  0.1636  0.1283
  106CHL1   H1A14075   1.176   2.105   6.433  0.9985 -1.2217  1.3046
  106CHL1   H1B14076   1.243   2.252   6.507  1.4552 -1.5012 -1.0965
  106CHL1    C214077   1.206   2.094   6.653  0.2315  0.2432  0.2391
  106CHL1   H2A14078   1.315   2.073   6.650  0.3111  0.7385 -0.6646
  106CHL1   H2B14079   1.152   1.998   6.666 -2.0438  1.1683 -1.5368
  106CHL1   C2014080   0.924   2.587   5.916 -0.7094 -0.7114 -0.0310
  106CHL1   H2014081   0.820   2.552   5.904 -0.8939  0.3336 -1.8483
  106CHL1   C2114082   1.027   2.496   5.849 -0.2508 -0.1729 -0.2497
  106CHL1  H21A14083   1.026   2.390   5.884  1.6442  0.1128  0.8484
  106CHL1  H21B14084   1.127   2.535   5.879  0.3032 -1.7460  0.0326
  106CHL1  H21C14085   1.018   2.500   5.739  0.9411  3.6263 -0.3383
  106CHL1   C2214086   0.929   2.724   5.844  1.0309 -0.2194 -0.1631
  106CHL1  H22A14087   0.864   2.795   5.899  0.0686 -1.4058  0.2650
  106CHL1  H22B14088   1.036   2.754   5.844  2.0508 -3.4200  2.1433
  106CHL1   C2314089   0.858   2.729   5.707  0.7684  0.7340 -0.1945
  106CHL1  H23A14090   0.900   2.664   5.628 -0.2807  0.3249 -0.4357
  106CHL1  H23B14091   0.756   2.691   5.731  0.7733  1.7848  1.7304
  106CHL1   C2414092   0.850   2.867   5.644 -0.0248  0.0630 -0.3861
  106CHL1  H24A14093   0.779   2.935   5.696 -1.8120 -0.3654 -2.1388
  106CHL1  H24B14094   0.947   2.919   5.631 -1.1262  1.9977 -1.3817
  106CHL1   C2514095   0.793   2.859   5.502  0.5162 -0.6587  0.2486
  106CHL1   H2514096   0.826   2.764   5.456 -0.3433 -0.6584 -0.4084
  106CHL1   C2614097   0.634   2.857   5.485 -0.3656  0.5662  0.1153
  106CHL1  H26A14098   0.606   2.763   5.536  0.5667 -0.0085 -0.3905
  106CHL1  H26B14099   0.579   2.940   5.534 -1.5940  0.6189 -1.2915
  106CHL1  H26C14100   0.603   2.854   5.378  0.3641 -0.0025 -0.0859
  106CHL1   C2714101   0.838   2.979   5.416 -0.0464  0.0737  0.0884
  106CHL1  H27A14102   0.830   3.077   5.470  2.4972 -0.2761  1.2720
  106CHL1  H27B14103   0.939   2.963   5.372 -0.5474 -0.5632 -0.8615
  106CHL1  H27C14104   0.776   2.984   5.325  0.0651  2.4447  0.0663
  107CHL1    C314105   4.540   5.983   6.821 -0.8782 -0.8134  0.6694
  107CHL1    H314106   4.545   5.915   6.734  1.6930  0.9030 -0.6528
  107CHL1    O314107   4.565   5.907   6.933  0.6342 -0.3263  0.4147
  107CHL1   H3'14108   4.518   5.935   7.012  0.5214 -0.3859  0.3691
  107CHL1    C414109   4.645   6.104   6.813 -0.6383 -0.3015  0.7998
  107CHL1   H4A14110   4.630   6.167   6.904  0.6785 -1.6048  1.9634
  107CHL1   H4B14111   4.748   6.065   6.827  0.2455  2.4103  2.9554
  107CHL1    C514112   4.629   6.191   6.687 -0.4789 -0.4809 -0.5291
  107CHL1    C614113   4.730   6.207   6.592  0.8201 -0.3954 -0.0211
  107CHL1    H614114   4.828   6.167   6.621  0.1994 -0.9638  1.3542
  107CHL1    C714115   4.724   6.277   6.462  0.3382 -0.3442 -0.0562
  107CHL1   H7A14116   4.819   6.331   6.442  0.5276 -0.8838 -0.6791
  107CHL1   H7B14117   4.721   6.197   6.384  3.4350 -0.6834  0.0347
  107CHL1    C814118   4.595   6.363   6.452  0.6760 -0.6178  0.2445
  107CHL1    H814119   4.620   6.455   6.508  1.1853 -1.5811  1.6399
  107CHL1   C1414120   4.566   6.391   6.307  0.1244 -0.1248 -0.7187
  107CHL1   H1414121   4.543   6.290   6.268 -3.3441  0.5747 -0.8182
  107CHL1   C1514122   4.679   6.425   6.210  0.1216  0.2036  0.3798
  107CHL1  H15A14123   4.748   6.494   6.264  0.5508  0.2433 -0.2075
  107CHL1  H15B14124   4.728   6.333   6.172  0.3189  1.8567 -3.8667
  107CHL1   C1614125   4.600   6.487   6.091 -0.0820  0.2873  0.0504
  107CHL1  H16A14126   4.624   6.595   6.083 -1.0093  0.4340 -1.0406
  107CHL1  H16B14127   4.626   6.442   5.993  0.6567  0.1551  0.3039
  107CHL1   C1714128   4.444   6.472   6.117 -0.5658 -0.4942  0.1194
  107CHL1   H1714129   4.421   6.369   6.081 -0.2817 -0.0003 -1.5739
  107CHL1   C1314130   4.442   6.470   6.266  0.0702 -0.2128 -0.9708
  107CHL1   C1814131   4.452   6.612   6.316  0.0523 -0.6867  0.1832
  107CHL1  H18A14132   4.537   6.661   6.265  0.1677 -0.7828  0.2829
  107CHL1  H18B14133   4.356   6.665   6.296 -0.3555 -0.5740  2.2254
  107CHL1  H18C14134   4.459   6.618   6.427 -3.3991  0.6749  0.4628
  107CHL1   C1214135   4.322   6.400   6.329 -0.0670 -0.5716  0.1948
  107CHL1  H12A14136   4.234   6.469   6.327 -0.1787 -0.6059  1.9086
  107CHL1  H12B14137   4.295   6.303   6.283 -0.0785  0.2917 -1.7040
  107CHL1   C1114138   4.336   6.362   6.475  0.1941  0.3174  0.2632
  107CHL1  H11A14139   4.324   6.454   6.536 -0.9430 -1.5868  3.2126
  107CHL1  H11B14140   4.254   6.292   6.505 -0.3897  0.2743 -1.3505
  107CHL1    C914141   4.474   6.290   6.509  0.1670 -0.2211 -0.4715
  107CHL1    H914142   4.463   6.196   6.452 -1.6232 -0.9845  1.0519
  107CHL1   C1014143   4.494   6.243   6.664 -0.3098  1.1817  0.4064
  107CHL1   C1914144   4.473   6.369   6.746  0.0243 -0.3480  0.0296
  107CHL1  H19A14145   4.364   6.392   6.746  0.2328  0.7417 -1.1552
  107CHL1  H19B14146   4.511   6.356   6.850  2.2550  0.1477 -0.6630
  107CHL1  H19C14147   4.526   6.457   6.704 -3.0730  2.3945  1.4747
  107CHL1    C114148   4.384   6.134   6.699  0.4277 -0.2051  0.2139
  107CHL1   H1A14149   4.293   6.196   6.715  1.3881  0.9940  1.2582
  107CHL1   H1B14150   4.376   6.066   6.612  1.1157 -1.6439  1.2365
  107CHL1    C214151   4.403   6.053   6.828  0.2771 -0.1284  0.7646
  107CHL1   H2A14152   4.320   5.980   6.833 -0.9871  0.9930 -2.0440
  107CHL1   H2B14153   4.397   6.113   6.921  1.2307  0.3934  0.5103
  107CHL1   C2014154   4.366   6.576   6.034 -0.1675  0.3260 -0.5948
  107CHL1   H2014155   4.400   6.677   6.065  0.5179  0.3568 -1.4021
  107CHL1   C2114156   4.216   6.587   6.063 -0.1384  0.3110 -0.4501
  107CHL1  H21A14157   4.197   6.482   6.094  0.0717  0.8706  1.7413
  107CHL1  H21B14158   4.154   6.611   5.974  0.1376  0.5691 -0.5743
  107CHL1  H21C14159   4.184   6.648   6.150  2.4245 -0.9683  1.5265
  107CHL1   C2214160   4.391   6.577   5.880  0.1650  0.2497  1.3830
  107CHL1  H22A14161   4.330   6.663   5.845 -0.4870 -0.7086  0.0616
  107CHL1  H22B14162   4.498   6.594   5.858 -0.0022 -0.1309  0.2292
  107CHL1   C2314163   4.345   6.456   5.800 -0.2863  0.1440 -0.3154
  107CHL1  H23A14164   4.411   6.375   5.839 -1.8270  0.2455  2.8151
  107CHL1  H23B14165   4.239   6.427   5.820 -0.0637 -0.4774 -0.0216
  107CHL1   C2414166   4.375   6.466   5.650 -0.4175 -1.1463  0.5401
  107CHL1  H24A14167   4.324   6.553   5.606  0.1995 -1.4129 -0.7362
  107CHL1  H24B14168   4.484   6.482   5.636 -0.8652  2.2987  0.1570
  107CHL1   C2514169   4.331   6.338   5.572 -0.0254  0.0219 -0.7274
  107CHL1   H2514170   4.224   6.320   5.593  0.3241  0.7918  2.2358
  107CHL1   C2614171   4.347   6.367   5.421  0.0539 -0.2635 -0.3000
  107CHL1  H26A14172   4.285   6.454   5.388 -2.0508 -1.3813  0.4977
  107CHL1  H26B14173   4.454   6.392   5.404  0.7796 -2.2248  1.0309
  107CHL1  H26C14174   4.325   6.278   5.358 -1.1185 -0.0710 -0.1827
  107CHL1   C2714175   4.414   6.217   5.612 -0.1565 -0.3967 -0.0862
  107CHL1  H27A14176   4.397   6.133   5.542  3.6276 -0.8759 -0.6758
  107CHL1  H27B14177   4.523   6.236   5.600 -0.3605  0.7512 -0.2445
  107CHL1  H27C14178   4.399   6.195   5.720  0.3222 -0.2418  0.0170
  108CHL1    C314179   5.166   2.077   6.835 -0.2140 -0.2777 -0.0089
  108CHL1    H314180   5.107   1.985   6.816 -0.4091 -0.3027  0.6747
  108CHL1    O314181   5.120   2.133   6.963 -0.2078  0.3306 -0.2774
  108CHL1   H3'14182   5.040   2.184   6.948 -1.5817 -1.7456 -0.3929
  108CHL1    C414183   5.315   2.045   6.844  0.2301  0.1891  0.4229
  108CHL1   H4A14184   5.376   2.136   6.861  0.5547  0.2180 -0.8155
  108CHL1   H4B14185   5.337   1.985   6.935 -1.4619  1.1518  1.5133
  108CHL1    C514186   5.367   1.990   6.714  0.3231 -0.6530  0.2931
  108CHL1    C614187   5.446   1.879   6.710  0.9442  0.2831 -0.1357
  108CHL1    H614188   5.479   1.827   6.801  0.1463  0.4301  0.2427
  108CHL1    C714189   5.502   1.814   6.593  1.0087  0.1380  0.2581
  108CHL1   H7A14190   5.607   1.780   6.602  1.0057  0.6340  3.3140
  108CHL1   H7B14191   5.435   1.727   6.575 -1.0364  1.4556  1.0686
  108CHL1    C814192   5.494   1.907   6.469  0.3781  0.1140  0.5202
  108CHL1    H814193   5.575   1.983   6.465 -0.4715  1.0073 -0.8276
  108CHL1   C1414194   5.510   1.813   6.345 -0.0401  0.0064  0.1180
  108CHL1   H1414195   5.420   1.748   6.341  0.0173 -0.1281  0.8913
  108CHL1   C1514196   5.628   1.715   6.340 -0.4732  0.3778  0.0710
  108CHL1  H15A14197   5.731   1.744   6.369  1.0261 -1.1925 -3.1560
  108CHL1  H15B14198   5.596   1.626   6.398 -2.1753  1.0206  0.1747
  108CHL1   C1614199   5.628   1.675   6.186  0.7503  0.7688 -1.0475
  108CHL1  H16A14200   5.734   1.698   6.158  1.0671  1.4799  0.6223
  108CHL1  H16B14201   5.598   1.570   6.169  1.2812  0.6923 -1.5663
  108CHL1   C1714202   5.530   1.775   6.120  0.0862  0.3747  0.2631
  108CHL1   H1714203   5.437   1.716   6.106  0.5620 -0.5473  0.9343
  108CHL1   C1314204   5.502   1.886   6.213  0.1070 -0.2750  0.5582
  108CHL1   C1814205   5.617   1.993   6.203 -0.7775  0.4932 -0.4949
  108CHL1  H18A14206   5.716   1.943   6.208 -0.8838  0.4044  1.1791
  108CHL1  H18B14207   5.616   2.051   6.108 -2.3783  1.6788  0.2042
  108CHL1  H18C14208   5.600   2.066   6.285 -2.6569  0.6605 -0.9876
  108CHL1   C1214209   5.364   1.952   6.193 -0.3382 -0.2910 -0.3119
  108CHL1  H12A14210   5.353   2.007   6.098 -1.0379 -0.5991 -0.4139
  108CHL1  H12B14211   5.283   1.876   6.195  0.8178 -1.5779 -0.0077
  108CHL1   C1114212   5.341   2.046   6.319  0.1738 -0.4663  0.8774
  108CHL1  H11A14213   5.398   2.139   6.297  1.7934 -1.5346  0.3600
  108CHL1  H11B14214   5.243   2.092   6.292  1.0160  0.6733 -0.4247
  108CHL1    C914215   5.360   1.983   6.456  0.2238  0.3194 -0.3008
  108CHL1    H914216   5.276   1.910   6.461 -1.3776  1.8515 -2.9292
  108CHL1   C1014217   5.328   2.071   6.582 -0.6452  0.0137 -0.0168
  108CHL1   C1914218   5.416   2.204   6.587  0.0340  0.1253  0.4833
  108CHL1  H19A14219   5.371   2.278   6.517 -1.9413 -1.9131 -0.5435
  108CHL1  H19B14220   5.420   2.258   6.684 -2.1708  1.4545 -0.1007
  108CHL1  H19C14221   5.518   2.177   6.551  0.6310  1.6033  0.9774
  108CHL1    C114222   5.179   2.108   6.594  0.1224  0.1457  0.3815
  108CHL1   H1A14223   5.160   2.174   6.507  0.4434 -0.8386 -0.4584
  108CHL1   H1B14224   5.117   2.020   6.567  0.4667  0.2844 -0.8851
  108CHL1    C214225   5.138   2.181   6.725 -0.6008  0.2599  0.0820
  108CHL1   H2A14226   5.037   2.227   6.730 -0.3796  0.8305 -0.5879
  108CHL1   H2B14227   5.210   2.263   6.743 -1.3841  1.6461 -2.5800
  108CHL1   C2014228   5.589   1.796   5.977  0.4768 -0.5335  0.0845
  108CHL1   H2014229   5.683   1.855   5.987 -0.2305  0.4972  0.9350
  108CHL1   C2114230   5.492   1.895   5.898  0.2233  0.2950  0.4397
  108CHL1  H21A14231   5.383   1.872   5.906  0.2616  0.2085  0.7268
  108CHL1  H21B14232   5.520   1.893   5.790 -1.9530 -2.0844 -0.1723
  108CHL1  H21C14233   5.505   2.001   5.929  1.6981 -0.0672  1.1438
  108CHL1   C2214234   5.599   1.670   5.891  0.2881  0.0826  0.2012
  108CHL1  H22A14235   5.645   1.692   5.792 -0.7116 -1.3722 -0.6299
  108CHL1  H22B14236   5.681   1.608   5.935 -1.4583 -3.4136 -1.1244
  108CHL1   C2314237   5.485   1.569   5.878  0.0204  0.0750 -0.5770
  108CHL1  H23A14238   5.458   1.521   5.974  0.3601 -0.3536 -0.6925
  108CHL1  H23B14239   5.396   1.623   5.841 -0.9743 -0.6154  0.7517
  108CHL1   C2414240   5.501   1.451   5.781 -0.1237  0.5005  0.0665
  108CHL1  H24A14241   5.489   1.490   5.678  0.7881 -0.5933 -0.4750
  108CHL1  H24B14242   5.607   1.422   5.795 -0.2696  0.4509  1.1448
  108CHL1   C2514243   5.417   1.331   5.798 -0.3071  0.7583 -0.7864
  108CHL1   H2514244   5.313   1.366   5.816 -0.0940  0.8161  0.4021
  108CHL1   C2614245   5.416   1.225   5.687  0.2461 -0.5920  0.8440
  108CHL1  H26A14246   5.523   1.211   5.659  0.1860  1.5759 -0.7403
  108CHL1  H26B14247   5.379   1.125   5.717 -0.5774 -0.6771 -0.4073
  108CHL1  H26C14248   5.356   1.254   5.598  1.7490  0.7376  0.1937
  108CHL1   C2714249   5.437   1.253   5.937  0.1855  0.3250 -0.4376
  108CHL1  H27A14250   5.432   1.323   6.023 -0.4176 -1.0200  0.6658
  108CHL1  H27B14251   5.368   1.168   5.954  0.3440  0.6789  2.6857
  108CHL1  H27C14252   5.539   1.208   5.944 -0.1027 -0.2915 -0.1501
  109CHL1    C314253   3.486   6.302   6.606 -0.6830 -1.5462  0.0712
  109CHL1    H314254   3.585   6.314   6.558 -0.7781 -0.9252  0.0201
  109CHL1    O314255   3.496   6.275   6.744  0.2221 -0.2580  0.3170
  109CHL1   H3'14256   3.503   6.355   6.797  0.8588 -0.4566  0.5437
  109CHL1    C414257   3.427   6.444   6.596 -0.6475 -0.7989 -0.2654
  109CHL1   H4A14258   3.337   6.457   6.660 -1.1048  0.6368 -1.1604
  109CHL1   H4B14259   3.504   6.508   6.645 -0.7764  0.2100 -1.3418
  109CHL1    C514260   3.396   6.498   6.457 -0.7296 -0.5734  0.8735
  109CHL1    C614261   3.448   6.616   6.403  0.4477 -0.1034 -0.1630
  109CHL1    H614262   3.506   6.686   6.465 -0.0492 -0.2735  0.5002
  109CHL1    C714263   3.424   6.666   6.266  0.7752  0.5564  0.6038
  109CHL1   H7A14264   3.392   6.772   6.262  0.2538  0.3741 -0.7266
  109CHL1   H7B14265   3.517   6.656   6.206  0.7118 -3.0075  0.8587
  109CHL1    C814266   3.316   6.578   6.189 -0.1140 -0.3945  0.1427
  109CHL1    H814267   3.209   6.595   6.212 -1.0285 -2.0611 -2.3371
  109CHL1   C1414268   3.335   6.603   6.033  1.3295 -0.4823 -0.5892
  109CHL1   H1414269   3.432   6.563   5.998  1.7608  0.5071 -0.5591
  109CHL1   C1514270   3.341   6.745   5.987 -0.0126  0.5764 -0.2027
  109CHL1  H15A14271   3.254   6.795   6.034  1.0271  0.5998  1.8238
  109CHL1  H15B14272   3.431   6.807   6.005  1.0087 -0.5652 -1.1777
  109CHL1   C1614273   3.318   6.743   5.839  0.0478 -0.5882 -0.0256
  109CHL1  H16A14274   3.234   6.811   5.817 -1.9022 -1.9711  2.5119
  109CHL1  H16B14275   3.404   6.777   5.779 -1.9573  0.8660 -2.2383
  109CHL1   C1714276   3.270   6.599   5.805  0.2791 -0.7712  0.3400
  109CHL1   H1714277   3.360   6.547   5.766  0.4575  0.8781 -1.5661
  109CHL1   C1314278   3.228   6.539   5.945 -0.5926  0.1278  1.0064
  109CHL1   C1814279   3.079   6.577   5.988 -0.4391 -0.4836 -0.3630
  109CHL1  H18A14280   3.062   6.528   6.087  1.2714 -0.6373 -0.1263
  109CHL1  H18B14281   3.067   6.687   5.996 -2.5111 -0.7127  0.3401
  109CHL1  H18C14282   3.003   6.535   5.919 -2.5246 -0.9601  2.0519
  109CHL1   C1214283   3.249   6.385   5.969  0.3798  0.7361 -0.7302
  109CHL1  H12A14284   3.168   6.329   5.918 -0.7460  0.8269  0.8796
  109CHL1  H12B14285   3.340   6.351   5.916 -1.1066 -2.6673 -1.3375
  109CHL1   C1114286   3.247   6.348   6.119  0.7631  0.3713  0.2913
  109CHL1  H11A14287   3.141   6.345   6.153  0.3309 -1.6638 -1.0370
  109CHL1  H11B14288   3.280   6.242   6.127 -2.0336 -0.5686  0.4036
  109CHL1    C914289   3.333   6.432   6.213  0.2163 -0.0484  0.7138
  109CHL1    H914290   3.434   6.408   6.173 -0.7996 -1.1652 -1.3148
  109CHL1   C1014291   3.322   6.400   6.365 -1.2760 -0.0391  0.1367
  109CHL1   C1914292   3.171   6.385   6.400  0.2059 -0.1847 -0.3682
  109CHL1  H19A14293   3.124   6.480   6.368 -1.6400 -0.7771  0.4931
  109CHL1  H19B14294   3.128   6.289   6.365  1.5760 -0.6870 -0.7639
  109CHL1  H19C14295   3.146   6.382   6.508  1.5884 -2.0840 -0.0491
  109CHL1    C114296   3.375   6.251   6.378  0.0001 -0.1612 -1.0454
  109CHL1   H1A14297   3.299   6.184   6.333 -1.2745 -0.1902  1.0536
  109CHL1   H1B14298   3.472   6.233   6.327 -0.3026 -1.4291 -1.2046
  109CHL1    C214299   3.395   6.206   6.524  0.0889  0.3561 -0.2686
  109CHL1   H2A14300   3.436   6.103   6.526 -1.9470 -0.5020 -0.8008
  109CHL1   H2B14301   3.296   6.205   6.575  0.3048 -1.0410  0.1554
  109CHL1   C2014302   3.169   6.595   5.688  0.5996  0.3738  0.3753
  109CHL1   H2014303   3.073   6.647   5.711 -0.7620 -0.7315 -2.3903
  109CHL1   C2114304   3.136   6.449   5.651 -0.0323 -0.0161  0.8075
  109CHL1  H21A14305   3.229   6.390   5.639  1.8855  2.5347  2.2192
  109CHL1  H21B14306   3.084   6.443   5.553 -2.1064 -0.2779  1.8554
  109CHL1  H21C14307   3.075   6.399   5.729 -0.6986  0.1714  0.4162
  109CHL1   C2214308   3.221   6.661   5.557  0.1471  0.0298  0.1174
  109CHL1  H22A14309   3.143   6.641   5.480  1.1367  1.7579 -1.4068
  109CHL1  H22B14310   3.222   6.770   5.578 -1.7331  0.1192 -0.0937
  109CHL1   C2314311   3.367   6.627   5.510 -0.2694  0.1402 -0.3506
  109CHL1  H23A14312   3.443   6.660   5.584 -0.4523 -1.5506  0.6346
  109CHL1  H23B14313   3.374   6.517   5.526  2.0282  0.4715  1.3116
  109CHL1   C2414314   3.393   6.669   5.370 -0.5336  0.0195 -0.2999
  109CHL1  H24A14315   3.327   6.616   5.299 -0.4506  2.7186 -2.5814
  109CHL1  H24B14316   3.382   6.779   5.358 -1.0003  0.2272  1.6426
  109CHL1   C2514317   3.535   6.634   5.322  0.1595  0.3439 -0.0104
  109CHL1   H2514318   3.535   6.670   5.216  1.6885 -1.4268 -0.6681
  109CHL1   C2614319   3.646   6.706   5.395 -0.5904  0.3742  0.4056
  109CHL1  H26A14320   3.604   6.795   5.447 -0.3804 -0.3181  1.8234
  109CHL1  H26B14321   3.689   6.637   5.471 -1.1065  0.0486  0.4063
  109CHL1  H26C14322   3.720   6.733   5.316 -1.4638  1.4279 -0.0734
  109CHL1   C2714323   3.562   6.479   5.320 -0.0603  0.1467 -0.2480
  109CHL1  H27A14324   3.659   6.460   5.269  0.6086 -1.2847  1.4478
  109CHL1  H27B14325   3.564   6.446   5.426 -0.0838  0.9154  0.0021
  109CHL1  H27C14326   3.485   6.425   5.262 -1.1762 -0.1185  1.4031
  110CHL1    C314327   1.921   6.111   6.702 -0.1508  0.4158 -0.1999
  110CHL1    H314328   2.020   6.149   6.669 -0.6408  0.0950 -2.1622
  110CHL1    O314329   1.891   6.149   6.838 -0.3339  0.1788 -0.1188
  110CHL1   H3'14330   1.944   6.085   6.885 -0.7045 -0.8254 -1.0424
  110CHL1    C414331   1.807   6.166   6.616  0.8473 -0.5112  0.5679
  110CHL1   H4A14332   1.711   6.136   6.665  0.4070  0.4604  0.3214
  110CHL1   H4B14333   1.807   6.277   6.620  2.2837 -0.4760  0.1093
  110CHL1    C514334   1.822   6.130   6.473 -0.2863 -0.1965 -0.4237
  110CHL1    C614335   1.838   6.220   6.373  0.2717 -0.4489  0.0252
  110CHL1    H614336   1.851   6.325   6.404 -0.1192 -0.9038  1.8916
  110CHL1    C714337   1.854   6.189   6.231 -0.3980  0.5279  0.0236
  110CHL1   H7A14338   1.796   6.257   6.165 -3.4794 -1.5595  0.3205
  110CHL1   H7B14339   1.960   6.211   6.206 -0.3863 -0.8220 -1.3304
  110CHL1    C814340   1.818   6.048   6.198  0.5833  0.4011  0.1574
  110CHL1    H814341   1.707   6.041   6.191  0.5854 -0.7342  0.8671
  110CHL1   C1414342   1.878   6.007   6.062  0.6986  1.0826 -0.1449
  110CHL1   H1414343   1.987   6.017   6.080  0.6451  0.6631  0.4367
  110CHL1   C1514344   1.843   6.094   5.937 -0.5037  0.8838  0.3431
  110CHL1  H15A14345   1.732   6.104   5.933 -0.7163 -1.2944 -0.2193
  110CHL1  H15B14346   1.891   6.194   5.945  0.2566  0.4410  1.4863
  110CHL1   C1614347   1.893   6.013   5.810 -0.6283 -0.1589 -0.0995
  110CHL1  H16A14348   1.832   6.013   5.718 -0.7089 -1.3900 -0.0647
  110CHL1  H16B14349   1.997   6.039   5.782 -0.3741 -1.5079 -0.4573
  110CHL1   C1714350   1.931   5.874   5.875  0.0261  1.0076 -0.3235
  110CHL1   H1714351   2.041   5.882   5.894 -0.0380 -2.8525  3.1071
  110CHL1   C1314352   1.855   5.866   6.013 -0.4265 -0.6595 -0.7239
  110CHL1   C1814353   1.704   5.846   5.996 -0.6647  0.0822  0.1601
  110CHL1  H18A14354   1.644   5.869   6.087 -1.5009  0.0170 -0.3690
  110CHL1  H18B14355   1.662   5.907   5.914 -0.1816  1.0305  0.5927
  110CHL1  H18C14356   1.681   5.740   5.974 -0.5004  0.8789 -4.9751
  110CHL1   C1214357   1.912   5.770   6.120 -0.2282 -0.0885  0.2191
  110CHL1  H12A14358   1.890   5.664   6.092  1.3181 -0.8727  1.8283
  110CHL1  H12B14359   2.022   5.770   6.135  0.2211  0.1577 -2.4501
  110CHL1   C1114360   1.847   5.799   6.253 -0.2061 -0.3269 -0.1002
  110CHL1  H11A14361   1.737   5.787   6.250 -0.3444  0.4321  1.0840
  110CHL1  H11B14362   1.888   5.732   6.332 -0.5654  2.6384  2.7993
  110CHL1    C914363   1.865   5.947   6.301 -0.2887 -0.4591  0.3570
  110CHL1    H914364   1.975   5.963   6.302 -0.4670  0.8264  0.2242
  110CHL1   C1014365   1.828   5.979   6.446 -0.2362  0.8336 -0.6099
  110CHL1   C1914366   1.688   5.931   6.480 -0.5013 -0.0479 -0.0674
  110CHL1  H19A14367   1.671   5.822   6.462 -1.0838  0.0570 -0.1538
  110CHL1  H19B14368   1.663   5.941   6.588  1.1252 -2.1364  0.5881
  110CHL1  H19C14369   1.604   5.973   6.422 -1.0825 -0.7499  0.2454
  110CHL1    C114370   1.935   5.921   6.538 -1.1048  0.5491  0.0844
  110CHL1   H1A14371   1.940   5.811   6.522 -1.6087  0.3714  1.0879
  110CHL1   H1B14372   2.040   5.953   6.518 -0.3283  1.2844  4.2982
  110CHL1    C214373   1.926   5.961   6.689  0.1320 -0.1227  0.2470
  110CHL1   H2A14374   2.013   5.920   6.744  0.0610  0.7888  1.0565
  110CHL1   H2B14375   1.835   5.921   6.737  1.2255 -0.0536  2.4813
  110CHL1   C2014376   1.922   5.752   5.769  0.2402 -0.5544 -0.4566
  110CHL1   H2014377   1.947   5.659   5.824 -1.4182 -0.6744  0.1581
  110CHL1   C2114378   2.034   5.782   5.661 -0.6354 -0.2078  0.2041
  110CHL1  H21A14379   2.067   5.694   5.602 -0.3150  0.0910 -0.0672
  110CHL1  H21B14380   2.123   5.821   5.713  0.7199  1.1513 -2.9080
  110CHL1  H21C14381   1.986   5.850   5.587  1.2906  0.5823 -0.3850
  110CHL1   C2214382   1.785   5.741   5.697 -0.2578  0.8523 -0.3495
  110CHL1  H22A14383   1.692   5.750   5.758  0.0132  1.8462 -0.0652
  110CHL1  H22B14384   1.786   5.830   5.629 -0.2440  1.3578  0.3025
  110CHL1   C2314385   1.772   5.619   5.612 -0.1525  0.3774  0.4061
  110CHL1  H23A14386   1.858   5.606   5.543 -0.3193  0.8294  0.1075
  110CHL1  H23B14387   1.768   5.525   5.671  1.3027 -0.7373 -1.1822
  110CHL1   C2414388   1.650   5.620   5.515 -0.1740 -0.3069  0.0555
  110CHL1  H24A14389   1.620   5.727   5.511  2.8616  0.6149 -0.8636
  110CHL1  H24B14390   1.679   5.586   5.414  1.7117 -0.0614  0.4705
  110CHL1   C2514391   1.527   5.542   5.568 -0.5518  0.2508  0.1488
  110CHL1   H2514392   1.541   5.433   5.553 -1.8948  0.1818 -0.7160
  110CHL1   C2614393   1.489   5.559   5.710  0.3823 -0.1424 -0.3896
  110CHL1  H26A14394   1.570   5.533   5.780 -0.2403 -2.5297 -0.4700
  110CHL1  H26B14395   1.444   5.661   5.718 -3.1977 -1.3636 -2.2736
  110CHL1  H26C14396   1.402   5.491   5.726  1.2812 -1.5114 -1.1724
  110CHL1   C2714397   1.411   5.587   5.478 -0.0134  0.2594  0.6673
  110CHL1  H27A14398   1.377   5.690   5.499  0.8785  1.0841 -1.5985
  110CHL1  H27B14399   1.450   5.603   5.375  0.9572 -3.4741  0.3038
  110CHL1  H27C14400   1.331   5.510   5.482 -0.1436  0.3871  0.5389
  111CHL1    C314401   2.584   0.734   6.779  0.2431  1.2981  0.1812
  111CHL1    H314402   2.693   0.713   6.778 -0.0616 -0.4644 -1.0728
  111CHL1    O314403   2.532   0.725   6.910 -0.0268  0.0630 -0.1276
  111CHL1   H3'14404   2.603   0.693   6.965 -1.3482 -0.9143  1.0643
  111CHL1    C414405   2.562   0.871   6.720  0.3724  0.7529 -0.2183
  111CHL1   H4A14406   2.453   0.876   6.741  0.4668  0.7924  0.2747
  111CHL1   H4B14407   2.617   0.951   6.774  0.9180  1.9061 -2.3424
  111CHL1    C514408   2.596   0.890   6.572 -0.6849 -0.5143  0.1891
  111CHL1    C614409   2.689   0.979   6.524 -0.7377 -0.8495 -0.1033
  111CHL1    H614410   2.739   1.043   6.599  0.5238 -1.8542 -0.0440
  111CHL1    C714411   2.735   0.996   6.382 -0.1566  0.0858 -0.4358
  111CHL1   H7A14412   2.729   1.103   6.353  0.7247 -0.6001 -3.4133
  111CHL1   H7B14413   2.841   0.969   6.366 -0.0785  1.0919 -1.7967
  111CHL1    C814414   2.643   0.915   6.288  0.0751  0.1526  0.1050
  111CHL1    H814415   2.544   0.958   6.262  0.3373 -1.2377 -4.0349
  111CHL1   C1414416   2.719   0.904   6.157  0.0385 -0.2300  0.5423
  111CHL1   H1414417   2.809   0.846   6.186 -1.1028 -1.7974  1.0396
  111CHL1   C1514418   2.768   1.034   6.089  0.1842  0.0325  0.4658
  111CHL1  H15A14419   2.680   1.101   6.085 -1.5629 -2.1233  0.8514
  111CHL1  H15B14420   2.854   1.086   6.137 -0.6341  1.6019  0.2991
  111CHL1   C1614421   2.799   0.988   5.945 -0.4990  0.0547 -0.2397
  111CHL1  H16A14422   2.739   1.049   5.873  0.6159  0.8873 -0.4853
  111CHL1  H16B14423   2.908   0.987   5.925  0.0997  0.2357  2.5788
  111CHL1   C1714424   2.745   0.838   5.934 -0.5185 -0.4235 -0.0518
  111CHL1   H1714425   2.833   0.777   5.965  0.3109  0.7702  0.0049
  111CHL1   C1314426   2.641   0.829   6.047 -0.1568  0.0546  0.3630
  111CHL1   C1814427   2.504   0.880   6.003 -0.2854 -0.6001 -0.4090
  111CHL1  H18A14428   2.435   0.891   6.090  0.4992  0.8672  0.0647
  111CHL1  H18B14429   2.505   0.981   5.955  2.1130 -1.2347 -1.8594
  111CHL1  H18C14430   2.477   0.801   5.930  0.2163 -1.3088  0.1666
  111CHL1   C1214431   2.633   0.686   6.100  1.6181 -0.3976 -0.0821
  111CHL1  H12A14432   2.575   0.629   6.024  1.6130  0.7437 -0.9576
  111CHL1  H12B14433   2.731   0.634   6.096  0.4990 -2.7105  0.3847
  111CHL1   C1114434   2.551   0.680   6.233 -0.5508 -0.5483  0.0812
  111CHL1  H11A14435   2.449   0.720   6.215  0.3677  1.0677 -1.9079
  111CHL1  H11B14436   2.560   0.575   6.269  1.7464 -0.6408 -0.5927
  111CHL1    C914437   2.619   0.774   6.339 -0.4350 -0.2307 -0.6205
  111CHL1    H914438   2.722   0.732   6.346 -1.1198 -2.0787 -1.0508
  111CHL1   C1014439   2.556   0.780   6.475 -0.2889 -0.1785 -1.1544
  111CHL1   C1914440   2.403   0.809   6.449 -0.2948 -0.3788  0.1325
  111CHL1  H19A14441   2.348   0.831   6.543 -1.1519 -0.7266 -0.2772
  111CHL1  H19B14442   2.392   0.886   6.370 -0.5445  0.6326  1.1251
  111CHL1  H19C14443   2.359   0.714   6.412  0.8605 -0.9004  0.0516
  111CHL1    C114444   2.573   0.645   6.542 -0.1631  0.6540 -0.3954
  111CHL1   H1A14445   2.519   0.575   6.476 -0.7216  0.2334  0.4903
  111CHL1   H1B14446   2.681   0.620   6.547 -0.3805 -0.3837 -0.7276
  111CHL1    C214447   2.510   0.636   6.687 -0.6268  0.6157  0.7380
  111CHL1   H2A14448   2.530   0.538   6.735  2.0738 -0.7346 -2.7517
  111CHL1   H2B14449   2.400   0.649   6.678 -0.3525  1.5616 -3.2863
  111CHL1   C2014450   2.707   0.790   5.801 -0.4317  0.0882 -0.6192
  111CHL1   H2014451   2.637   0.703   5.805 -0.1628 -0.1256 -0.5375
  111CHL1   C2114452   2.827   0.731   5.731  0.6469  0.8741  0.4401
  111CHL1  H21A14453   2.904   0.808   5.707  2.8049 -0.5708  2.3600
  111CHL1  H21B14454   2.803   0.678   5.636 -0.6088 -2.1610  2.3137
  111CHL1  H21C14455   2.874   0.664   5.805 -1.2359  1.1778  1.9723
  111CHL1   C2214456   2.650   0.896   5.705  0.6035 -0.0693  0.4277
  111CHL1  H22A14457   2.561   0.942   5.753 -1.1656 -1.3215 -1.4623
  111CHL1  H22B14458   2.735   0.966   5.688  0.6360 -0.1033  0.4496
  111CHL1   C2314459   2.597   0.834   5.575 -0.4826 -0.0040  0.0337
  111CHL1  H23A14460   2.685   0.810   5.511  0.7049  0.1078  1.5691
  111CHL1  H23B14461   2.537   0.741   5.584 -0.2671 -0.3988 -2.1330
  111CHL1   C2414462   2.523   0.942   5.497  0.2045  0.3405 -0.2811
  111CHL1  H24A14463   2.424   0.954   5.546  0.2049  1.4515 -0.5099
  111CHL1  H24B14464   2.588   1.031   5.511 -1.4448  1.1789  3.2738
  111CHL1   C2514465   2.506   0.908   5.349  0.5089 -0.5472 -0.2341
  111CHL1   H2514466   2.605   0.877   5.310 -0.4458 -1.4163 -2.1029
  111CHL1   C2614467   2.416   0.780   5.335  0.2057 -1.0286 -0.4599
  111CHL1  H26A14468   2.411   0.758   5.226  1.5812  0.0502 -0.7712
  111CHL1  H26B14469   2.470   0.692   5.375  1.2683  0.2851  1.1211
  111CHL1  H26C14470   2.313   0.785   5.377  0.4146 -5.3594  1.1306
  111CHL1   C2714471   2.447   1.030   5.268 -0.3126 -0.1178 -0.4301
  111CHL1  H27A14472   2.521   1.113   5.276 -1.3311  0.8960 -1.1322
  111CHL1  H27B14473   2.443   0.995   5.162  0.5782 -3.9033  0.6408
  111CHL1  H27C14474   2.348   1.066   5.304  0.5078  1.4625  0.3619
  112CHL1    C314475   4.261   1.158   6.781 -1.1100  0.2475  0.0657
  112CHL1    H314476   4.166   1.214   6.772 -1.8255 -1.0605 -0.8674
  112CHL1    O314477   4.317   1.182   6.908 -0.2854 -0.3847 -0.1938
  112CHL1   H3'14478   4.403   1.140   6.903  0.5194  1.1935 -0.4964
  112CHL1    C414479   4.216   1.011   6.771 -0.2126  0.0572  0.1020
  112CHL1   H4A14480   4.300   0.945   6.800  0.6725  0.0344 -2.3374
  112CHL1   H4B14481   4.139   0.992   6.850  1.3414  0.6348  1.8235
  112CHL1    C514482   4.178   0.970   6.633 -0.2708 -0.2378  0.1706
  112CHL1    C614483   4.062   0.913   6.602  0.6201  0.1906  0.7504
  112CHL1    H614484   3.990   0.889   6.681  0.1006  0.3792  0.3432
  112CHL1    C714485   4.021   0.865   6.468  0.4580 -0.0394  0.1307
  112CHL1   H7A14486   3.977   0.763   6.474 -0.4750  0.2123 -1.6436
  112CHL1   H7B14487   3.941   0.939   6.451  0.3883 -0.0539  0.3987
  112CHL1    C814488   4.129   0.875   6.354  0.2947 -0.3391  0.7716
  112CHL1    H814489   4.209   0.799   6.369  1.1287  0.6348  1.3382
  112CHL1   C1414490   4.070   0.879   6.218  0.1172 -0.1532 -0.8682
  112CHL1   H1414491   4.000   0.965   6.215  0.8268  0.4180 -1.2672
  112CHL1   C1514492   3.980   0.753   6.178  0.1100  0.3029  0.0511
  112CHL1  H15A14493   4.033   0.657   6.197 -0.3319 -0.2956 -1.5209
  112CHL1  H15B14494   3.881   0.755   6.226  0.3443 -1.5969  0.6968
  112CHL1   C1614495   3.976   0.775   6.026  0.1347  0.1424  0.5075
  112CHL1  H16A14496   4.007   0.680   5.977 -1.0448 -0.7967  1.4944
  112CHL1  H16B14497   3.868   0.791   6.002  0.2668  0.4097  0.0786
  112CHL1   C1714498   4.068   0.887   5.985  0.6848  0.3806 -0.7219
  112CHL1   H1714499   4.003   0.977   5.976  0.0382  0.2633  1.8188
  112CHL1   C1314500   4.169   0.896   6.106  0.1183 -0.0796  0.8581
  112CHL1   C1814501   4.275   0.779   6.107  0.0377  0.0271 -0.0566
  112CHL1  H18A14502   4.223   0.682   6.090  1.8294 -0.5992 -2.5488
  112CHL1  H18B14503   4.350   0.797   6.027  2.3328 -1.4469  1.6131
  112CHL1  H18C14504   4.329   0.777   6.204  1.0414  0.0996 -0.5930
  112CHL1   C1214505   4.237   1.034   6.126 -0.1282 -0.2945  0.1942
  112CHL1  H12A14506   4.325   1.041   6.058  0.6988  0.0088  1.2778
  112CHL1  H12B14507   4.158   1.111   6.109  0.4576  0.1443 -0.5927
  112CHL1   C1114508   4.302   1.052   6.264  0.8747  0.2798  1.7339
  112CHL1  H11A14509   4.399   0.998   6.264  0.3467 -0.7764 -0.6529
  112CHL1  H11B14510   4.324   1.161   6.269 -1.2883  0.7891  1.1936
  112CHL1    C914511   4.204   1.013   6.378  0.2989 -0.2025  0.6296
  112CHL1    H914512   4.119   1.085   6.376  0.4484 -0.0377 -0.2182
  112CHL1   C1014513   4.272   1.019   6.518  0.5426 -0.8041  0.4203
  112CHL1   C1914514   4.401   0.929   6.526  0.2272 -0.0607 -0.3945
  112CHL1  H19A14515   4.390   0.835   6.468  0.5428 -0.4828  0.2161
  112CHL1  H19B14516   4.491   0.981   6.487  0.7526 -0.2928  0.5038
  112CHL1  H19C14517   4.434   0.905   6.629 -0.9904 -0.0473  0.0189
  112CHL1    C114518   4.314   1.166   6.540  0.4972  0.6322  0.8163
  112CHL1   H1A14519   4.397   1.190   6.469  1.1726  0.7304  1.6297
  112CHL1   H1B14520   4.225   1.227   6.515  0.7495  0.7094  0.0833
  112CHL1    C214521   4.363   1.202   6.677  0.1338  0.3187 -0.3258
  112CHL1   H2A14522   4.384   1.311   6.680  2.1326 -0.0311 -0.0269
  112CHL1   H2B14523   4.454   1.142   6.699 -0.3871 -0.9584 -1.4891
  112CHL1   C2014524   4.127   0.870   5.845  0.0195  0.3651 -0.6176
  112CHL1   H2014525   4.195   0.782   5.847 -0.7362 -0.3201 -2.5496
  112CHL1   C2114526   4.202   1.006   5.807  0.8007  0.3964  0.2416
  112CHL1  H21A14527   4.300   1.014   5.860  0.3214  0.8395  1.0867
  112CHL1  H21B14528   4.138   1.095   5.826  0.3631  0.3509 -0.9173
  112CHL1  H21C14529   4.234   1.011   5.701  0.9116 -0.6533  0.2217
  112CHL1   C2214530   4.023   0.833   5.732 -0.4683  0.2811  0.6451
  112CHL1  H22A14531   3.954   0.755   5.772  1.0054 -0.6881  1.3764
  112CHL1  H22B14532   3.965   0.923   5.702  0.1600 -0.1598 -2.1734
  112CHL1   C2314533   4.099   0.766   5.611  0.1579 -0.5652 -0.3701
  112CHL1  H23A14534   4.155   0.846   5.558 -1.2948  1.8970  1.5440
  112CHL1  H23B14535   4.176   0.693   5.645 -1.1890 -2.1801 -0.6330
  112CHL1   C2414536   4.007   0.705   5.506  0.5117 -0.8526 -0.1279
  112CHL1  H24A14537   3.956   0.613   5.542  1.3048 -1.1268  0.3309
  112CHL1  H24B14538   3.927   0.778   5.481  0.2113 -1.2390 -0.3065
  112CHL1   C2514539   4.094   0.667   5.380  0.2289  1.0150 -0.2856
  112CHL1   H2514540   4.186   0.623   5.425 -0.0419  1.8599  1.1708
  112CHL1   C2614541   4.015   0.555   5.311  0.1650 -0.5412 -0.4062
  112CHL1  H26A14542   3.925   0.590   5.257 -0.2529 -1.3687 -0.2549
  112CHL1  H26B14543   4.077   0.509   5.230  1.4964  2.6723 -1.3667
  112CHL1  H26C14544   3.981   0.483   5.388 -1.1530 -0.1026 -0.5585
  112CHL1   C2714545   4.132   0.783   5.288 -0.9364  0.1559  0.0397
  112CHL1  H27A14546   4.220   0.746   5.231 -1.2921  2.0742 -1.8701
  112CHL1  H27B14547   4.052   0.817   5.219 -1.7232 -0.5820  0.5632
  112CHL1  H27C14548   4.176   0.865   5.349  0.7809  0.4523 -1.5258
  113CHL1    C314549   1.496   5.426   6.768  0.0957 -0.2920 -0.0103
  113CHL1    H314550   1.437   5.338   6.800 -0.0783 -0.2086 -0.1009
  113CHL1    O314551   1.562   5.491   6.873  0.2327  0.1055  0.3588
  113CHL1   H3'14552   1.608   5.417   6.912 -0.0847 -0.6808 -0.7051
  113CHL1    C414553   1.609   5.383   6.666  0.8230 -0.4437 -0.7637
  113CHL1   H4A14554   1.662   5.473   6.629  1.6281  0.3286  1.9978
  113CHL1   H4B14555   1.682   5.323   6.724 -0.2451 -1.2105 -0.1767
  113CHL1    C514556   1.549   5.310   6.552 -0.4936 -0.0173 -0.3066
  113CHL1    C614557   1.585   5.181   6.527  0.2318 -0.7097 -0.1534
  113CHL1    H614558   1.661   5.122   6.581 -0.1483 -3.6320 -2.5353
  113CHL1    C714559   1.526   5.114   6.405 -0.1027 -0.0118 -0.0802
  113CHL1   H7A14560   1.601   5.048   6.356  0.5442  0.1067  0.7332
  113CHL1   H7B14561   1.444   5.045   6.434  1.7399 -1.9664  0.7541
  113CHL1    C814562   1.467   5.205   6.293 -0.1112 -0.6343 -0.4586
  113CHL1    H814563   1.551   5.263   6.250  0.5844 -0.1092  1.5017
  113CHL1   C1414564   1.390   5.123   6.196 -0.3875 -0.1418 -0.8856
  113CHL1   H1414565   1.318   5.073   6.265  1.3858  1.8839  2.6599
  113CHL1   C1514566   1.461   4.996   6.137  0.1015 -0.8940 -0.3525
  113CHL1  H15A14567   1.568   5.007   6.108  0.4114 -2.3122  0.1669
  113CHL1  H15B14568   1.442   4.917   6.213 -1.6552 -0.1552  0.0146
  113CHL1   C1614569   1.379   4.961   6.017  0.3671  0.4720 -0.0636
  113CHL1  H16A14570   1.441   4.975   5.926  0.8221 -1.0713 -0.0288
  113CHL1  H16B14571   1.363   4.851   6.020  0.3807  0.4064 -1.5768
  113CHL1   C1714572   1.258   5.056   6.012 -0.9293  0.1685  0.2797
  113CHL1   H1714573   1.173   5.020   6.074 -3.9942 -0.0012 -3.6123
  113CHL1   C1314574   1.313   5.185   6.085  0.8738 -0.1707 -0.0770
  113CHL1   C1814575   1.406   5.266   5.988 -0.1395 -0.2771  0.7046
  113CHL1  H18A14576   1.345   5.321   5.913 -1.6558 -2.4157  0.2961
  113CHL1  H18B14577   1.461   5.343   6.046 -1.4266 -0.5770  2.4107
  113CHL1  H18C14578   1.479   5.203   5.935 -2.2770 -2.5098  0.2369
  113CHL1   C1214579   1.215   5.282   6.154 -0.1418 -0.0435  0.1960
  113CHL1  H12A14580   1.159   5.327   6.069 -2.6648 -1.2861  1.0878
  113CHL1  H12B14581   1.135   5.236   6.216 -2.4045  2.9146 -0.2471
  113CHL1   C1114582   1.281   5.389   6.250 -0.1841  0.4144 -0.0946
  113CHL1  H11A14583   1.347   5.459   6.194 -1.3090  4.0430  2.6977
  113CHL1  H11B14584   1.210   5.460   6.298  1.4940  1.8091  0.3918
  113CHL1    C914585   1.372   5.308   6.357 -0.4450 -0.1087 -0.4070
  113CHL1    H914586   1.298   5.249   6.415 -1.8619  1.1951 -0.8240
  113CHL1   C1014587   1.450   5.395   6.462  0.1716  0.4476  0.2504
  113CHL1   C1914588   1.518   5.513   6.382  0.3303  0.4926 -0.6730
  113CHL1  H19A14589   1.589   5.570   6.446 -1.3321  2.0765 -0.1552
  113CHL1  H19B14590   1.567   5.474   6.290 -0.4463 -0.4843 -0.6809
  113CHL1  H19C14591   1.431   5.577   6.357 -2.0516 -2.1855  0.2752
  113CHL1    C114592   1.342   5.450   6.564  0.0355 -0.6582 -0.3343
  113CHL1   H1A14593   1.281   5.528   6.513  0.5737  0.3129  0.4745
  113CHL1   H1B14594   1.284   5.361   6.598 -0.5270 -0.0092  0.4341
  113CHL1    C214595   1.387   5.516   6.696  0.4529 -0.3956 -0.6158
  113CHL1   H2A14596   1.301   5.527   6.765  0.7825 -0.0005 -0.2643
  113CHL1   H2B14597   1.426   5.619   6.684 -2.3363  0.6882 -0.9341
  113CHL1   C2014598   1.205   5.071   5.869 -0.0158  0.2593  0.2738
  113CHL1   H2014599   1.288   5.094   5.798 -0.5892 -0.4665 -0.6687
  113CHL1   C2114600   1.098   5.175   5.859  0.2342  0.1287 -0.4328
  113CHL1  H21A14601   1.030   5.157   5.945 -0.7595 -1.1651 -1.4333
  113CHL1  H21B14602   1.044   5.171   5.762  0.4262  0.1129 -0.5385
  113CHL1  H21C14603   1.130   5.280   5.875 -0.2951  0.1805  0.3272
  113CHL1   C2214604   1.165   4.929   5.818  0.4874  0.6934  0.1270
  113CHL1  H22A14605   1.253   4.862   5.810 -0.6887 -0.8728  0.0566
  113CHL1  H22B14606   1.095   4.883   5.891  2.8649  0.9828  2.7818
  113CHL1   C2314607   1.119   4.930   5.675  0.0405 -0.6778 -0.0980
  113CHL1  H23A14608   1.017   4.973   5.665  0.2429 -0.4356 -1.2593
  113CHL1  H23B14609   1.191   4.988   5.614  0.8004 -2.6580 -1.1623
  113CHL1   C2414610   1.115   4.789   5.618  0.6396  0.5867 -0.1338
  113CHL1  H24A14611   1.222   4.762   5.606  0.1680 -0.6040 -2.2544
  113CHL1  H24B14612   1.069   4.708   5.678 -1.7211  0.3635 -2.0486
  113CHL1   C2514613   1.043   4.785   5.481  0.1149  1.1631  0.8462
  113CHL1   H2514614   0.943   4.833   5.489 -0.2260  0.5140  0.5395
  113CHL1   C2614615   1.107   4.869   5.367  0.3293  1.0105 -0.8614
  113CHL1  H26A14616   1.218   4.863   5.369  0.3545  1.5323 -0.5489
  113CHL1  H26B14617   1.076   4.832   5.267  1.8233 -2.4839 -0.1777
  113CHL1  H26C14618   1.094   4.977   5.389  0.0455  0.6531  0.8575
  113CHL1   C2714619   1.020   4.642   5.431  0.4777  0.2216 -0.3910
  113CHL1  H27A14620   0.958   4.599   5.512  0.4499  0.4017 -0.3160
  113CHL1  H27B14621   0.951   4.647   5.343 -0.5632 -1.8799  0.2390
  113CHL1  H27C14622   1.108   4.579   5.409  1.4752  1.3458  0.3074
  114CHL1    C314623   5.342   7.427   6.657  0.0163 -0.3496 -0.6094
  114CHL1    H314624   5.255   7.496   6.655 -1.1260 -1.6599  0.8404
  114CHL1    O314625   5.394   7.428   6.794  0.1160 -0.3884 -0.5150
  114CHL1   H3'14626   5.489   7.421   6.782  0.5300  1.2114  1.2597
  114CHL1    C414627   5.295   7.283   6.624  0.0460  0.2754  0.0236
  114CHL1   H4A14628   5.392   7.240   6.657  0.6987  1.4819 -0.2733
  114CHL1   H4B14629   5.228   7.245   6.704 -1.4026  2.2527 -0.1932
  114CHL1    C514630   5.267   7.241   6.484 -0.1937 -0.0934  0.3976
  114CHL1    C614631   5.158   7.162   6.438  0.0278  0.0755 -0.5731
  114CHL1    H614632   5.091   7.115   6.511  1.7472 -2.3040 -0.3758
  114CHL1    C714633   5.130   7.122   6.298  0.7170 -0.1457  0.4494
  114CHL1   H7A14634   5.090   7.019   6.289  1.4778 -0.4079 -0.0083
  114CHL1   H7B14635   5.059   7.192   6.248  1.0922  0.2441  0.4543
  114CHL1    C814636   5.253   7.146   6.210 -0.3749 -0.0966 -0.2457
  114CHL1    H814637   5.321   7.066   6.245 -0.1350  0.4643  0.5935
  114CHL1   C1414638   5.222   7.129   6.063  0.8407 -0.3686 -0.3197
  114CHL1   H1414639   5.149   7.210   6.042  1.4586  0.1696 -0.4372
  114CHL1   C1514640   5.147   7.005   6.011  0.8215  0.3847  0.6425
  114CHL1  H15A14641   5.213   6.915   6.011  2.2780  1.3417 -1.5930
  114CHL1  H15B14642   5.052   6.976   6.059  1.5807 -0.8521  1.4601
  114CHL1   C1614643   5.143   7.038   5.859 -0.4390 -0.7768  0.1297
  114CHL1  H16A14644   5.167   6.946   5.803  1.2389  0.8097 -1.9286
  114CHL1  H16B14645   5.037   7.067   5.844 -0.5650 -0.6901  1.1061
  114CHL1   C1714646   5.239   7.156   5.835 -0.3305  0.3682 -0.1578
  114CHL1   H1714647   5.172   7.245   5.829 -0.9631 -0.0674  0.3346
  114CHL1   C1314648   5.327   7.172   5.962 -0.4732 -0.7070 -0.4659
  114CHL1   C1814649   5.447   7.063   5.957 -0.1685 -0.0997  0.2348
  114CHL1  H18A14650   5.522   7.091   5.880  0.8610 -1.0292  0.8541
  114CHL1  H18B14651   5.505   7.059   6.052  0.7874  1.5983 -0.2362
  114CHL1  H18C14652   5.400   6.963   5.942 -1.1128  0.6335 -2.1971
  114CHL1   C1214653   5.375   7.316   5.991 -0.0893  0.4747 -0.5694
  114CHL1  H12A14654   5.460   7.329   5.920 -0.0499 -0.4086 -0.6968
  114CHL1  H12B14655   5.310   7.402   5.963  0.8081  0.3912 -3.2777
  114CHL1   C1114656   5.425   7.327   6.134  0.3668 -0.4668 -0.2280
  114CHL1  H11A14657   5.519   7.267   6.133  0.1665 -0.7802 -0.1748
  114CHL1  H11B14658   5.473   7.426   6.150  3.0538 -1.3773 -1.8447
  114CHL1    C914659   5.320   7.287   6.239 -0.1438  0.1042 -0.2692
  114CHL1    H914660   5.242   7.366   6.237 -1.6671 -1.3291  0.2976
  114CHL1   C1014661   5.370   7.293   6.389  0.2516 -0.2003 -0.5533
  114CHL1   C1914662   5.496   7.214   6.413 -0.6356 -0.0545  0.3115
  114CHL1  H19A14663   5.520   7.209   6.521  1.0595 -2.3025 -0.0977
  114CHL1  H19B14664   5.483   7.108   6.383 -0.9943  0.2286 -0.5789
  114CHL1  H19C14665   5.581   7.257   6.356 -0.6177  1.4089  1.3816
  114CHL1    C114666   5.404   7.448   6.420  0.6836 -1.1881 -0.7635
  114CHL1   H1A14667   5.482   7.478   6.347  0.6334 -0.3090 -0.4721
  114CHL1   H1B14668   5.311   7.505   6.402 -1.1353 -3.2587  1.4083
  114CHL1    C214669   5.447   7.481   6.566  0.0119 -0.2168  0.3030
  114CHL1   H2A14670   5.471   7.590   6.573  3.6363 -0.9484  1.0056
  114CHL1   H2B14671   5.548   7.438   6.581  0.4597  1.5941  3.6466
  114CHL1   C2014672   5.314   7.147   5.698 -0.2215  0.0203 -0.3965
  114CHL1   H2014673   5.370   7.052   5.713  2.2466  1.6682  1.7635
  114CHL1   C2114674   5.414   7.258   5.666 -0.8324  0.3953 -0.0824
  114CHL1  H21A14675   5.474   7.232   5.577  0.4332 -0.6914  1.0502
  114CHL1  H21B14676   5.498   7.259   5.739 -1.3965 -0.0370  0.5772
  114CHL1  H21C14677   5.379   7.362   5.648 -2.1835  0.0712  0.5854
  114CHL1   C2214678   5.214   7.122   5.580  0.9853 -0.3137  0.0993
  114CHL1  H22A14679   5.284   7.086   5.501 -1.0069 -2.6168 -0.7298
  114CHL1  H22B14680   5.159   7.026   5.589  2.4451 -1.0813  1.1397
  114CHL1   C2314681   5.117   7.239   5.548  0.7520  0.1565  0.5536
  114CHL1  H23A14682   5.048   7.272   5.628  1.7807 -2.7324  2.8016
  114CHL1  H23B14683   5.179   7.324   5.512  0.3639  1.1589  2.1712
  114CHL1   C2414684   5.034   7.207   5.419  0.0274  0.8899  0.3281
  114CHL1  H24A14685   4.993   7.307   5.394  0.5094  1.5363  1.9509
  114CHL1  H24B14686   5.107   7.179   5.340 -0.9382 -2.6767  0.5444
  114CHL1   C2514687   4.934   7.089   5.439  0.4835 -0.1905 -1.0130
  114CHL1   H2514688   4.989   6.996   5.460  1.8177  0.6652 -0.6119
  114CHL1   C2614689   4.831   7.118   5.556 -0.2600 -0.4341 -0.7057
  114CHL1  H26A14690   4.880   7.080   5.647 -1.4404 -1.3677 -0.4393
  114CHL1  H26B14691   4.804   7.226   5.559  0.5065 -0.2669  0.4372
  114CHL1  H26C14692   4.740   7.057   5.536  0.0224 -1.1082  0.0352
  114CHL1   C2714693   4.846   7.064   5.321 -0.9084  0.6914 -0.1935
  114CHL1  H27A14694   4.910   7.050   5.231 -0.5026  1.2820 -0.0026
  114CHL1  H27B14695   4.789   6.969   5.322 -0.5931  0.4912  1.2670
  114CHL1  H27C14696   4.783   7.154   5.308 -1.1311  0.7733  1.3264
  115CHL1    C314697   1.502   0.344   6.796  0.7331  0.5736  0.2852
  115CHL1    H314698   1.446   0.436   6.767 -0.3524  0.1333  0.9076
  115CHL1    O314699   1.495   0.318   6.935 -0.6827 -0.5874  0.1868
  115CHL1   H3'14700   1.534   0.231   6.950  0.8591  0.3918  2.6537
  115CHL1    C414701   1.423   0.229   6.726 -0.1207  0.0939 -1.3163
  115CHL1   H4A14702   1.469   0.135   6.764 -0.4472  0.7626  0.9002
  115CHL1   H4B14703   1.319   0.230   6.764 -0.1415  1.4705 -1.3503
  115CHL1    C514704   1.423   0.236   6.574 -0.6974 -0.7976 -0.1674
  115CHL1    C614705   1.308   0.232   6.503 -0.1638 -0.3258 -0.4306
  115CHL1    H614706   1.218   0.204   6.560  1.0224 -1.6286  0.8921
  115CHL1    C714707   1.298   0.235   6.350  0.6374 -0.6509  0.0565
  115CHL1   H7A14708   1.235   0.151   6.314 -0.6023  0.6270 -0.8834
  115CHL1   H7B14709   1.238   0.320   6.311 -3.2018 -3.3757 -0.4707
  115CHL1    C814710   1.434   0.233   6.274 -0.3405  0.2155  0.4307
  115CHL1    H814711   1.455   0.125   6.261 -0.7150  0.1983 -0.0822
  115CHL1   C1414712   1.421   0.295   6.136  0.0591 -0.2753  0.8175
  115CHL1   H1414713   1.403   0.405   6.140  2.4229  0.3606 -2.4129
  115CHL1   C1514714   1.301   0.246   6.051  0.2115 -0.3094  0.0571
  115CHL1  H15A14715   1.269   0.144   6.079 -0.6506  0.2179  1.0501
  115CHL1  H15B14716   1.213   0.311   6.066 -0.0987 -0.2695 -1.6831
  115CHL1   C1614717   1.354   0.256   5.908 -0.3047  0.2259 -1.1967
  115CHL1  H16A14718   1.360   0.152   5.870 -0.0769 -0.3608  0.4081
  115CHL1  H16B14719   1.286   0.315   5.842 -2.5091 -0.6211  0.1854
  115CHL1   C1714720   1.499   0.308   5.910 -0.2155  1.1023  0.0092
  115CHL1   H1714721   1.488   0.419   5.912  1.3909  1.2790  0.8598
  115CHL1   C1314722   1.545   0.276   6.050 -0.1965 -0.1828  0.3739
  115CHL1   C1814723   1.586   0.129   6.044 -0.4351  0.3975 -0.6222
  115CHL1  H18A14724   1.666   0.112   5.968  0.0928 -1.4148  0.2790
  115CHL1  H18B14725   1.615   0.085   6.142  0.6161  0.8504 -0.7168
  115CHL1  H18C14726   1.510   0.061   5.999 -0.8127  0.7995 -0.5964
  115CHL1   C1214727   1.648   0.365   6.119 -0.2414 -0.0810  0.1127
  115CHL1  H12A14728   1.749   0.338   6.081  0.8060  1.6171  1.5431
  115CHL1  H12B14729   1.647   0.472   6.089  0.2232 -0.2079 -0.3686
  115CHL1   C1114730   1.660   0.338   6.270  0.2418 -0.2288 -0.0022
  115CHL1  H11A14731   1.731   0.254   6.286 -0.1605 -0.5941 -0.1293
  115CHL1  H11B14732   1.721   0.423   6.309  1.3251 -1.7862  1.8778
  115CHL1    C914733   1.531   0.311   6.356  0.2467 -0.1221  0.5345
  115CHL1    H914734   1.481   0.410   6.361 -0.7205 -0.5161 -0.9171
  115CHL1   C1014735   1.559   0.264   6.503  0.2841  0.4744 -0.0024
  115CHL1   C1914736   1.640   0.143   6.501 -0.0135 -0.4831 -0.2598
  115CHL1  H19A14737   1.642   0.093   6.600  0.8494  0.3509  0.1630
  115CHL1  H19B14738   1.598   0.079   6.420  0.2208 -0.1875 -0.6220
  115CHL1  H19C14739   1.744   0.165   6.466  0.8979 -0.5324  2.2118
  115CHL1    C114740   1.636   0.376   6.584  1.1582  0.5103  0.3503
  115CHL1   H1A14741   1.732   0.391   6.530  1.0578 -0.5558 -0.1395
  115CHL1   H1B14742   1.580   0.471   6.569  0.6062  0.0822 -0.3798
  115CHL1    C214743   1.644   0.353   6.738  0.3504 -0.0847  0.1509
  115CHL1   H2A14744   1.691   0.442   6.785  0.6168  0.0870 -0.4341
  115CHL1   H2B14745   1.705   0.262   6.756  2.8067  1.0919 -1.6515
  115CHL1   C2014746   1.581   0.278   5.775 -0.0040 -0.2437 -0.3185
  115CHL1   H2014747   1.612   0.171   5.770  0.5979 -0.0095 -2.1520
  115CHL1   C2114748   1.715   0.358   5.778 -0.2167  0.3877 -0.3685
  115CHL1  H21A14749   1.781   0.302   5.848 -0.6950  1.3897  0.9231
  115CHL1  H21B14750   1.692   0.454   5.829  0.4946 -0.2399  1.2183
  115CHL1  H21C14751   1.759   0.373   5.678 -0.9490  1.4993 -0.5379
  115CHL1   C2214752   1.503   0.324   5.651  0.9514  0.9964  0.3048
  115CHL1  H22A14753   1.563   0.310   5.558  1.4769  1.1357  0.6191
  115CHL1  H22B14754   1.417   0.254   5.646  2.0494 -0.6835  2.8830
  115CHL1   C2314755   1.442   0.463   5.651  0.1295 -1.0198 -0.5834
  115CHL1  H23A14756   1.379   0.486   5.740 -0.6899 -0.6610 -1.2488
  115CHL1  H23B14757   1.534   0.526   5.653  0.2815 -1.2519  0.0889
  115CHL1   C2414758   1.364   0.496   5.523  0.8680 -0.2410  0.4531
  115CHL1  H24A14759   1.426   0.453   5.442  0.2062  0.1671 -0.2827
  115CHL1  H24B14760   1.268   0.442   5.535  1.5114 -1.3389  0.7145
  115CHL1   C2514761   1.315   0.639   5.505  0.0304 -0.1105  0.6296
  115CHL1   H2514762   1.406   0.699   5.527  0.0623 -0.3273  1.1142
  115CHL1   C2614763   1.268   0.684   5.366 -0.8984 -1.0071  0.6220
  115CHL1  H26A14764   1.190   0.624   5.315 -3.0196  2.3550 -0.4291
  115CHL1  H26B14765   1.239   0.791   5.359  0.0281 -0.8100 -0.5350
  115CHL1  H26C14766   1.356   0.682   5.299 -2.0034 -0.5367 -0.9101
  115CHL1   C2714767   1.215   0.681   5.612  0.7070  0.0458 -0.1758
  115CHL1  H27A14768   1.255   0.646   5.710  1.1421  1.2128  0.0864
  115CHL1  H27B14769   1.193   0.790   5.614  0.8908  0.1385 -1.8203
  115CHL1  H27C14770   1.119   0.631   5.587 -0.2560  1.8055 -0.1802
  116CHL1    C314771   2.085   0.507   6.722 -0.5406  0.8216  0.2240
  116CHL1    H314772   2.140   0.603   6.717  1.9989 -0.6080 -1.0887
  116CHL1    O314773   2.042   0.486   6.852 -0.4157  0.4635 -0.1105
  116CHL1   H3'14774   2.094   0.409   6.878 -0.1968 -0.1395 -2.2057
  116CHL1    C414775   1.970   0.509   6.627 -0.3418  0.8576 -0.6963
  116CHL1   H4A14776   1.906   0.421   6.645  1.4189 -0.3303  0.0412
  116CHL1   H4B14777   1.911   0.598   6.661  2.1692  2.9061 -1.3611
  116CHL1    C514778   2.021   0.517   6.482  0.1962 -0.8194 -0.3242
  116CHL1    C614779   1.978   0.608   6.398  0.1017 -1.0976  0.0533
  116CHL1    H614780   1.901   0.677   6.435 -0.2477 -0.5574 -1.6158
  116CHL1    C714781   2.023   0.622   6.252 -0.2553 -0.3525  0.2321
  116CHL1   H7A14782   1.950   0.674   6.187  0.1767 -0.1847 -0.1277
  116CHL1   H7B14783   2.105   0.697   6.248  0.5969 -1.2831 -0.3956
  116CHL1    C814784   2.074   0.491   6.196  0.6282  0.3394  0.1747
  116CHL1    H814785   1.990   0.421   6.179 -0.8659  2.3096 -1.0461
  116CHL1   C1414786   2.139   0.515   6.062 -0.2359 -1.3074  0.0393
  116CHL1   H1414787   2.221   0.589   6.079  0.2923 -1.7521 -0.5285
  116CHL1   C1514788   2.046   0.562   5.948  0.4650 -0.8423 -0.2539
  116CHL1  H15A14789   1.948   0.511   5.958  0.1977 -0.4246 -0.7043
  116CHL1  H15B14790   2.025   0.670   5.959  1.2230 -0.5531 -1.3841
  116CHL1   C1614791   2.107   0.514   5.815 -0.5760 -0.3532 -0.2878
  116CHL1  H16A14792   2.036   0.444   5.766  1.1003 -2.5936  0.3137
  116CHL1  H16B14793   2.129   0.601   5.749 -0.5210  0.0259  0.2217
  116CHL1   C1714794   2.242   0.445   5.855  0.1290  0.0761  0.0123
  116CHL1   H1714795   2.313   0.530   5.863  0.5782 -0.1614 -1.3291
  116CHL1   C1314796   2.212   0.394   6.003 -1.0493  0.0280  0.0946
  116CHL1   C1814797   2.121   0.275   5.986  0.4254 -0.1606  0.3559
  116CHL1  H18A14798   2.086   0.239   6.085 -1.4888 -4.2843 -1.5865
  116CHL1  H18B14799   2.035   0.306   5.922  1.4442  0.8656 -0.5742
  116CHL1  H18C14800   2.168   0.189   5.933  1.5277  0.7034 -0.1402
  116CHL1   C1214801   2.332   0.360   6.096 -0.4856 -0.1091  0.1862
  116CHL1  H12A14802   2.400   0.277   6.068 -0.7858 -0.3274  0.0995
  116CHL1  H12B14803   2.394   0.450   6.114  1.3758 -1.4239  0.6519
  116CHL1   C1114804   2.274   0.327   6.237  0.2358 -0.3120  0.5277
  116CHL1  H11A14805   2.225   0.228   6.228  2.7556 -1.4954 -1.5739
  116CHL1  H11B14806   2.351   0.306   6.314  0.8880 -1.4484 -0.4105
  116CHL1    C914807   2.177   0.435   6.296  0.0463 -1.1452 -0.0067
  116CHL1    H914808   2.237   0.529   6.306 -0.1699 -1.0819  0.7834
  116CHL1   C1014809   2.119   0.412   6.440  0.4144 -0.2083 -0.3761
  116CHL1   C1914810   2.044   0.276   6.439 -0.3111  0.4379  0.0824
  116CHL1  H19A14811   1.957   0.280   6.370  1.5428  1.1924 -2.3933
  116CHL1  H19B14812   2.112   0.194   6.407 -0.3532  0.5997 -0.4348
  116CHL1  H19C14813   1.994   0.241   6.532 -0.8363  2.8162  0.7592
  116CHL1    C114814   2.231   0.403   6.546 -0.0066  0.9733  0.4569
  116CHL1   H1A14815   2.304   0.325   6.516  1.5051  2.8323 -0.9936
  116CHL1   H1B14816   2.286   0.499   6.535 -1.9059  1.9094 -1.4679
  116CHL1    C214817   2.185   0.397   6.690  0.9500  0.4118 -0.9544
  116CHL1   H2A14818   2.272   0.403   6.759  0.1222  0.8420  0.0786
  116CHL1   H2B14819   2.141   0.295   6.698  0.7454  0.5065 -0.8549
  116CHL1   C2014820   2.295   0.351   5.741  0.6911 -0.8560  0.4248
  116CHL1   H2014821   2.210   0.284   5.718  0.6401  0.0476 -2.4049
  116CHL1   C2114822   2.410   0.259   5.785 -0.0547 -0.1846 -0.2920
  116CHL1  H21A14823   2.397   0.223   5.889 -1.2464  0.9791 -0.0001
  116CHL1  H21B14824   2.510   0.307   5.793  0.3121 -0.4813 -2.4999
  116CHL1  H21C14825   2.417   0.174   5.715 -2.1208 -0.5700 -0.0874
  116CHL1   C2214826   2.327   0.417   5.605  0.1278  0.3284  0.4318
  116CHL1  H22A14827   2.233   0.472   5.580  1.1944  2.5233  1.0451
  116CHL1  H22B14828   2.405   0.489   5.637  0.6601 -0.1294  0.1837
  116CHL1   C2314829   2.383   0.323   5.493 -0.6358 -0.6132  0.5870
  116CHL1  H23A14830   2.475   0.269   5.523 -1.5916 -1.7397  1.5629
  116CHL1  H23B14831   2.312   0.238   5.486  2.2282 -3.1773  0.4147
  116CHL1   C2414832   2.399   0.381   5.352 -0.4071 -0.3318 -0.0310
  116CHL1  H24A14833   2.303   0.420   5.311 -1.3753 -2.9222 -0.3587
  116CHL1  H24B14834   2.475   0.461   5.368  0.3537 -1.1760  0.6197
  116CHL1   C2514835   2.444   0.282   5.236 -0.2755 -0.0384 -0.7498
  116CHL1   H2514836   2.532   0.224   5.271  1.4571  1.6999 -2.0371
  116CHL1   C2614837   2.336   0.183   5.200  0.1398  0.2795  0.3044
  116CHL1  H26A14838   2.245   0.239   5.168 -0.1554  0.2673  1.0976
  116CHL1  H26B14839   2.365   0.104   5.127 -0.7967  1.3658 -1.3134
  116CHL1  H26C14840   2.297   0.126   5.288  0.6680 -0.3614  0.1305
  116CHL1   C2714841   2.498   0.363   5.116  0.4781  0.3280 -0.9637
  116CHL1  H27A14842   2.588   0.406   5.165  1.3812  0.4138 -2.6066
  116CHL1  H27B14843   2.528   0.290   5.038 -0.6421 -0.9867 -0.2071
  116CHL1  H27C14844   2.442   0.447   5.071 -1.6978 -0.7818 -0.4532
  117CHL1    C314845   4.817   0.575   6.693 -0.5568  0.4076 -0.3801
  117CHL1    H314846   4.713   0.540   6.703  0.0501 -1.6070 -0.6873
  117CHL1    O314847   4.875   0.564   6.820 -0.3138 -0.4094  0.4612
  117CHL1   H3'14848   4.966   0.585   6.800 -0.4113 -2.0079 -2.1800
  117CHL1    C414849   4.891   0.472   6.599 -0.0098 -0.4375  0.0103
  117CHL1   H4A14850   4.997   0.505   6.589 -0.5055  0.5241 -3.0648
  117CHL1   H4B14851   4.876   0.376   6.654  0.4960 -1.1262 -1.0238
  117CHL1    C514852   4.826   0.476   6.460 -0.3931 -0.3114 -0.1645
  117CHL1    C614853   4.777   0.363   6.407 -0.2767  0.0990  0.2835
  117CHL1    H614854   4.776   0.273   6.470  0.3256 -1.2318 -1.5352
  117CHL1    C714855   4.726   0.357   6.263 -0.2277 -0.2596  0.2421
  117CHL1   H7A14856   4.759   0.263   6.212  0.5618  1.1489 -1.9820
  117CHL1   H7B14857   4.615   0.355   6.254 -0.4485 -1.9042  2.4335
  117CHL1    C814858   4.755   0.483   6.175 -0.4314  0.5190 -0.3292
  117CHL1    H814859   4.859   0.470   6.139 -0.9784  0.6394 -2.0596
  117CHL1   C1414860   4.668   0.470   6.046 -0.2989  0.3431 -0.3508
  117CHL1   H1414861   4.563   0.458   6.079  0.0931 -0.1711  0.7845
  117CHL1   C1514862   4.692   0.346   5.957  0.0676 -0.6578  0.2001
  117CHL1  H15A14863   4.802   0.329   5.951  0.3747  1.2059  0.1974
  117CHL1  H15B14864   4.647   0.261   6.013 -0.4968 -0.3288  0.2540
  117CHL1   C1614865   4.622   0.398   5.828  0.0653 -0.0066  0.7781
  117CHL1  H16A14866   4.691   0.381   5.742 -0.8038 -2.1093  0.4603
  117CHL1  H16B14867   4.537   0.330   5.810  1.5709 -3.1593  4.2727
  117CHL1   C1714868   4.582   0.550   5.843 -0.6268 -0.1935  0.1266
  117CHL1   H1714869   4.479   0.548   5.885 -1.6969  2.2124 -2.0493
  117CHL1   C1314870   4.677   0.597   5.957  0.1409 -0.2477  0.0973
  117CHL1   C1814871   4.816   0.629   5.895  0.5858 -0.1874 -0.2829
  117CHL1  H18A14872   4.837   0.565   5.807  0.6696  0.8053 -0.9992
  117CHL1  H18B14873   4.809   0.734   5.860 -0.4191 -0.4085 -0.7847
  117CHL1  H18C14874   4.898   0.625   5.970 -0.3013  0.3832  0.7336
  117CHL1   C1214875   4.631   0.718   6.049 -0.5083  0.6895 -1.2098
  117CHL1  H12A14876   4.623   0.815   5.995 -2.9243  0.9804 -0.4350
  117CHL1  H12B14877   4.533   0.697   6.096  0.7529 -0.2629  1.1678
  117CHL1   C1114878   4.729   0.734   6.163  0.3310 -0.8580 -0.0722
  117CHL1  H11A14879   4.826   0.748   6.111 -1.3894 -0.8291 -3.5139
  117CHL1  H11B14880   4.697   0.819   6.228  1.3093 -1.8301  1.7816
  117CHL1    C914881   4.732   0.604   6.257  0.3867 -0.0152 -0.0942
  117CHL1    H914882   4.629   0.600   6.298 -0.5381  1.9085 -2.0593
  117CHL1   C1014883   4.819   0.613   6.387 -0.0196  0.0931 -0.2875
  117CHL1   C1914884   4.961   0.650   6.341 -0.0507  0.0114 -0.4530
  117CHL1  H19A14885   4.960   0.751   6.294  0.4339 -0.1183 -0.7562
  117CHL1  H19B14886   5.030   0.665   6.427 -1.4751 -0.1210  0.7555
  117CHL1  H19C14887   5.003   0.593   6.255  0.3375 -0.5882  0.1261
  117CHL1    C114888   4.753   0.712   6.490  0.0617 -0.5481 -0.5642
  117CHL1   H1A14889   4.765   0.809   6.439  2.3226 -1.0690 -1.1560
  117CHL1   H1B14890   4.647   0.680   6.498  0.0713 -0.5262 -0.3147
  117CHL1    C214891   4.819   0.714   6.628  0.0174  0.0486  0.1655
  117CHL1   H2A14892   4.759   0.780   6.694  0.4531 -0.3371  0.9629
  117CHL1   H2B14893   4.926   0.741   6.615  0.5068 -1.2723  1.1809
  117CHL1   C2014894   4.574   0.628   5.712 -0.1373  0.0307  0.7046
  117CHL1   H2014895   4.677   0.659   5.683 -0.1387 -0.3192  0.3148
  117CHL1   C2114896   4.486   0.748   5.746 -0.2412 -0.3057  0.1785
  117CHL1  H21A14897   4.456   0.813   5.661 -0.2370 -0.1498  0.2968
  117CHL1  H21B14898   4.537   0.805   5.826 -0.6613 -1.1757  1.0829
  117CHL1  H21C14899   4.388   0.718   5.789 -0.9905  0.5971 -0.8630
  117CHL1   C2214900   4.527   0.559   5.581 -0.5361  0.0652 -0.6634
  117CHL1  H22A14901   4.603   0.488   5.540 -0.1220  0.6410 -0.9076
  117CHL1  H22B14902   4.436   0.500   5.605 -0.5370  1.1776  2.5284
  117CHL1   C2314903   4.505   0.650   5.461  1.5363  0.1532  0.7822
  117CHL1  H23A14904   4.492   0.588   5.370  0.7733  2.0815 -0.4949
  117CHL1  H23B14905   4.421   0.718   5.486  1.2856 -0.4080  1.4552
  117CHL1   C2414906   4.622   0.747   5.426  0.5856 -0.2603  0.3427
  117CHL1  H24A14907   4.621   0.822   5.507  0.4629 -1.0976  1.1430
  117CHL1  H24B14908   4.716   0.689   5.422  0.9939  0.3333  1.0874
  117CHL1   C2514909   4.602   0.826   5.295 -0.0203  0.9191 -0.5418
  117CHL1   H2514910   4.514   0.894   5.301 -0.5816  0.2638 -1.1201
  117CHL1   C2614911   4.729   0.915   5.273 -0.3955  0.4212  0.4270
  117CHL1  H26A14912   4.825   0.869   5.240 -0.6211 -1.7338  2.5483
  117CHL1  H26B14913   4.708   0.992   5.195  0.9823  0.0958 -0.3099
  117CHL1  H26C14914   4.758   0.973   5.363 -0.0006  0.2710  0.3977
  117CHL1   C2714915   4.587   0.732   5.169  0.2044  0.1892 -0.7344
  117CHL1  H27A14916   4.563   0.791   5.078  1.0854  0.3619 -0.8665
  117CHL1  H27B14917   4.679   0.669   5.164  0.1880  0.1457 -0.4881
  117CHL1  H27C14918   4.495   0.669   5.175  0.5564 -0.2326  0.5233
  118CHL1    C314919   7.025   1.709   6.806 -0.2545  0.0611  0.6464
  118CHL1    H314920   6.934   1.753   6.760  0.9727 -1.2184 -3.4520
  118CHL1    O314921   7.000   1.661   6.935  0.0013  0.1371  0.1399
  118CHL1   H3'14922   6.984   1.568   6.918 -2.1062  0.4165  0.3325
  118CHL1    C414923   7.052   1.586   6.720  0.2109 -0.4389 -0.0550
  118CHL1   H4A14924   7.142   1.536   6.763 -0.9786 -0.6794  2.3114
  118CHL1   H4B14925   6.966   1.518   6.736  0.6344 -0.3893  2.9328
  118CHL1    C514926   7.086   1.622   6.575 -0.9774  0.4472  0.3241
  118CHL1    C614927   7.014   1.566   6.475  0.1465  0.3312 -0.6528
  118CHL1    H614928   6.936   1.493   6.498  1.3911 -0.7362  0.3562
  118CHL1    C714929   7.032   1.606   6.329 -0.1469  0.0358  0.8297
  118CHL1   H7A14930   7.023   1.519   6.259  0.1855  0.1966  0.5881
  118CHL1   H7B14931   6.952   1.679   6.304 -2.3821 -1.9615  1.7668
  118CHL1    C814932   7.170   1.680   6.309  0.1305  0.1381  0.7000
  118CHL1    H814933   7.249   1.602   6.319  1.8829  1.8114  0.6486
  118CHL1   C1414934   7.177   1.753   6.173 -0.2154  0.4515  0.1637
  118CHL1   H1414935   7.100   1.832   6.187  0.2074  0.8444  0.2969
  118CHL1   C1514936   7.123   1.677   6.047  0.3843 -0.0753 -0.4773
  118CHL1  H15A14937   7.159   1.572   6.047 -2.3296 -1.0885 -1.3040
  118CHL1  H15B14938   7.012   1.670   6.049  0.4758 -2.1463  0.4477
  118CHL1   C1614939   7.167   1.762   5.928 -0.7667  0.1691 -0.3115
  118CHL1  H16A14940   7.213   1.696   5.851 -0.5565  0.1660 -0.1836
  118CHL1  H16B14941   7.086   1.814   5.872 -0.5013 -0.7558 -1.6044
  118CHL1   C1714942   7.269   1.866   5.990 -0.1102  0.0542  0.2226
  118CHL1   H1714943   7.205   1.955   6.010 -1.3853 -1.5199  3.7927
  118CHL1   C1314944   7.310   1.817   6.130  0.4638  0.7569 -0.3559
  118CHL1   C1814945   7.431   1.711   6.116  0.4718 -0.6347  0.1730
  118CHL1  H18A14946   7.411   1.631   6.040  0.3443 -2.9199  2.4782
  118CHL1  H18B14947   7.523   1.770   6.096  1.3376 -0.8135  3.1238
  118CHL1  H18C14948   7.441   1.664   6.216 -1.5439 -0.8254  0.3249
  118CHL1   C1214949   7.329   1.932   6.231  0.2434 -0.0116 -0.3561
  118CHL1  H12A14950   7.429   1.979   6.216  0.2849  0.1509  0.3695
  118CHL1  H12B14951   7.248   2.005   6.208  1.7226  0.5449 -4.5089
  118CHL1   C1114952   7.328   1.869   6.374 -0.1176  0.1705 -0.0217
  118CHL1  H11A14953   7.428   1.820   6.382  0.8863  2.2844  1.3487
  118CHL1  H11B14954   7.335   1.951   6.449  2.9201 -1.3297  1.5318
  118CHL1    C914955   7.195   1.787   6.412  0.2192  0.0472  0.8398
  118CHL1    H914956   7.117   1.866   6.408  1.0053  0.7905 -0.6015
  118CHL1   C1014957   7.191   1.736   6.560 -0.5326  0.0728 -0.3627
  118CHL1   C1914958   7.335   1.683   6.585  0.4002  0.0989 -0.3823
  118CHL1  H19A14959   7.346   1.643   6.688 -0.2392  0.6496 -0.0927
  118CHL1  H19B14960   7.367   1.608   6.509 -0.4343 -2.2839  1.4730
  118CHL1  H19C14961   7.414   1.761   6.590 -0.9394  1.6564 -2.2162
  118CHL1    C114962   7.156   1.851   6.655 -0.2188 -0.0082 -0.3501
  118CHL1   H1A14963   7.238   1.926   6.653  0.4441 -0.6961 -2.6273
  118CHL1   H1B14964   7.054   1.887   6.630 -0.5778 -1.8536 -1.8192
  118CHL1    C214965   7.139   1.806   6.799  0.6796 -0.5823  0.2096
  118CHL1   H2A14966   7.114   1.891   6.866 -0.0543  0.2839 -1.1080
  118CHL1   H2B14967   7.227   1.748   6.834  0.5110 -0.5340  0.7181
  118CHL1   C2014968   7.379   1.912   5.893  0.2019 -0.7874  0.3690
  118CHL1   H2014969   7.439   1.824   5.861 -2.3895 -2.2825 -0.6158
  118CHL1   C2114970   7.475   2.016   5.958  0.3601 -0.4222 -0.2030
  118CHL1  H21A14971   7.518   1.964   6.046  0.1878  1.4302  1.0422
  118CHL1  H21B14972   7.421   2.102   6.005  2.1226  0.2389  0.7052
  118CHL1  H21C14973   7.555   2.064   5.898  0.0960  1.4186  0.8062
  118CHL1   C2214974   7.309   1.968   5.760 -0.5625 -0.0214 -0.0616
  118CHL1  H22A14975   7.229   1.898   5.725  0.1109 -1.6971  1.5536
  118CHL1  H22B14976   7.255   2.063   5.778  1.2422  0.8513  0.9120
  118CHL1   C2314977   7.406   2.009   5.651  0.3988 -0.1216  0.2486
  118CHL1  H23A14978   7.349   2.081   5.589 -2.7719 -2.1999  0.5391
  118CHL1  H23B14979   7.496   2.061   5.693  0.9017  0.8706 -1.9129
  118CHL1   C2414980   7.454   1.894   5.559  0.0628 -0.2181  0.6791
  118CHL1  H24A14981   7.509   1.814   5.613  3.1044  1.1260 -0.2143
  118CHL1  H24B14982   7.362   1.856   5.509  0.2748  0.8427 -0.5549
  118CHL1   C2514983   7.544   1.950   5.445 -0.5100  1.0453 -0.1267
  118CHL1   H2514984   7.629   2.002   5.493 -0.1223  0.6503 -0.3749
  118CHL1   C2614985   7.607   1.829   5.366  0.9240 -0.0187  0.4052
  118CHL1  H26A14986   7.525   1.774   5.313  1.9334  0.5894 -1.9323
  118CHL1  H26B14987   7.675   1.871   5.289 -1.2801  1.8394 -0.6507
  118CHL1  H26C14988   7.655   1.759   5.438  1.6542  0.1337  0.0707
  118CHL1   C2714989   7.484   2.063   5.356 -0.8585  0.8586 -0.6050
  118CHL1  H27A14990   7.476   2.161   5.408 -0.9693  0.4617  0.1324
  118CHL1  H27B14991   7.559   2.095   5.281  2.7207 -0.6688  2.0530
  118CHL1  H27C14992   7.391   2.032   5.302 -0.6988 -1.2435  0.2589
  119CHL1    C314993   0.386   7.184   6.908 -0.7923  0.4447  0.2645
  119CHL1    H314994   0.437   7.086   6.924 -0.4249  0.2617 -1.7049
  119CHL1    O314995   0.304   7.205   7.019 -0.2520 -0.4013 -0.4135
  119CHL1   H3'14996   0.319   7.297   7.041  3.4464 -1.0451  0.4298
  119CHL1    C414997   0.496   7.287   6.879  0.3455  0.3878  0.0409
  119CHL1   H4A14998   0.449   7.388   6.876  0.8232  0.6444  0.7837
  119CHL1   H4B14999   0.568   7.274   6.963 -0.6796  0.9439  1.0241
  119CHL1    C515000   0.565   7.264   6.750  0.0517 -0.0842  0.1892
  119CHL1    C615001   0.696   7.257   6.745 -0.5021  0.3958 -0.3260
  119CHL1    H615002   0.756   7.276   6.836  1.0523  0.9677 -1.4325
  119CHL1    C715003   0.777   7.242   6.617  0.3099 -0.8172 -0.8688
  119CHL1   H7A15004   0.857   7.319   6.607 -0.2932 -0.1314 -0.5723
  119CHL1   H7B15005   0.829   7.145   6.624 -0.0875 -0.9492  0.6827
  119CHL1    C815006   0.697   7.258   6.488  0.4952  0.3665 -0.4504
  119CHL1    H815007   0.686   7.366   6.463 -2.4959  0.8641  2.3144
  119CHL1   C1415008   0.770   7.174   6.383  0.2926  0.6083  0.7267
  119CHL1   H1415009   0.758   7.068   6.412 -2.0629  0.5690 -0.2031
  119CHL1   C1515010   0.923   7.200   6.372 -0.4452 -0.1520  0.0800
  119CHL1  H15A15011   0.931   7.310   6.386 -1.5989  0.0014 -0.3664
  119CHL1  H15B15012   0.974   7.145   6.454 -2.8941  0.6854  2.3216
  119CHL1   C1615013   0.961   7.156   6.231 -0.0395 -0.0110 -0.4993
  119CHL1  H16A15014   1.008   7.239   6.174 -1.7208  2.6219  1.6714
  119CHL1  H16B15015   1.023   7.065   6.245 -2.1667 -1.6182 -0.9412
  119CHL1   C1715016   0.825   7.117   6.160 -0.5918  0.0199  0.2174
  119CHL1   H1715017   0.811   7.011   6.190  0.5065  0.0725  0.9959
  119CHL1   C1315018   0.716   7.192   6.238 -0.0370 -0.1546 -0.4439
  119CHL1   C1815019   0.705   7.337   6.185 -0.3318 -0.4657 -0.2706
  119CHL1  H18A15020   0.804   7.384   6.201 -1.0356  1.4441 -1.1708
  119CHL1  H18B15021   0.672   7.338   6.079  2.0174 -0.5047 -1.0564
  119CHL1  H18C15022   0.636   7.408   6.236  0.6069  1.2882 -1.3266
  119CHL1   C1215023   0.578   7.119   6.254 -0.7796 -0.4950 -0.4397
  119CHL1  H12A15024   0.524   7.127   6.157 -0.7227 -0.5025 -0.4726
  119CHL1  H12B15025   0.612   7.017   6.281  0.8300  0.1814  0.2225
  119CHL1   C1115026   0.488   7.179   6.366 -0.1925 -0.0641 -0.3332
  119CHL1  H11A15027   0.462   7.283   6.338 -1.6984  0.0965  1.3996
  119CHL1  H11B15028   0.389   7.127   6.364 -0.8700  1.1640  0.0478
  119CHL1    C915029   0.554   7.192   6.508 -0.0521 -0.0528  0.0807
  119CHL1    H915030   0.569   7.085   6.533  0.8729  0.3494  1.2849
  119CHL1   C1015031   0.472   7.243   6.624  0.3144  0.0662 -0.1448
  119CHL1   C1915032   0.418   7.376   6.571 -0.4323  0.4268 -0.0153
  119CHL1  H19A15033   0.497   7.444   6.534 -0.6941  0.1116 -1.1822
  119CHL1  H19B15034   0.351   7.363   6.483  0.5186 -2.3922 -0.4445
  119CHL1  H19C15035   0.349   7.422   6.645  0.8672  0.9083  0.9423
  119CHL1    C115036   0.348   7.150   6.655  0.5658  0.4915 -0.2673
  119CHL1   H1A15037   0.264   7.166   6.584 -1.0188  1.8015  1.7957
  119CHL1   H1B15038   0.375   7.042   6.661 -2.9110 -0.3958  1.8976
  119CHL1    C215039   0.282   7.174   6.791 -0.0069 -0.7481 -0.7757
  119CHL1   H2A15040   0.207   7.098   6.824 -1.1998  1.4342  1.9173
  119CHL1   H2B15041   0.234   7.274   6.784 -0.2533 -0.7077  1.0499
  119CHL1   C2015042   0.834   7.135   6.010 -0.5355 -0.1760  0.6018
  119CHL1   H2015043   0.858   7.239   5.981 -0.1047 -0.1234  1.1347
  119CHL1   C2115044   0.711   7.076   5.950  0.5390  0.2206  0.0950
  119CHL1  H21A15045   0.705   7.087   5.840 -0.2286  1.1123  0.2104
  119CHL1  H21B15046   0.623   7.133   5.988  2.3442  1.7820  2.1292
  119CHL1  H21C15047   0.703   6.970   5.983 -0.8306  0.4395  0.5695
  119CHL1   C2215048   0.955   7.062   5.955  0.2484  0.2394  0.3691
  119CHL1  H22A15049   1.051   7.089   6.003  1.1037  0.5153 -1.4154
  119CHL1  H22B15050   0.929   6.954   5.954 -1.1908  0.5539  0.8982
  119CHL1   C2315051   0.981   7.094   5.806 -0.2743 -0.4229  0.4570
  119CHL1  H23A15052   0.889   7.080   5.745 -1.2700  0.5985  1.6789
  119CHL1  H23B15053   1.012   7.201   5.813 -3.3770  0.4533  2.8637
  119CHL1   C2415054   1.091   6.999   5.748  0.0676 -0.0235 -0.0903
  119CHL1  H24A15055   1.186   7.011   5.803 -0.3427 -2.2700  1.2435
  119CHL1  H24B15056   1.063   6.897   5.783 -1.1163  0.1911 -0.3385
  119CHL1   C2515057   1.106   7.009   5.594  0.7659  0.3420 -0.2422
  119CHL1   H2515058   1.009   7.000   5.541  0.6210 -1.1958  0.2225
  119CHL1   C2615059   1.175   7.136   5.557 -0.0765 -0.4748  0.4741
  119CHL1  H26A15060   1.270   7.143   5.615  0.0155 -0.1474  0.2810
  119CHL1  H26B15061   1.200   7.129   5.449  1.2674  0.6590  0.6787
  119CHL1  H26C15062   1.114   7.227   5.570  0.5023  0.1103 -0.7721
  119CHL1   C2715063   1.189   6.879   5.553  0.3668 -0.4778 -0.4528
  119CHL1  H27A15064   1.133   6.798   5.604 -1.0692  0.5429 -0.3505
  119CHL1  H27B15065   1.182   6.865   5.443 -0.5464  1.8398 -0.7444
  119CHL1  H27C15066   1.291   6.874   5.596  0.1863  0.5501  0.1392
  120CHL1    C315067   7.271   0.010   6.767 -0.2299 -0.6852  0.1238
  120CHL1    H315068   7.165  -0.022   6.776 -0.1957 -0.2867  3.6913
  120CHL1    O315069   7.346  -0.059   6.874  1.0769 -0.2129  0.1311
  120CHL1   H3'15070   7.288  -0.057   6.951 -0.4463  2.7631 -0.9321
  120CHL1    C415071   7.336  -0.018   6.632  0.2743 -0.2264 -0.2446
  120CHL1   H4A15072   7.443   0.014   6.637  0.2697  0.0566 -1.4840
  120CHL1   H4B15073   7.328  -0.128   6.620 -0.7392 -0.3488  1.3341
  120CHL1    C515074   7.258   0.044   6.518 -0.4132  0.4726 -0.9654
  120CHL1    C615075   7.200  -0.035   6.422  0.2933 -0.0208  0.6214
  120CHL1    H615076   7.207  -0.145   6.413  0.7219 -0.1248  1.9598
  120CHL1    C715077   7.108   0.013   6.313 -0.3899  0.0833 -0.0630
  120CHL1   H7A15078   7.127  -0.052   6.225 -0.5805  0.5445 -0.4484
  120CHL1   H7B15079   7.006  -0.005   6.352 -0.1635 -0.5208  0.2613
  120CHL1    C815080   7.123   0.168   6.296  0.1624 -0.3144 -0.4799
  120CHL1    H815081   7.220   0.193   6.247 -0.2758 -1.2878 -1.9187
  120CHL1   C1415082   7.010   0.232   6.213  0.0983 -0.1720 -0.0628
  120CHL1   H1415083   6.918   0.223   6.276 -1.1022  0.8322 -1.5880
  120CHL1   C1515084   6.981   0.186   6.069 -0.0901  0.7422  0.6260
  120CHL1  H15A15085   7.078   0.159   6.023 -1.1359  0.6456 -1.6262
  120CHL1  H15B15086   6.912   0.099   6.072  0.8043 -0.1081 -1.6220
  120CHL1   C1615087   6.904   0.293   5.999 -0.2464 -0.1787 -0.2991
  120CHL1  H16A15088   6.937   0.313   5.895 -0.4422 -2.1283 -0.7657
  120CHL1  H16B15089   6.798   0.261   5.984 -0.2087 -0.5265  0.1604
  120CHL1   C1715090   6.913   0.412   6.102  0.3135 -0.3866 -0.6671
  120CHL1   H1715091   6.820   0.402   6.163 -1.3244  2.4918 -2.4483
  120CHL1   C1315092   7.026   0.386   6.201  0.0093 -0.0497 -0.2123
  120CHL1   C1815093   7.153   0.423   6.124 -0.0179 -0.1743 -0.7175
  120CHL1  H18A15094   7.159   0.380   6.021  0.6648  1.4903 -1.4115
  120CHL1  H18B15095   7.166   0.533   6.110 -0.3081 -0.2496 -1.6367
  120CHL1  H18C15096   7.241   0.384   6.180  0.1668  0.6450 -0.4214
  120CHL1   C1215097   7.013   0.447   6.343  0.3339 -0.1984  0.0474
  120CHL1  H12A15098   7.008   0.558   6.339 -2.4456 -0.2829 -1.5177
  120CHL1  H12B15099   6.918   0.412   6.389  0.0435  2.3626  1.6015
  120CHL1   C1115100   7.134   0.398   6.423 -0.4079  0.1022 -0.1761
  120CHL1  H11A15101   7.227   0.445   6.384 -0.6934  4.1745  3.3675
  120CHL1  H11B15102   7.120   0.443   6.523 -1.4594  0.2899 -0.4016
  120CHL1    C915103   7.132   0.245   6.429 -0.5518  0.6478  0.0383
  120CHL1    H915104   7.036   0.218   6.478 -0.9096  2.8334  0.6361
  120CHL1   C1015105   7.244   0.190   6.525 -0.7107 -0.0515 -0.1226
  120CHL1   C1915106   7.386   0.253   6.489 -0.2869 -0.1720 -0.1994
  120CHL1  H19A15107   7.415   0.209   6.391 -1.4610 -0.3155 -0.4931
  120CHL1  H19B15108   7.375   0.364   6.485 -0.6493 -0.1792  0.5415
  120CHL1  H19C15109   7.464   0.234   6.566  1.0937 -0.1139 -1.5291
  120CHL1    C115110   7.204   0.234   6.668 -0.0729  0.0564 -0.2190
  120CHL1   H1A15111   7.232   0.341   6.677 -1.2490  0.2717  1.1317
  120CHL1   H1B15112   7.096   0.213   6.684 -0.2375  0.7813 -0.3578
  120CHL1    C215113   7.284   0.161   6.781  0.1564 -1.0053 -0.3313
  120CHL1   H2A15114   7.248   0.204   6.877 -0.3266 -1.1140 -0.4586
  120CHL1   H2B15115   7.392   0.185   6.780 -0.0748  0.2960  1.6049
  120CHL1   C2015116   6.910   0.557   6.045  0.1134 -0.1353  0.6007
  120CHL1   H2015117   6.947   0.626   6.123 -1.3908 -3.0708  4.2510
  120CHL1   C2115118   6.752   0.585   6.026 -0.3142 -0.4642 -0.0697
  120CHL1  H21A15119   6.698   0.587   6.123 -1.3387 -3.2036 -0.4953
  120CHL1  H21B15120   6.705   0.498   5.974 -0.8485  0.3015 -0.8825
  120CHL1  H21C15121   6.739   0.675   5.963  1.1590  0.2151  0.5586
  120CHL1   C2215122   6.980   0.571   5.907  0.6533  0.3514 -0.8763
  120CHL1  H22A15123   7.053   0.491   5.887  0.0352 -0.2994 -0.5799
  120CHL1  H22B15124   6.895   0.543   5.840 -1.2044 -0.3023  1.5805
  120CHL1   C2315125   7.031   0.711   5.871 -0.4499  0.2697  0.4351
  120CHL1  H23A15126   7.036   0.704   5.760  1.3286 -0.4999  0.5224
  120CHL1  H23B15127   6.956   0.789   5.893 -0.4478  0.4122 -0.0549
  120CHL1   C2415128   7.173   0.764   5.920 -1.1611  0.8184  0.3625
  120CHL1  H24A15129   7.178   0.770   6.031  1.9730 -0.4225  0.3885
  120CHL1  H24B15130   7.249   0.693   5.881 -1.3197  0.4346  0.7523
  120CHL1   C2515131   7.207   0.904   5.860 -0.1366  0.3352 -0.2747
  120CHL1   H2515132   7.167   0.900   5.757 -0.0964 -2.1521 -0.2464
  120CHL1   C2615133   7.132   1.013   5.950  0.7387  0.6065 -0.1390
  120CHL1  H26A15134   7.030   0.974   5.970  1.0821 -0.0172  0.4247
  120CHL1  H26B15135   7.193   1.021   6.042 -1.8479  1.4107  1.6302
  120CHL1  H26C15136   7.127   1.113   5.901 -0.6415  0.1235 -1.0670
  120CHL1   C2715137   7.359   0.941   5.867  0.1339 -0.1557 -0.0638
  120CHL1  H27A15138   7.375   1.040   5.820  0.4702  0.1419  0.6620
  120CHL1  H27B15139   7.389   0.951   5.973 -1.5786 -0.4483  0.4650
  120CHL1  H27C15140   7.408   0.857   5.813 -1.9725 -2.0713  0.8636
  121CHL1    C315141   3.539   3.728   3.112 -0.1203 -0.5937  0.5839
  121CHL1    H315142   3.486   3.823   3.089  1.6807  0.6208  1.2231
  121CHL1    O315143   3.487   3.630   3.035  0.2731 -0.2740  0.1827
  121CHL1   H3'15144   3.527   3.554   3.079 -1.8442 -0.9022  1.1671
  121CHL1    C415145   3.695   3.750   3.085  0.5278 -0.2989  0.8200
  121CHL1   H4A15146   3.751   3.654   3.080 -0.2729 -0.7815  0.9071
  121CHL1   H4B15147   3.695   3.791   2.982 -1.4856  0.2028  0.9791
  121CHL1    C515148   3.755   3.853   3.178  0.2124  0.0766 -0.0721
  121CHL1    C615149   3.803   3.967   3.131 -0.1940 -0.3821  0.3491
  121CHL1    H615150   3.792   3.988   3.023  0.2739 -2.7806 -0.2244
  121CHL1    C715151   3.860   4.071   3.228  0.0279 -0.6055  0.3205
  121CHL1   H7A15152   3.955   4.103   3.180 -0.9773 -2.9378 -3.6628
  121CHL1   H7B15153   3.789   4.156   3.235 -0.0512 -0.7588  1.4879
  121CHL1    C815154   3.896   4.010   3.366 -0.0440 -0.5989 -0.4717
  121CHL1    H815155   3.987   3.947   3.361  1.4040  1.2841  1.1311
  121CHL1   C1415156   3.917   4.128   3.462 -0.5373  0.1880  0.3462
  121CHL1   H1415157   3.816   4.172   3.479 -1.8584 -1.9555 -1.4140
  121CHL1   C1515158   4.008   4.240   3.407 -0.0386  0.1465  0.1848
  121CHL1  H15A15159   4.096   4.190   3.362 -0.1309 -0.8354  1.0643
  121CHL1  H15B15160   3.957   4.311   3.339  1.1857  0.2193 -0.6967
  121CHL1   C1615161   4.042   4.317   3.540  0.5105 -0.8340  0.4152
  121CHL1  H16A15162   4.152   4.331   3.533  0.2701  0.7874 -0.9872
  121CHL1  H16B15163   4.007   4.423   3.546  1.0766 -0.7063  1.9284
  121CHL1   C1715164   3.994   4.230   3.666  0.0127 -0.1950  0.2014
  121CHL1   H1715165   3.894   4.260   3.703 -0.0070 -2.1573  1.9292
  121CHL1   C1315166   3.969   4.087   3.607  0.1216  0.3649  0.5747
  121CHL1   C1815167   4.104   4.007   3.598  0.7730 -0.3314  0.3654
  121CHL1  H18A15168   4.123   3.965   3.699 -0.3653 -0.2160  0.6424
  121CHL1  H18B15169   4.083   3.934   3.516 -2.2843  0.5935  0.2199
  121CHL1  H18C15170   4.182   4.082   3.575 -0.7777  1.2535  0.1135
  121CHL1   C1215171   3.855   3.998   3.658 -0.2096  0.3133  0.5354
  121CHL1  H12A15172   3.886   3.967   3.760  2.0637 -0.3485 -0.3003
  121CHL1  H12B15173   3.762   4.056   3.676  0.3114  0.9020  1.3715
  121CHL1   C1115174   3.825   3.878   3.572 -0.1321  0.1524 -0.1513
  121CHL1  H11A15175   3.918   3.818   3.564 -0.7970 -0.8999 -0.1560
  121CHL1  H11B15176   3.743   3.817   3.616 -2.5582  3.9230  0.9825
  121CHL1    C915177   3.782   3.922   3.426 -0.3698  0.1791 -0.1935
  121CHL1    H915178   3.692   3.987   3.433 -1.5929 -1.4995  0.2032
  121CHL1   C1015179   3.736   3.814   3.328  0.5232  0.2681  0.3641
  121CHL1   C1915180   3.809   3.686   3.366 -0.5215  0.4812 -0.3331
  121CHL1  H19A15181   3.917   3.708   3.383  0.1778 -2.4510 -0.4412
  121CHL1  H19B15182   3.768   3.654   3.463  1.7236  1.4364  1.0208
  121CHL1  H19C15183   3.798   3.603   3.292 -0.2779  1.7126 -1.8189
  121CHL1    C115184   3.578   3.795   3.355 -0.2672  0.2357 -0.3930
  121CHL1   H1A15185   3.567   3.763   3.461  0.5637 -0.6439 -0.5589
  121CHL1   H1B15186   3.529   3.893   3.339  1.3456  0.6742 -3.4503
  121CHL1    C215187   3.502   3.698   3.258 -0.1254  0.5314 -0.7698
  121CHL1   H2A15188   3.391   3.704   3.257 -0.0985  2.1577  1.0256
  121CHL1   H2B15189   3.547   3.597   3.270  1.8946  1.3065 -1.3403
  121CHL1   C2015190   4.096   4.236   3.784  0.3610 -0.4348  0.0054
  121CHL1   H2015191   4.190   4.184   3.754 -1.0057 -2.4280 -1.0541
  121CHL1   C2115192   4.039   4.175   3.914 -0.1256  1.4644  0.4858
  121CHL1  H21A15193   4.114   4.176   3.995  0.3261  1.5286  0.0695
  121CHL1  H21B15194   4.004   4.071   3.895  1.4110  1.1265 -0.7261
  121CHL1  H21C15195   3.947   4.233   3.937 -1.3970  0.2080 -1.1749
  121CHL1   C2215196   4.148   4.384   3.816  0.0077 -0.1604 -0.4717
  121CHL1  H22A15197   4.213   4.387   3.906  1.1113  1.1459 -1.2773
  121CHL1  H22B15198   4.212   4.421   3.733  1.2142  1.4816  1.1037
  121CHL1   C2315199   4.034   4.491   3.837 -0.2716 -0.5194  0.5893
  121CHL1  H23A15200   3.957   4.481   3.757  1.1812  1.4899 -1.1874
  121CHL1  H23B15201   3.974   4.475   3.929  1.1482  0.0527  1.6382
  121CHL1   C2415202   4.083   4.639   3.830  0.1938 -0.4987  0.2899
  121CHL1  H24A15203   4.118   4.655   3.726  0.5361  0.0920  0.4958
  121CHL1  H24B15204   4.004   4.715   3.850  0.4523  0.1078 -0.8995
  121CHL1   C2515205   4.193   4.665   3.933 -0.1231 -0.4000 -0.4381
  121CHL1   H2515206   4.283   4.603   3.917 -0.3984 -0.8251 -0.3357
  121CHL1   C2615207   4.237   4.807   3.921 -0.0042 -0.0057 -1.0713
  121CHL1  H26A15208   4.283   4.843   3.827  0.1044 -0.0527 -1.0365
  121CHL1  H26B15209   4.164   4.884   3.953  1.4756  1.5901 -1.3606
  121CHL1  H26C15210   4.321   4.820   3.993 -1.4271 -0.1802  0.7017
  121CHL1   C2715211   4.147   4.644   4.087 -0.5853 -0.1079  0.4583
  121CHL1  H27A15212   4.222   4.681   4.160 -0.1584 -2.8009  1.5154
  121CHL1  H27B15213   4.054   4.704   4.098  0.0329  1.0480 -0.3801
  121CHL1  H27C15214   4.132   4.534   4.095  2.6270 -0.7742 -1.0480
  122CHL1    C315215   2.828   3.864   3.334  0.2631 -0.5578  0.2009
  122CHL1    H315216   2.909   3.936   3.355  1.6205 -1.4820 -1.5785
  122CHL1    O315217   2.820   3.845   3.189 -0.0050 -0.1091  0.4569
  122CHL1   H3'15218   2.764   3.767   3.183 -1.0203  0.5987  0.5025
  122CHL1    C415219   2.859   3.732   3.408 -0.5342  0.1842  0.2496
  122CHL1   H4A15220   2.784   3.653   3.386 -1.5499  0.8934  1.0592
  122CHL1   H4B15221   2.958   3.694   3.377  0.0833 -0.0100  2.3115
  122CHL1    C515222   2.855   3.755   3.555  0.5855  0.2076 -0.3872
  122CHL1    C615223   2.966   3.738   3.628  0.2319 -0.1670 -0.2498
  122CHL1    H615224   3.059   3.702   3.580 -0.3153 -1.9076 -0.0880
  122CHL1    C715225   2.970   3.755   3.780 -0.0342  0.1118  0.7835
  122CHL1   H7A15226   3.028   3.674   3.829  0.2394  1.8390  3.5545
  122CHL1   H7B15227   3.030   3.845   3.806  2.5191 -0.4619 -2.4012
  122CHL1    C815228   2.827   3.760   3.834  0.6855 -0.4759  0.1328
  122CHL1    H815229   2.778   3.661   3.842  0.5220 -0.3951  0.1289
  122CHL1   C1415230   2.837   3.826   3.981  0.8466 -0.6141  0.0415
  122CHL1   H1415231   2.867   3.930   3.957 -0.9324 -0.1171 -0.1564
  122CHL1   C1515232   2.938   3.773   4.084 -1.5108  0.1842 -0.5068
  122CHL1  H15A15233   2.927   3.662   4.091 -2.1846  0.3319  3.1479
  122CHL1  H15B15234   3.043   3.793   4.055 -1.2162 -0.0050  0.4035
  122CHL1   C1615235   2.898   3.840   4.221  0.1211  0.4841 -0.1222
  122CHL1  H16A15236   2.893   3.750   4.287  0.1566  1.9199  1.9142
  122CHL1  H16B15237   2.975   3.916   4.245 -0.0679  1.0426 -1.2312
  122CHL1   C1715238   2.757   3.896   4.196 -0.6525 -0.4882 -0.6528
  122CHL1   H1715239   2.778   4.003   4.179  2.0389 -0.9723 -0.9150
  122CHL1   C1315240   2.710   3.833   4.062  0.1597  0.2140  0.1006
  122CHL1   C1815241   2.654   3.694   4.108 -0.0883  0.5533  0.3932
  122CHL1  H18A15242   2.630   3.627   4.022 -0.1467  0.8241  0.1976
  122CHL1  H18B15243   2.726   3.642   4.175  0.1950  2.3239  1.5195
  122CHL1  H18C15244   2.556   3.705   4.159  0.6890  0.0147  2.0694
  122CHL1   C1215245   2.611   3.914   3.983  0.5050  0.5303 -0.5950
  122CHL1  H12A15246   2.508   3.900   4.021  0.3344 -1.1565 -1.5419
  122CHL1  H12B15247   2.628   4.023   3.987 -2.4330  1.0397 -0.4321
  122CHL1   C1115248   2.599   3.871   3.831  0.4195 -0.3652 -0.1910
  122CHL1  H11A15249   2.550   3.772   3.836 -2.1211  0.8401  1.1522
  122CHL1  H11B15250   2.533   3.948   3.784 -0.6440  0.4805  2.4849
  122CHL1    C915251   2.734   3.856   3.758  0.0632 -0.5258  0.0164
  122CHL1    H915252   2.778   3.958   3.763 -1.2195  0.0317  0.2292
  122CHL1   C1015253   2.718   3.819   3.613  0.2360 -0.3122  0.0352
  122CHL1   C1915254   2.598   3.705   3.602 -0.4369 -0.4684  0.0543
  122CHL1  H19A15255   2.505   3.758   3.631 -0.6586 -1.0933  0.5116
  122CHL1  H19B15256   2.602   3.660   3.500  1.7131 -0.9426  0.3018
  122CHL1  H19C15257   2.628   3.622   3.668 -2.0385 -0.6296  0.6136
  122CHL1    C115258   2.685   3.945   3.525  0.3160 -0.0389 -0.1519
  122CHL1   H1A15259   2.581   3.978   3.546 -0.0615 -1.8294  1.0045
  122CHL1   H1B15260   2.755   4.028   3.547  0.9319 -0.6649  0.3162
  122CHL1    C215261   2.695   3.918   3.377 -0.1221  0.5077  0.2005
  122CHL1   H2A15262   2.678   4.013   3.321  1.4106  0.7599  0.1224
  122CHL1   H2B15263   2.605   3.855   3.366  0.2352  0.1272 -0.5917
  122CHL1   C2015264   2.660   3.910   4.313  0.0534  0.5705  0.0345
  122CHL1   H2015265   2.563   3.922   4.261  0.1719  0.1347 -0.2909
  122CHL1   C2115266   2.686   4.037   4.396 -0.3991  1.0022  0.3367
  122CHL1  H21A15267   2.786   4.025   4.443 -0.8003  0.5259  1.0904
  122CHL1  H21B15268   2.608   4.049   4.475 -0.3261 -0.0870  0.5869
  122CHL1  H21C15269   2.679   4.117   4.319 -1.6156  0.1055 -0.5457
  122CHL1   C2215270   2.649   3.783   4.410 -0.6281  0.5828 -0.3375
  122CHL1  H22A15271   2.662   3.688   4.353 -3.3034  1.1882 -2.1523
  122CHL1  H22B15272   2.730   3.786   4.486  0.9873 -1.6149 -1.8638
  122CHL1   C2315273   2.514   3.791   4.493 -0.0287 -0.1095 -0.1805
  122CHL1  H23A15274   2.524   3.892   4.538  2.0711  1.4369 -3.6862
  122CHL1  H23B15275   2.424   3.780   4.428  0.2753 -1.0599 -0.4558
  122CHL1   C2415276   2.508   3.676   4.598 -0.3729  0.1271 -0.6750
  122CHL1  H24A15277   2.476   3.578   4.555  1.3073 -1.8659  2.2440
  122CHL1  H24B15278   2.612   3.650   4.628 -0.5522 -0.6092 -0.6581
  122CHL1   C2515279   2.422   3.714   4.727  0.0199  0.0980  0.3400
  122CHL1   H2515280   2.458   3.804   4.780 -2.5417  1.9589 -0.8744
  122CHL1   C2615281   2.274   3.719   4.694  0.1153 -0.0684 -0.1308
  122CHL1  H26A15282   2.210   3.728   4.784  2.5441  1.4463  1.5531
  122CHL1  H26B15283   2.248   3.797   4.619  1.2577 -0.8521 -1.4025
  122CHL1  H26C15284   2.233   3.625   4.651 -2.8995  0.1330  2.0446
  122CHL1   C2715285   2.440   3.604   4.843 -0.4602 -0.1422  0.3917
  122CHL1  H27A15286   2.380   3.637   4.930  0.3279 -0.7885  1.1864
  122CHL1  H27B15287   2.404   3.508   4.799 -1.8227  0.5091  0.0111
  122CHL1  H27C15288   2.543   3.599   4.884 -0.7085  1.5579  1.2838
  123CHL1    C315289   5.372   2.302   3.280  0.5014  0.4763  0.0693
  123CHL1    H315290   5.480   2.274   3.277 -0.0778 -1.8354 -0.7010
  123CHL1    O315291   5.328   2.309   3.149  0.2139  0.0602  0.0626
  123CHL1   H3'15292   5.393   2.252   3.108  0.3002 -0.6033  1.0896
  123CHL1    C415293   5.293   2.185   3.339  0.5236  0.3034 -0.3378
  123CHL1   H4A15294   5.187   2.209   3.315  1.0868  2.2690 -1.0769
  123CHL1   H4B15295   5.333   2.102   3.277  0.6944  1.2083 -1.4720
  123CHL1    C515296   5.301   2.169   3.486  0.0200  0.1954 -0.8834
  123CHL1    C615297   5.326   2.052   3.546  0.3595 -0.4736  0.5225
  123CHL1    H615298   5.326   1.959   3.487 -0.6771 -0.6427  0.7642
  123CHL1    C715299   5.339   2.027   3.688  0.5609 -0.4947 -0.1463
  123CHL1   H7A15300   5.280   1.935   3.710  0.2219  0.1946  2.0819
  123CHL1   H7B15301   5.449   2.017   3.706  0.8684  1.6634 -0.5056
  123CHL1    C815302   5.291   2.144   3.775 -0.2579  0.2243  0.3940
  123CHL1    H815303   5.181   2.146   3.795 -0.7000  3.2419 -1.7937
  123CHL1   C1415304   5.359   2.138   3.909  0.1077  0.4370 -0.8411
  123CHL1   H1415305   5.468   2.140   3.888  0.1218  0.4284 -0.7677
  123CHL1   C1515306   5.348   1.996   3.990 -0.3684 -0.3132 -0.0084
  123CHL1  H15A15307   5.244   1.959   3.975  0.0540 -0.7359 -2.3725
  123CHL1  H15B15308   5.422   1.922   3.952  0.1977  0.6820 -0.8954
  123CHL1   C1615309   5.384   2.040   4.136  1.1932 -0.1512  0.4042
  123CHL1  H16A15310   5.295   2.014   4.198  0.0517 -1.6085 -1.7116
  123CHL1  H16B15311   5.476   1.985   4.165  2.0226  2.0280  2.2100
  123CHL1   C1715312   5.400   2.195   4.134  0.1556 -0.7159 -0.1640
  123CHL1   H1715313   5.503   2.216   4.100 -0.4851 -1.4537 -2.8278
  123CHL1   C1315314   5.324   2.247   4.012  0.2776  0.5468  1.2539
  123CHL1   C1815315   5.176   2.257   4.053  0.2118 -0.3703  0.4757
  123CHL1  H18A15316   5.104   2.259   3.968 -1.5298  2.3194  1.8807
  123CHL1  H18B15317   5.149   2.175   4.123 -0.3550  1.1459  2.1243
  123CHL1  H18C15318   5.151   2.355   4.099  1.9331  0.5781 -0.4966
  123CHL1   C1215319   5.366   2.379   3.953 -0.2799 -0.5636 -0.5445
  123CHL1  H12A15320   5.338   2.468   4.013 -1.6129  0.8560 -3.1113
  123CHL1  H12B15321   5.475   2.373   3.933 -0.4543 -4.4696 -1.1199
  123CHL1   C1115322   5.306   2.395   3.811 -0.2408  0.0735 -0.6638
  123CHL1  H11A15323   5.195   2.408   3.816 -0.2066 -0.2007  1.1126
  123CHL1  H11B15324   5.355   2.484   3.766  1.4434 -0.5740 -0.1944
  123CHL1    C915325   5.338   2.276   3.713  0.4591  0.4002 -0.1227
  123CHL1    H915326   5.449   2.271   3.720  0.3526  0.0556  2.5762
  123CHL1   C1015327   5.292   2.302   3.568  1.3219  0.3123  0.3986
  123CHL1   C1915328   5.143   2.343   3.564 -0.2870 -0.3865 -0.6547
  123CHL1  H19A15329   5.125   2.437   3.620 -1.0252 -1.9871  1.9721
  123CHL1  H19B15330   5.106   2.363   3.461  0.1042  0.3034 -0.6701
  123CHL1  H19C15331   5.072   2.266   3.602 -0.3001 -0.0541  0.0067
  123CHL1    C115332   5.374   2.417   3.504  0.0297 -0.8789 -0.0885
  123CHL1   H1A15333   5.339   2.507   3.558 -1.8885 -1.0104 -1.0201
  123CHL1   H1B15334   5.481   2.392   3.523 -0.6943 -2.1569  3.0372
  123CHL1    C215335   5.345   2.431   3.361 -0.5491  0.1501  1.2313
  123CHL1   H2A15336   5.418   2.500   3.313 -0.9065 -0.7588 -0.7427
  123CHL1   H2B15337   5.241   2.466   3.338 -0.1818 -0.8127 -2.5886
  123CHL1   C2015338   5.384   2.262   4.276  0.2081  0.1370 -0.4288
  123CHL1   H2015339   5.279   2.255   4.312 -0.0352  1.6574 -0.7564
  123CHL1   C2115340   5.428   2.403   4.267 -0.0470 -0.1975  0.1576
  123CHL1  H21A15341   5.440   2.442   4.371 -0.7934  2.0744 -0.5436
  123CHL1  H21B15342   5.339   2.460   4.233 -1.2820 -2.5611 -0.7851
  123CHL1  H21C15343   5.515   2.419   4.200  1.2914 -1.0410  1.6297
  123CHL1   C2215344   5.469   2.183   4.385 -0.0893 -0.3996 -0.2366
  123CHL1  H22A15345   5.445   2.076   4.370 -1.2557 -0.0960 -0.6270
  123CHL1  H22B15346   5.576   2.193   4.358 -0.9131  1.1004 -3.4640
  123CHL1   C2315347   5.445   2.222   4.528 -0.1163  0.0124  0.0664
  123CHL1  H23A15348   5.501   2.313   4.555  0.1431  0.7554 -2.6311
  123CHL1  H23B15349   5.337   2.237   4.551  0.4333  2.7796  1.1632
  123CHL1   C2415350   5.515   2.112   4.609  0.5968 -0.4783  0.3035
  123CHL1  H24A15351   5.466   2.014   4.591 -0.3180 -0.1783  1.1001
  123CHL1  H24B15352   5.622   2.104   4.579  0.4517 -2.8787  0.2481
  123CHL1   C2515353   5.506   2.123   4.761  0.0361 -0.4010 -0.6564
  123CHL1   H2515354   5.398   2.118   4.787  0.1634 -2.6795 -0.4209
  123CHL1   C2615355   5.584   2.000   4.820 -0.5745 -0.0708  0.5050
  123CHL1  H26A15356   5.684   2.006   4.773 -1.1821 -4.3164 -1.8900
  123CHL1  H26B15357   5.600   2.021   4.928  1.4013  2.7395 -0.2602
  123CHL1  H26C15358   5.543   1.901   4.789  1.7397 -0.8045 -0.3650
  123CHL1   C2715359   5.562   2.254   4.819 -1.2412  0.0440  0.2391
  123CHL1  H27A15360   5.506   2.336   4.770 -1.6441 -1.1365 -1.3447
  123CHL1  H27B15361   5.545   2.266   4.928 -1.0080  0.2332  0.2561
  123CHL1  H27C15362   5.670   2.270   4.799 -0.9046 -1.1658  1.0073
  124CHL1    C315363   3.376   5.800   3.225  0.0504 -0.5497  0.8151
  124CHL1    H315364   3.485   5.801   3.249  0.1572  0.7752  0.3951
  124CHL1    O315365   3.349   5.864   3.100 -0.1676 -0.0757  0.8083
  124CHL1   H3'15366   3.255   5.866   3.083  0.1821  2.8310 -1.6217
  124CHL1    C415367   3.318   5.664   3.238  0.2943  0.4700 -0.0169
  124CHL1   H4A15368   3.208   5.679   3.229  0.6586  2.4447 -1.6654
  124CHL1   H4B15369   3.342   5.594   3.155  0.9922  0.9370 -0.2075
  124CHL1    C515370   3.344   5.615   3.378  0.7886 -0.4156 -0.6419
  124CHL1    C615371   3.413   5.499   3.392  0.5236  0.1720  0.3378
  124CHL1    H615372   3.445   5.445   3.301  1.9458  1.0594  0.2857
  124CHL1    C715373   3.453   5.436   3.523  0.2650 -0.5000  0.6460
  124CHL1   H7A15374   3.437   5.326   3.522 -0.1770 -0.4806  2.4164
  124CHL1   H7B15375   3.562   5.453   3.533  0.2367 -1.6054  3.6692
  124CHL1    C815376   3.379   5.489   3.642  0.6760 -0.5709  1.3951
  124CHL1    H815377   3.274   5.451   3.641  0.0438  1.0581 -0.1688
  124CHL1   C1415378   3.439   5.458   3.778 -0.7604 -0.3552  0.7791
  124CHL1   H1415379   3.537   5.510   3.789 -0.5228  0.0064 -2.3420
  124CHL1   C1515380   3.474   5.309   3.798  0.2697  0.5742 -0.0312
  124CHL1  H15A15381   3.386   5.253   3.760 -0.1504  1.3111 -0.1685
  124CHL1  H15B15382   3.567   5.279   3.747  1.5801  2.1140  1.3102
  124CHL1   C1615383   3.475   5.283   3.945  0.0682  0.0103 -0.3450
  124CHL1  H16A15384   3.415   5.199   3.985  2.3028 -0.7730  1.6362
  124CHL1  H16B15385   3.579   5.266   3.982  0.5886  1.4227 -1.0664
  124CHL1   C1715386   3.431   5.421   4.007  0.3526 -0.3430 -0.5804
  124CHL1   H1715387   3.526   5.474   4.030 -1.3134  2.7667 -0.3188
  124CHL1   C1315388   3.353   5.495   3.896  0.7216  0.0119  0.5355
  124CHL1   C1815389   3.210   5.433   3.888  0.5414 -0.8554 -0.3051
  124CHL1  H18A15390   3.152   5.452   3.795  0.1751  0.1014  0.1146
  124CHL1  H18B15391   3.210   5.323   3.904  0.1118 -0.8090  0.0312
  124CHL1  H18C15392   3.146   5.476   3.967  2.0706  1.1484 -0.0854
  124CHL1   C1215393   3.337   5.646   3.903 -0.2310  0.1014  0.3727
  124CHL1  H12A15394   3.267   5.677   3.984 -0.1717 -1.2527  0.9666
  124CHL1  H12B15395   3.439   5.687   3.922  0.4235 -1.7364  1.0114
  124CHL1   C1115396   3.289   5.698   3.764 -0.3419  0.5993  0.5310
  124CHL1  H11A15397   3.179   5.679   3.759 -0.5247  1.8032 -0.6513
  124CHL1  H11B15398   3.298   5.809   3.768  0.2060  0.5251  1.4118
  124CHL1    C915399   3.361   5.646   3.634  0.1696  0.5466 -0.4298
  124CHL1    H915400   3.468   5.674   3.646  0.2966 -0.6783  2.0918
  124CHL1   C1015401   3.303   5.703   3.498 -0.0392  0.8652  0.5087
  124CHL1   C1915402   3.152   5.701   3.512 -0.1515 -0.1260 -0.1389
  124CHL1  H19A15403   3.108   5.603   3.539  0.4649 -0.1822  0.6820
  124CHL1  H19B15404   3.104   5.768   3.586 -0.7662  0.7211 -1.2573
  124CHL1  H19C15405   3.105   5.735   3.417  0.2173  0.7519 -0.0180
  124CHL1    C115406   3.349   5.848   3.471 -0.6241  0.1613  0.0558
  124CHL1   H1A15407   3.290   5.905   3.546 -1.0044 -1.4275  1.0143
  124CHL1   H1B15408   3.457   5.867   3.484 -0.3028 -0.3396 -1.5981
  124CHL1    C215409   3.320   5.896   3.329  0.4131 -0.2244  0.6288
  124CHL1   H2A15410   3.370   5.993   3.312  0.2258 -0.3103 -0.4529
  124CHL1   H2B15411   3.212   5.920   3.313  1.0453  1.1573 -2.1037
  124CHL1   C2015412   3.381   5.402   4.151 -0.5040  0.4437 -0.9149
  124CHL1   H2015413   3.290   5.340   4.141  1.1430 -2.0363 -1.6176
  124CHL1   C2115414   3.354   5.542   4.216 -0.7100  0.5289 -0.2373
  124CHL1  H21A15415   3.443   5.609   4.218 -0.0447 -0.1445 -3.0682
  124CHL1  H21B15416   3.318   5.527   4.320  0.1834  0.7455  0.1164
  124CHL1  H21C15417   3.274   5.600   4.165 -2.1544 -2.2135 -1.2792
  124CHL1   C2215418   3.480   5.324   4.241 -0.7356  0.5753  0.8881
  124CHL1  H22A15419   3.498   5.236   4.175  1.0389  0.7912  1.0423
  124CHL1  H22B15420   3.574   5.383   4.235 -1.1279  1.0790 -1.1974
  124CHL1   C2315421   3.442   5.299   4.383 -0.5075 -0.2109 -0.6558
  124CHL1  H23A15422   3.398   5.380   4.445 -1.7531 -0.7710 -0.7744
  124CHL1  H23B15423   3.356   5.230   4.371  0.3781 -0.9249 -3.3786
  124CHL1   C2415424   3.550   5.222   4.464 -0.5092 -0.2577  0.0787
  124CHL1  H24A15425   3.588   5.140   4.399 -1.9594 -1.1061  0.2573
  124CHL1  H24B15426   3.626   5.292   4.506  0.1459 -1.0517  0.2486
  124CHL1   C2515427   3.492   5.149   4.584  0.7506 -0.1414 -0.3117
  124CHL1   H2515428   3.419   5.069   4.559  1.8440 -1.2763  0.0238
  124CHL1   C2615429   3.605   5.088   4.672 -0.5173 -0.3812 -0.0092
  124CHL1  H26A15430   3.671   5.169   4.710 -1.5191  1.0450 -1.1591
  124CHL1  H26B15431   3.546   5.042   4.754 -2.6202 -0.2334 -1.3366
  124CHL1  H26C15432   3.670   5.019   4.614 -0.5170  1.2193 -2.0357
  124CHL1   C2715433   3.413   5.244   4.685  0.1303  1.2625  0.4232
  124CHL1  H27A15434   3.476   5.333   4.707  2.4655  0.8511 -3.5710
  124CHL1  H27B15435   3.317   5.279   4.641  0.0074 -0.0496 -0.4029
  124CHL1  H27C15436   3.382   5.190   4.777  0.7546  1.0766  0.5243
  125CHL1    C315437   3.890   6.004   3.165  0.5258 -0.0786  0.1272
  125CHL1    H315438   3.937   6.088   3.220  3.1641 -2.2411  1.3933
  125CHL1    O315439   3.881   6.028   3.030 -0.2412 -0.4665  0.4949
  125CHL1   H3'15440   3.975   6.017   3.012 -0.2723  0.6353 -0.4606
  125CHL1    C415441   3.975   5.877   3.189  0.3186 -0.1442 -0.6409
  125CHL1   H4A15442   3.925   5.802   3.124 -0.7274  1.1484 -1.3854
  125CHL1   H4B15443   4.079   5.901   3.160  1.0716  1.1674  2.6830
  125CHL1    C515444   3.984   5.843   3.338  0.5660  0.0621  0.4474
  125CHL1    C615445   4.098   5.814   3.398  0.5182 -0.4829 -0.6507
  125CHL1    H615446   4.192   5.819   3.342  1.8652 -1.6135  1.3878
  125CHL1    C715447   4.128   5.769   3.541 -0.3933 -0.7998  0.4081
  125CHL1   H7A15448   4.190   5.677   3.536 -0.5113 -0.8144 -2.4706
  125CHL1   H7B15449   4.181   5.858   3.581 -1.2246  1.6634 -3.3474
  125CHL1    C815450   3.988   5.744   3.610 -0.0008  0.0080  0.4403
  125CHL1    H815451   3.966   5.639   3.582  2.0318 -0.4715  0.5158
  125CHL1   C1415452   4.008   5.744   3.760 -0.3532 -0.2280 -0.0164
  125CHL1   H1415453   4.025   5.848   3.796  1.2259 -0.0585 -1.1311
  125CHL1   C1515454   4.118   5.663   3.826 -0.5678  0.0406  0.2039
  125CHL1  H15A15455   4.120   5.560   3.785 -1.1329 -0.4558  1.3791
  125CHL1  H15B15456   4.221   5.705   3.828 -1.0650  1.2972  1.6105
  125CHL1   C1615457   4.069   5.651   3.975 -0.1828  0.0925  0.2261
  125CHL1  H16A15458   4.076   5.541   3.994 -0.3058  0.4198  2.5494
  125CHL1  H16B15459   4.140   5.700   4.045  2.2337  0.5289 -2.3851
  125CHL1   C1715460   3.925   5.705   3.980  0.0839 -0.1974  0.2078
  125CHL1   H1715461   3.933   5.813   4.003 -0.4348 -0.3066  0.9319
  125CHL1   C1315462   3.881   5.706   3.831 -0.4239 -1.1742 -0.5414
  125CHL1   C1815463   3.829   5.566   3.804  0.2725 -0.8470  0.8078
  125CHL1  H18A15464   3.913   5.494   3.800  0.4156 -0.7582  1.7901
  125CHL1  H18B15465   3.751   5.536   3.878 -0.1175 -1.0863  0.3030
  125CHL1  H18C15466   3.796   5.569   3.698  0.0924  2.9351  0.8254
  125CHL1   C1215467   3.772   5.809   3.796  0.4546 -0.6244 -0.1406
  125CHL1  H12A15468   3.674   5.795   3.847 -0.8042  0.3637 -2.1703
  125CHL1  H12B15469   3.815   5.905   3.830  1.7790 -1.2869  0.1499
  125CHL1   C1115470   3.746   5.817   3.644  1.0778  0.3102 -0.4435
  125CHL1  H11A15471   3.694   5.722   3.620  0.5413  0.4623  0.0921
  125CHL1  H11B15472   3.675   5.899   3.620 -1.2743 -1.6683 -0.6548
  125CHL1    C915473   3.873   5.841   3.562 -0.6636  0.4924 -0.2215
  125CHL1    H915474   3.906   5.944   3.588 -1.1296  1.0745 -1.8196
  125CHL1   C1015475   3.847   5.844   3.409 -0.2936  0.0250  0.2059
  125CHL1   C1915476   3.774   5.715   3.362  0.0279  0.2655 -0.5552
  125CHL1  H19A15477   3.802   5.628   3.425 -1.3993 -0.5749 -1.0470
  125CHL1  H19B15478   3.668   5.732   3.391  0.1709  1.7759 -0.8225
  125CHL1  H19C15479   3.778   5.697   3.253  0.9469  0.9028 -0.6402
  125CHL1    C115480   3.771   5.972   3.373  0.4588 -0.0593 -0.0349
  125CHL1   H1A15481   3.671   5.979   3.421 -0.3479 -2.0341 -1.2790
  125CHL1   H1B15482   3.830   6.061   3.403  0.3320  0.1409 -0.3728
  125CHL1    C215483   3.752   6.000   3.224 -0.6018  0.0174 -0.0029
  125CHL1   H2A15484   3.714   6.102   3.204 -0.1773 -0.2135 -2.2308
  125CHL1   H2B15485   3.693   5.924   3.168  1.5658 -1.3699 -0.5416
  125CHL1   C2015486   3.835   5.647   4.096  0.4267 -0.2140 -1.2168
  125CHL1   H2015487   3.808   5.539   4.088 -0.4858 -0.1827  0.9422
  125CHL1   C2115488   3.703   5.725   4.111  0.9633 -0.3167  0.1346
  125CHL1  H21A15489   3.720   5.828   4.074  0.9147 -0.0533  0.8183
  125CHL1  H21B15490   3.668   5.740   4.216 -0.4942  0.5806 -0.4531
  125CHL1  H21C15491   3.631   5.682   4.038  0.0454  0.0834  0.7800
  125CHL1   C2215492   3.915   5.649   4.226 -0.1570 -0.6867 -0.8139
  125CHL1  H22A15493   4.009   5.592   4.214  0.5768  0.6675 -1.8154
  125CHL1  H22B15494   3.939   5.754   4.254 -1.7982 -0.5784  0.3461
  125CHL1   C2315495   3.839   5.584   4.353  0.1041 -0.0837 -0.5990
  125CHL1  H23A15496   3.734   5.620   4.359  0.7282  1.7746  0.1472
  125CHL1  H23B15497   3.835   5.477   4.324 -2.1249  0.2278 -1.5779
  125CHL1   C2415498   3.920   5.599   4.487 -0.3002  0.7937  0.0607
  125CHL1  H24A15499   4.022   5.561   4.466 -1.0238 -1.7051  0.7000
  125CHL1  H24B15500   3.928   5.704   4.521 -0.5422  1.1418 -0.9114
  125CHL1   C2515501   3.854   5.519   4.602  0.6291  0.1024  0.0383
  125CHL1   H2515502   3.833   5.416   4.566  1.8134 -0.4810  0.9607
  125CHL1   C2615503   3.955   5.502   4.725  0.9207 -0.2770  0.5511
  125CHL1  H26A15504   4.051   5.468   4.681  1.3147  1.2815  0.1748
  125CHL1  H26B15505   3.976   5.605   4.758  1.5930  0.6101 -2.3695
  125CHL1  H26C15506   3.924   5.438   4.810 -1.1196 -0.5473 -0.3257
  125CHL1   C2715507   3.726   5.585   4.651  0.3069  0.2618 -0.1296
  125CHL1  H27A15508   3.745   5.685   4.695 -1.7610 -0.0023  1.5279
  125CHL1  H27B15509   3.648   5.607   4.575  1.0072 -1.3666 -1.3855
  125CHL1  H27C15510   3.666   5.518   4.716 -0.2959 -0.3170 -1.2496
  126CHL1    C315511   3.044   5.382   3.205 -0.3452  0.7677 -0.7121
  126CHL1    H315512   3.064   5.472   3.267  0.7932 -0.5662  0.9843
  126CHL1    O315513   3.113   5.401   3.083  0.4597 -0.1237 -0.5720
  126CHL1   H3'15514   3.113   5.316   3.038 -0.7133 -0.4935  0.0801
  126CHL1    C415515   3.101   5.264   3.291 -0.1415  0.2492  0.1799
  126CHL1   H4A15516   3.093   5.172   3.230 -0.5419  0.3180  0.1266
  126CHL1   H4B15517   3.210   5.276   3.311 -0.2161 -0.7637  1.3666
  126CHL1    C515518   3.020   5.248   3.420 -0.2929 -0.0026  0.4349
  126CHL1    C615519   3.075   5.265   3.542  0.2766  0.8144  0.7289
  126CHL1    H615520   3.185   5.274   3.544  0.1791  2.2218  0.7202
  126CHL1    C715521   3.008   5.238   3.673  0.3222  0.7420  0.5597
  126CHL1   H7A15522   3.080   5.180   3.736 -0.7300 -2.7538 -1.1620
  126CHL1   H7B15523   2.969   5.329   3.723 -1.0023  2.2446 -2.8791
  126CHL1    C815524   2.871   5.157   3.654  0.2894  0.0365  0.4276
  126CHL1    H815525   2.884   5.054   3.614 -3.0898 -0.8793  1.3532
  126CHL1   C1415526   2.780   5.138   3.782  0.2593 -0.0085 -0.0688
  126CHL1   H1415527   2.760   5.238   3.826 -0.6454 -0.2358  0.0469
  126CHL1   C1515528   2.843   5.068   3.907  0.3643 -0.5594 -0.0762
  126CHL1  H15A15529   2.900   4.977   3.880 -0.1978 -1.0464  0.3271
  126CHL1  H15B15530   2.905   5.135   3.970 -2.0233  1.8285 -0.0638
  126CHL1   C1615531   2.725   5.026   3.997  0.3350  0.2934  0.0537
  126CHL1  H16A15532   2.733   4.917   4.016  1.9339  0.5567  1.0294
  126CHL1  H16B15533   2.731   5.085   4.090  0.2869  1.0734 -0.4316
  126CHL1   C1715534   2.599   5.061   3.914 -0.5855  0.9834 -0.1593
  126CHL1   H1715535   2.586   5.166   3.949  0.3466  1.1363 -0.2542
  126CHL1   C1315536   2.643   5.067   3.767 -0.0085 -0.0404 -0.2374
  126CHL1   C1815537   2.659   4.929   3.714 -0.5880  0.4059 -0.0914
  126CHL1  H18A15538   2.562   4.885   3.683  0.1656 -0.4750 -1.2836
  126CHL1  H18B15539   2.728   4.918   3.627 -1.3261 -2.9915 -0.3554
  126CHL1  H18C15540   2.701   4.860   3.790  0.4378 -0.8241 -1.7176
  126CHL1   C1215541   2.568   5.152   3.663  0.6200  0.1186  0.2484
  126CHL1  H12A15542   2.470   5.106   3.639  0.0849  1.3627 -0.0267
  126CHL1  H12B15543   2.550   5.252   3.709  2.4663  0.2074  0.8408
  126CHL1   C1115544   2.650   5.163   3.528  0.2136  0.6157 -0.3582
  126CHL1  H11A15545   2.657   5.057   3.494  2.6004  1.1941 -1.9218
  126CHL1  H11B15546   2.588   5.222   3.457  0.4083 -0.0030 -1.0581
  126CHL1    C915547   2.790   5.228   3.542  0.1726 -0.4083 -0.9279
  126CHL1    H915548   2.775   5.334   3.570  1.2401 -0.1930 -1.1318
  126CHL1   C1015549   2.869   5.224   3.402 -0.1907 -0.3644 -0.4957
  126CHL1   C1915550   2.841   5.092   3.336 -0.2492  0.6780 -0.0170
  126CHL1  H19A15551   2.867   5.004   3.399 -2.7876 -0.6829 -0.7500
  126CHL1  H19B15552   2.736   5.073   3.307  0.3367 -0.1302 -1.7423
  126CHL1  H19C15553   2.892   5.077   3.238  2.5608 -1.3537  1.6074
  126CHL1    C115554   2.819   5.346   3.317  0.2442 -0.3861 -0.1656
  126CHL1   H1A15555   2.710   5.330   3.301 -0.1322 -0.0060  1.7763
  126CHL1   H1B15556   2.822   5.438   3.380 -0.1638  0.8442 -1.8486
  126CHL1    C215557   2.891   5.368   3.184 -0.3006  0.1897 -0.1823
  126CHL1   H2A15558   2.853   5.460   3.136  0.0785  0.3241 -0.2275
  126CHL1   H2B15559   2.866   5.271   3.135 -0.7210 -0.6219  1.5352
  126CHL1   C2015560   2.474   4.988   3.950  1.1739  0.1519 -0.6246
  126CHL1   H2015561   2.469   4.892   3.895 -1.4043 -0.1335  0.0058
  126CHL1   C2115562   2.343   5.059   3.896 -0.2124 -0.4160  0.7121
  126CHL1  H21A15563   2.339   5.160   3.942  0.2400 -0.1934  0.2728
  126CHL1  H21B15564   2.262   4.989   3.924 -2.0429  0.9913 -0.8043
  126CHL1  H21C15565   2.343   5.078   3.787  0.3327 -0.6504  0.6645
  126CHL1   C2215566   2.461   4.953   4.103 -0.2581  0.5413 -0.0859
  126CHL1  H22A15567   2.379   4.877   4.102  0.9519 -1.0807  4.0900
  126CHL1  H22B15568   2.550   4.904   4.147 -1.6152 -0.3164  1.8438
  126CHL1   C2315569   2.423   5.070   4.198  0.4226 -0.1199  0.4141
  126CHL1  H23A15570   2.506   5.143   4.186  1.1421 -0.9381  0.3711
  126CHL1  H23B15571   2.325   5.113   4.166 -0.2904 -0.8742  1.5217
  126CHL1   C2415572   2.412   5.024   4.339 -0.3496  0.0289  0.1349
  126CHL1  H24A15573   2.321   4.963   4.359 -0.4427  0.2347  0.3583
  126CHL1  H24B15574   2.485   4.944   4.362 -0.4786 -0.4824 -1.1933
  126CHL1   C2515575   2.412   5.129   4.447  0.4117 -0.1085  0.6285
  126CHL1   H2515576   2.340   5.206   4.412  1.5689  0.8933  0.3683
  126CHL1   C2615577   2.355   5.084   4.584 -0.3054 -0.1010 -0.1978
  126CHL1  H26A15578   2.430   5.024   4.641 -1.3110  0.4553  1.8031
  126CHL1  H26B15579   2.326   5.175   4.641  1.0058  1.7157 -2.2655
  126CHL1  H26C15580   2.261   5.026   4.573 -0.1631 -1.3824  3.6749
  126CHL1   C2715581   2.543   5.202   4.470 -0.8830  0.6755 -0.2501
  126CHL1  H27A15582   2.595   5.233   4.376 -1.3586 -1.5712 -1.3204
  126CHL1  H27B15583   2.544   5.285   4.544  1.5219  0.1352  0.4264
  126CHL1  H27C15584   2.615   5.134   4.521  0.4926  1.9969 -0.3480
  127CHL1    C315585   3.180   6.510   3.192  0.3984  0.0213 -0.1317
  127CHL1    H315586   3.281   6.469   3.213  1.4679  2.9113  0.7400
  127CHL1    O315587   3.178   6.559   3.061 -0.1001 -0.1268  0.5882
  127CHL1   H3'15588   3.234   6.637   3.065  0.5170 -0.4631 -0.9333
  127CHL1    C415589   3.073   6.399   3.203 -0.2816 -0.0003  0.7467
  127CHL1   H4A15590   2.979   6.454   3.179 -0.0643  0.2555  0.4937
  127CHL1   H4B15591   3.098   6.328   3.122 -0.9409  0.1914  0.3662
  127CHL1    C515592   3.077   6.338   3.342  0.3791  0.1292  0.2134
  127CHL1    C615593   3.108   6.208   3.355  0.1433  0.0306 -0.5123
  127CHL1    H615594   3.125   6.145   3.266  1.1266  0.3816 -0.5798
  127CHL1    C715595   3.107   6.141   3.489 -0.3570 -0.2538 -0.3732
  127CHL1   H7A15596   3.049   6.047   3.475 -0.2151 -0.1817 -1.6320
  127CHL1   H7B15597   3.210   6.112   3.519  0.5973  1.8347 -1.3622
  127CHL1    C815598   3.043   6.228   3.607 -0.1710  0.2445 -0.0861
  127CHL1    H815599   2.933   6.226   3.594 -0.3847  2.1842  1.1254
  127CHL1   C1415600   3.080   6.173   3.740  0.1545 -0.1406  0.5631
  127CHL1   H1415601   3.188   6.196   3.749 -0.0206 -0.1409  3.9275
  127CHL1   C1515602   3.081   6.023   3.759  0.5111  0.3194 -0.6362
  127CHL1  H15A15603   2.987   5.985   3.716 -0.5982  1.6616  0.4913
  127CHL1  H15B15604   3.175   5.983   3.715  0.0920 -1.3435 -0.0822
  127CHL1   C1615605   3.065   6.006   3.912  0.3208  0.1314  0.2377
  127CHL1  H16A15606   2.966   5.963   3.935 -0.5346  1.4736 -0.7888
  127CHL1  H16B15607   3.139   5.935   3.955  1.5549  1.4487  0.3865
  127CHL1   C1715608   3.075   6.151   3.977  0.1241  0.2238 -1.1241
  127CHL1   H1715609   3.184   6.173   3.979  0.3535 -0.8308 -1.2691
  127CHL1   C1315610   3.021   6.240   3.860  0.7606 -0.0940 -0.1888
  127CHL1   C1815611   2.864   6.224   3.865 -0.6054 -0.9697  0.7894
  127CHL1  H18A15612   2.813   6.248   3.769  1.3166 -2.0241 -0.5520
  127CHL1  H18B15613   2.840   6.117   3.882 -0.5103 -1.6316 -2.5820
  127CHL1  H18C15614   2.822   6.281   3.951 -0.3663 -1.8095  1.4803
  127CHL1   C1215615   3.074   6.387   3.854  0.1124  0.1345  0.1456
  127CHL1  H12A15616   3.039   6.448   3.940  1.1256  0.7639  0.1353
  127CHL1  H12B15617   3.185   6.382   3.858  0.2445 -0.8718 -2.6040
  127CHL1   C1115618   3.033   6.452   3.717 -0.2913  0.2013  0.8258
  127CHL1  H11A15619   2.923   6.471   3.716 -0.2769  0.5648 -1.7503
  127CHL1  H11B15620   3.077   6.554   3.715  0.6918 -0.1984  1.6094
  127CHL1    C915621   3.090   6.377   3.592 -0.4293 -0.2972  0.2498
  127CHL1    H915622   3.199   6.367   3.607 -0.1507  0.6653 -1.0140
  127CHL1   C1015623   3.058   6.438   3.457  0.0756  0.4977  0.1992
  127CHL1   C1915624   2.908   6.486   3.457  0.0287  0.3320  0.8530
  127CHL1  H19A15625   2.839   6.401   3.478 -0.8483  1.0026  0.7467
  127CHL1  H19B15626   2.879   6.555   3.540  1.3521  1.2143  0.6121
  127CHL1  H19C15627   2.880   6.527   3.358  0.2158 -1.5103 -0.0080
  127CHL1    C115628   3.154   6.562   3.442 -0.8941 -0.2305 -0.0014
  127CHL1   H1A15629   3.123   6.644   3.511 -0.3040  0.9834 -1.1300
  127CHL1   H1B15630   3.254   6.532   3.479 -1.4668 -0.3708  1.5155
  127CHL1    C215631   3.150   6.617   3.295 -0.0647 -0.4148 -0.7330
  127CHL1   H2A15632   3.219   6.704   3.288 -0.7849  0.1783 -0.6543
  127CHL1   H2B15633   3.055   6.672   3.275  2.0012  2.9002 -2.4605
  127CHL1   C2015634   3.013   6.166   4.114  0.3100  1.1609 -0.2936
  127CHL1   H2015635   2.904   6.148   4.103  0.5426 -0.1489 -0.5313
  127CHL1   C2115636   3.049   6.303   4.172 -0.3288 -0.0006  0.2114
  127CHL1  H21A15637   3.047   6.303   4.283 -1.4179 -1.3154  0.2236
  127CHL1  H21B15638   2.971   6.375   4.140 -0.2142  0.7935  1.6512
  127CHL1  H21C15639   3.153   6.333   4.146 -0.3717  1.3275  1.4419
  127CHL1   C2215640   3.061   6.059   4.223 -0.9447 -0.2669 -0.1279
  127CHL1  H22A15641   3.023   6.083   4.324  3.0242  2.4271  0.9906
  127CHL1  H22B15642   3.033   5.958   4.188 -2.9041 -0.1193  0.8911
  127CHL1   C2315643   3.216   6.060   4.233 -0.5088  0.2815 -0.1758
  127CHL1  H23A15644   3.259   6.021   4.138 -0.2519  1.3784 -0.5318
  127CHL1  H23B15645   3.255   6.162   4.255 -0.3029  0.2038 -0.1796
  127CHL1   C2415646   3.272   5.959   4.338 -0.4183  0.6141 -0.1113
  127CHL1  H24A15647   3.217   5.972   4.433 -0.0034  1.1886  0.0545
  127CHL1  H24B15648   3.247   5.855   4.307  0.3689  0.5387 -0.5349
  127CHL1   C2515649   3.428   5.960   4.371 -0.2094  0.4870  0.1317
  127CHL1   H2515650   3.482   5.932   4.278 -1.8238 -0.2532 -0.6260
  127CHL1   C2615651   3.475   6.096   4.428  0.7143 -0.0925  0.3645
  127CHL1  H26A15652   3.432   6.182   4.372  0.8267 -0.4420 -0.2748
  127CHL1  H26B15653   3.437   6.097   4.532  1.9773 -0.1384  0.8346
  127CHL1  H26C15654   3.585   6.096   4.438  0.9141  1.7233 -1.2859
  127CHL1   C2715655   3.451   5.851   4.478  0.5136  0.3759  0.2441
  127CHL1  H27A15656   3.382   5.860   4.565  0.3988 -0.9983  0.3190
  127CHL1  H27B15657   3.419   5.757   4.427  0.2091 -1.0167  2.8417
  127CHL1  H27C15658   3.555   5.828   4.510  0.3419 -0.8792 -0.0250
  128CHL1    C315659   1.952   2.111   3.243  0.9369 -0.3333 -0.0823
  128CHL1    H315660   2.032   2.184   3.218  2.2782 -1.1594  1.5730
  128CHL1    O315661   1.909   2.050   3.121  0.1531  0.0990  0.2954
  128CHL1   H3'15662   1.828   2.007   3.149  0.6206 -1.1444 -0.2009
  128CHL1    C415663   2.017   1.995   3.327 -0.0686  0.7776  0.5351
  128CHL1   H4A15664   1.948   1.909   3.339  0.2685  0.6883  1.9519
  128CHL1   H4B15665   2.098   1.956   3.261 -1.8131 -0.9041 -0.7415
  128CHL1    C515666   2.058   2.034   3.467 -0.1714 -0.9031  0.1282
  128CHL1    C615667   2.186   2.014   3.513 -0.2705 -0.1262  0.2244
  128CHL1    H615668   2.249   1.967   3.436 -2.6548 -0.8720 -1.3817
  128CHL1    C715669   2.230   2.036   3.653  0.5155  0.3293 -0.1568
  128CHL1   H7A15670   2.295   1.957   3.695 -2.0762 -1.6498  0.4362
  128CHL1   H7B15671   2.298   2.124   3.654  3.0794 -1.4723  2.4485
  128CHL1    C815672   2.112   2.055   3.752 -0.0026  0.7877  0.1337
  128CHL1    H815673   2.071   1.955   3.775  1.2945 -0.0729 -1.1226
  128CHL1   C1415674   2.166   2.112   3.885 -0.3164 -0.4688 -0.6468
  128CHL1   H1415675   2.211   2.211   3.862  1.7460 -1.4077 -0.8865
  128CHL1   C1515676   2.284   2.046   3.957  0.4250 -0.2818  0.0117
  128CHL1  H15A15677   2.257   1.939   3.969 -0.7042 -0.1733 -1.2693
  128CHL1  H15B15678   2.388   2.050   3.919  0.8282 -2.1852  0.8034
  128CHL1   C1615679   2.274   2.108   4.098  0.6880 -0.4386 -0.8542
  128CHL1  H16A15680   2.257   2.028   4.174 -0.0877  0.7235  0.2382
  128CHL1  H16B15681   2.369   2.156   4.131  0.6834 -0.6654 -0.4971
  128CHL1   C1715682   2.150   2.192   4.108  0.0455  0.3517 -0.1380
  128CHL1   H1715683   2.177   2.294   4.073  0.7371 -0.0544 -0.8110
  128CHL1   C1315684   2.058   2.140   3.992  0.6374  0.1138  0.6060
  128CHL1   C1815685   1.992   2.007   4.031 -0.6898  0.4868  0.0203
  128CHL1  H18A15686   1.910   2.008   4.106  1.5004  1.5272  2.6206
  128CHL1  H18B15687   1.968   1.937   3.948  0.5263  1.6497 -1.3607
  128CHL1  H18C15688   2.069   1.947   4.085 -0.4869  1.7340  1.1837
  128CHL1   C1215689   1.950   2.242   3.925  0.2650  0.8232 -0.0768
  128CHL1  H12A15690   1.863   2.242   3.994 -0.5722 -2.7500 -0.9521
  128CHL1  H12B15691   1.993   2.342   3.900  2.3961 -0.1079 -0.3834
  128CHL1   C1115692   1.892   2.177   3.798  0.4815  0.2103 -0.7320
  128CHL1  H11A15693   1.841   2.084   3.829 -1.4517  1.3369 -0.3595
  128CHL1  H11B15694   1.814   2.248   3.764 -0.2236 -0.0738  0.2473
  128CHL1    C915695   2.002   2.147   3.693 -0.4669 -0.1550  0.0900
  128CHL1    H915696   2.041   2.248   3.670 -3.0974  0.7217 -1.0018
  128CHL1   C1015697   1.953   2.097   3.556 -0.2104 -0.5294  0.4243
  128CHL1   C1915698   1.855   1.985   3.581  0.3017 -0.2612 -0.4131
  128CHL1  H19A15699   1.880   1.923   3.669 -2.1226  1.6827  1.7922
  128CHL1  H19B15700   1.757   2.031   3.607  0.3230  0.0776 -0.9093
  128CHL1  H19C15701   1.834   1.914   3.498  0.4239 -0.4270 -0.3008
  128CHL1    C115702   1.882   2.213   3.482 -0.6705  0.4817  0.2192
  128CHL1   H1A15703   1.791   2.248   3.536 -2.5345 -0.9165 -1.8566
  128CHL1   H1B15704   1.956   2.297   3.483 -0.5510  0.4249  2.5981
  128CHL1    C215705   1.841   2.179   3.330  0.1909  0.2119  0.3845
  128CHL1   H2A15706   1.806   2.277   3.291 -0.0164  0.0516  0.1682
  128CHL1   H2B15707   1.753   2.112   3.329 -0.0564  0.5167  1.2936
  128CHL1   C2015708   2.088   2.197   4.247  0.2063 -0.3432  0.1637
  128CHL1   H2015709   2.065   2.091   4.269 -2.9848 -0.2758 -2.1457
  128CHL1   C2115710   1.953   2.280   4.252 -0.6197 -0.0955 -0.2164
  128CHL1  H21A15711   1.969   2.381   4.211  0.7914  0.0836  0.6802
  128CHL1  H21B15712   1.923   2.287   4.359  2.0787  0.4306  0.5918
  128CHL1  H21C15713   1.869   2.229   4.199 -2.2317  3.1943 -1.0500
  128CHL1   C2215714   2.177   2.237   4.366 -0.3718  0.4025 -0.2083
  128CHL1  H22A15715   2.114   2.252   4.456 -0.8073 -1.3169 -0.2079
  128CHL1  H22B15716   2.255   2.163   4.393 -0.1190  1.3267  1.8273
  128CHL1   C2315717   2.256   2.369   4.341  0.2385  0.1357  0.0303
  128CHL1  H23A15718   2.336   2.359   4.265 -0.6006  1.7592 -1.1589
  128CHL1  H23B15719   2.190   2.437   4.282  1.7497  0.7332 -1.0278
  128CHL1   C2415720   2.310   2.450   4.460  0.1330 -0.5201  1.0327
  128CHL1  H24A15721   2.372   2.537   4.430 -1.3667  0.3919  0.4305
  128CHL1  H24B15722   2.220   2.490   4.511  0.5003  1.1517  0.4440
  128CHL1   C2515723   2.399   2.363   4.555  0.0013 -0.6218  0.0630
  128CHL1   H2515724   2.340   2.282   4.603 -2.2901  0.2697 -1.1036
  128CHL1   C2615725   2.530   2.306   4.496 -0.4695  1.1113 -0.1402
  128CHL1  H26A15726   2.590   2.393   4.462  0.5319  0.5016  0.0334
  128CHL1  H26B15727   2.594   2.262   4.575  0.6061  2.1042 -0.4323
  128CHL1  H26C15728   2.514   2.231   4.416  1.6990  0.6336 -0.1837
  128CHL1   C2715729   2.435   2.449   4.681  0.2402  0.1496 -0.0593
  128CHL1  H27A15730   2.508   2.392   4.742 -1.8732 -1.4058  1.1763
  128CHL1  H27B15731   2.477   2.549   4.657  0.1172  0.3394  0.5194
  128CHL1  H27C15732   2.353   2.486   4.746  0.5523 -0.8141  0.9025
  129CHL1    C315733   5.347   6.458   3.128 -0.0599  0.3258  0.0086
  129CHL1    H315734   5.256   6.395   3.138  0.2438  0.1401  2.1344
  129CHL1    O315735   5.393   6.466   2.996  0.0953 -0.0676 -0.0076
  129CHL1   H3'15736   5.316   6.485   2.942  0.2763 -0.1377 -0.2952
  129CHL1    C415737   5.324   6.603   3.188 -0.0888  0.8249  1.4928
  129CHL1   H4A15738   5.418   6.661   3.180  0.9214 -0.4961  3.0443
  129CHL1   H4B15739   5.248   6.656   3.127  0.1398  0.7020  1.1020
  129CHL1    C515740   5.286   6.592   3.332  0.1749 -0.7459  0.0337
  129CHL1    C615741   5.163   6.636   3.370 -0.8832 -0.4331  0.1187
  129CHL1    H615742   5.107   6.687   3.290  0.1316  0.1871 -0.2281
  129CHL1    C715743   5.103   6.626   3.509 -0.6425 -0.1338 -0.0897
  129CHL1   H7A15744   5.049   6.722   3.523 -0.1491  0.0239  0.8027
  129CHL1   H7B15745   5.028   6.544   3.516 -1.6346  0.8189  0.8222
  129CHL1    C815746   5.215   6.595   3.616 -0.0892  0.5177  0.0203
  129CHL1    H815747   5.283   6.682   3.629  2.1928 -1.2572  0.6253
  129CHL1   C1415748   5.165   6.577   3.758 -0.1300  0.0017  1.2767
  129CHL1   H1415749   5.091   6.495   3.748 -0.4192  0.3323  0.6575
  129CHL1   C1515750   5.078   6.690   3.819 -0.1436 -0.4070 -0.4489
  129CHL1  H15A15751   5.140   6.782   3.815 -0.2377 -0.3213  0.0536
  129CHL1  H15B15752   4.981   6.713   3.770 -0.6565 -1.4880  0.0250
  129CHL1   C1615753   5.056   6.635   3.964 -0.0915 -0.4567  0.7547
  129CHL1  H16A15754   5.067   6.719   4.035 -0.4567 -1.4056  1.9593
  129CHL1  H16B15755   4.958   6.587   3.983 -1.0595  1.4783  0.8619
  129CHL1   C1715756   5.167   6.522   3.989 -0.2789 -0.6578 -0.8357
  129CHL1   H1715757   5.110   6.427   3.985  0.1168 -0.9730  0.5222
  129CHL1   C1315758   5.266   6.530   3.868  0.6625 -0.1252 -0.4837
  129CHL1   C1815759   5.365   6.648   3.897 -0.2402 -0.3277  0.2552
  129CHL1  H18A15760   5.310   6.740   3.926  0.9183  0.6112 -0.4436
  129CHL1  H18B15761   5.443   6.613   3.969  1.0733  0.3942 -0.7820
  129CHL1  H18C15762   5.416   6.670   3.801  3.0378 -1.2759  1.6358
  129CHL1   C1215763   5.331   6.400   3.812  0.3063  0.1056 -0.6942
  129CHL1  H12A15764   5.404   6.358   3.884 -0.3063 -0.5165 -0.4333
  129CHL1  H12B15765   5.252   6.322   3.807 -0.1903  0.4343  1.2197
  129CHL1   C1115766   5.396   6.414   3.674 -0.8095  0.2194 -0.2022
  129CHL1  H11A15767   5.480   6.484   3.691 -0.4060  0.0610 -1.4003
  129CHL1  H11B15768   5.435   6.312   3.655 -0.5140 -0.3002  2.7711
  129CHL1    C915769   5.302   6.478   3.567  0.6591 -0.2114 -0.0286
  129CHL1    H915770   5.233   6.396   3.540 -0.5011  0.6129  0.3645
  129CHL1   C1015771   5.375   6.512   3.435 -0.3956 -0.2848  0.3398
  129CHL1   C1915772   5.500   6.607   3.459  0.1245  0.1117  0.0580
  129CHL1  H19A15773   5.552   6.619   3.361  0.3722 -0.2131  0.1466
  129CHL1  H19B15774   5.490   6.701   3.516 -0.2814  0.1119 -0.0139
  129CHL1  H19C15775   5.567   6.540   3.516  0.0578  0.5943  0.7091
  129CHL1    C115776   5.417   6.383   3.358 -0.0354  0.0651  0.4569
  129CHL1   H1A15777   5.499   6.341   3.420  0.8676  0.6207 -0.3283
  129CHL1   H1B15778   5.326   6.320   3.365 -0.8424  0.7962 -2.1514
  129CHL1    C215779   5.458   6.387   3.204  0.3994  0.2097 -0.5939
  129CHL1   H2A15780   5.483   6.287   3.164 -3.6377 -1.1541 -0.0965
  129CHL1   H2B15781   5.546   6.455   3.193  0.3956  0.0514 -1.6056
  129CHL1   C2015782   5.229   6.534   4.132 -0.5106 -0.1090  0.0565
  129CHL1   H2015783   5.285   6.629   4.133 -0.6206 -0.0489  0.4580
  129CHL1   C2115784   5.333   6.419   4.139  1.1072 -0.4133 -0.4995
  129CHL1  H21A15785   5.419   6.439   4.072  1.6777 -2.7299 -0.5381
  129CHL1  H21B15786   5.287   6.322   4.114 -1.1478  0.8855 -1.6765
  129CHL1  H21C15787   5.369   6.399   4.243 -1.8814 -3.5913  0.1065
  129CHL1   C2215788   5.137   6.535   4.247 -0.2864 -0.0642 -0.4348
  129CHL1  H22A15789   5.069   6.621   4.228  2.8945  2.4609 -1.3757
  129CHL1  H22B15790   5.076   6.443   4.253 -0.0257 -0.2109 -0.0642
  129CHL1   C2315791   5.193   6.560   4.380 -0.5358 -0.3318 -0.2679
  129CHL1  H23A15792   5.227   6.463   4.423 -1.9991 -0.7661 -0.0594
  129CHL1  H23B15793   5.272   6.638   4.378 -0.6047 -0.2684 -0.9833
  129CHL1   C2415794   5.090   6.625   4.482 -0.6379  1.1437  0.3344
  129CHL1  H24A15795   5.058   6.726   4.446  0.1813  2.0394  2.0150
  129CHL1  H24B15796   5.000   6.560   4.480  1.2103 -1.5662  0.0881
  129CHL1   C2515797   5.140   6.625   4.625 -0.0109 -1.0779  0.3665
  129CHL1   H2515798   5.202   6.540   4.661  3.0772  1.1199  0.6530
  129CHL1   C2615799   5.229   6.750   4.651  0.0489 -0.4910 -0.4414
  129CHL1  H26A15800   5.184   6.847   4.621 -0.0588 -1.1606 -2.5947
  129CHL1  H26B15801   5.264   6.755   4.757 -1.7750  0.6464  0.1424
  129CHL1  H26C15802   5.317   6.748   4.583 -0.6096 -0.6513 -1.2959
  129CHL1   C2715803   5.020   6.627   4.725 -0.5557 -0.1234 -0.2848
  129CHL1  H27A15804   4.975   6.526   4.725  0.3356 -0.5878  2.0449
  129CHL1  H27B15805   5.057   6.647   4.828 -1.4090  0.5190 -0.0920
  129CHL1  H27C15806   4.944   6.701   4.691 -0.9317 -0.2145  0.3510
  130CHL1    C315807   2.553   7.160   3.334 -0.4006  0.3449 -0.5085
  130CHL1    H315808   2.641   7.095   3.353  0.7539  1.7376 -0.9477
  130CHL1    O315809   2.550   7.190   3.196  0.1111  0.2954 -0.4119
  130CHL1   H3'15810   2.523   7.107   3.155 -0.4862  0.9436 -1.3430
  130CHL1    C415811   2.420   7.088   3.377 -0.0094 -0.8508 -0.1277
  130CHL1   H4A15812   2.342   7.162   3.348  0.3212 -0.7111 -0.6742
  130CHL1   H4B15813   2.402   7.003   3.308  0.5013  0.8521 -2.4595
  130CHL1    C515814   2.402   7.068   3.522 -0.4129  0.3322 -0.8255
  130CHL1    C615815   2.383   6.944   3.563 -0.5723  0.1883  0.8081
  130CHL1    H615816   2.367   6.865   3.488  0.2024  1.6369 -0.9485
  130CHL1    C715817   2.364   6.901   3.699  0.8084  0.1591 -0.0487
  130CHL1   H7A15818   2.293   6.817   3.714 -1.0232  1.5475 -0.5774
  130CHL1   H7B15819   2.461   6.872   3.744  0.4013 -1.2359 -0.0022
  130CHL1    C815820   2.337   7.017   3.788 -0.1392 -0.1373  0.5209
  130CHL1    H815821   2.236   7.060   3.772 -0.3046 -0.8768 -0.5209
  130CHL1   C1415822   2.344   6.977   3.928 -0.7570  0.0094 -1.1404
  130CHL1   H1415823   2.451   6.950   3.936 -0.9534 -0.0762  2.5562
  130CHL1   C1515824   2.258   6.852   3.973 -0.0507 -0.4063  0.5367
  130CHL1  H15A15825   2.150   6.862   3.950  0.3576 -0.3561 -1.6191
  130CHL1  H15B15826   2.297   6.758   3.929 -2.0140 -0.3741 -1.4225
  130CHL1   C1615827   2.281   6.859   4.122  0.4899 -0.2839 -0.0619
  130CHL1  H16A15828   2.184   6.853   4.176 -0.0484 -0.0041 -0.9750
  130CHL1  H16B15829   2.333   6.766   4.153  0.3229 -0.4201 -0.1912
  130CHL1   C1715830   2.352   6.996   4.160 -0.8063 -0.0298 -0.3602
  130CHL1   H1715831   2.459   6.968   4.165 -0.2749  1.7519 -0.9344
  130CHL1   C1315832   2.345   7.087   4.038 -0.1196 -0.6901 -0.0402
  130CHL1   C1815833   2.200   7.139   4.033  0.0814 -0.4043  0.2606
  130CHL1  H18A15834   2.129   7.055   4.048  1.3322 -1.0930  2.9473
  130CHL1  H18B15835   2.189   7.218   4.111  1.5422  1.3199 -1.1839
  130CHL1  H18C15836   2.179   7.192   3.938  0.4393 -0.9030 -0.0995
  130CHL1   C1215837   2.456   7.190   4.014  0.4792  0.8275 -0.1340
  130CHL1  H12A15838   2.435   7.274   4.083 -0.8569  0.8861 -0.5932
  130CHL1  H12B15839   2.555   7.142   4.036  0.0886 -0.0212 -0.1779
  130CHL1   C1115840   2.439   7.247   3.873 -0.1043  0.4300  0.2822
  130CHL1  H11A15841   2.343   7.303   3.866 -1.0135 -0.6571  2.8846
  130CHL1  H11B15842   2.514   7.329   3.873 -1.5700  1.8453 -1.6071
  130CHL1    C915843   2.444   7.132   3.759 -0.0139  0.1196 -0.5888
  130CHL1    H915844   2.544   7.088   3.777  0.1936  1.7084  3.0911
  130CHL1   C1015845   2.437   7.181   3.618  0.3345  0.5554  0.0970
  130CHL1   C1915846   2.326   7.294   3.606 -0.5232  0.3199 -0.2396
  130CHL1  H19A15847   2.310   7.322   3.500 -0.5138  0.3809 -0.2248
  130CHL1  H19B15848   2.228   7.270   3.651  0.3874 -0.3577  1.4656
  130CHL1  H19C15849   2.365   7.388   3.651  1.8127  0.3400 -2.0970
  130CHL1    C115850   2.581   7.242   3.569  0.6417 -0.0810 -0.9061
  130CHL1   H1A15851   2.617   7.326   3.632  1.1450 -1.9583  1.4163
  130CHL1   H1B15852   2.644   7.152   3.577 -0.0557 -0.5026 -0.0178
  130CHL1    C215853   2.599   7.280   3.422  0.8337 -0.4398 -0.3575
  130CHL1   H2A15854   2.705   7.307   3.402  0.4444  1.0548 -0.5642
  130CHL1   H2B15855   2.529   7.364   3.399 -0.2401 -0.2575  3.0219
  130CHL1   C2015856   2.317   7.037   4.305  0.1759 -0.2682  0.2015
  130CHL1   H2015857   2.216   7.083   4.307 -0.7148 -1.5326 -4.2156
  130CHL1   C2115858   2.397   7.159   4.350  0.2205  0.2777 -0.7841
  130CHL1  H21A15859   2.497   7.127   4.388 -1.0268 -2.7756  0.2691
  130CHL1  H21B15860   2.342   7.195   4.440 -1.3017 -2.1557 -0.6522
  130CHL1  H21C15861   2.395   7.244   4.280 -1.6467  1.6985  0.8721
  130CHL1   C2215862   2.326   6.919   4.404 -0.0093  0.0259 -0.4584
  130CHL1  H22A15863   2.248   6.842   4.383 -0.2792 -0.0721  0.7972
  130CHL1  H22B15864   2.430   6.880   4.396  0.0454 -0.0281  0.3852
  130CHL1   C2315865   2.285   6.956   4.548 -0.1321 -0.3706  0.3529
  130CHL1  H23A15866   2.358   7.026   4.594 -0.2904  0.1914 -0.2382
  130CHL1  H23B15867   2.189   7.011   4.533  0.7333  1.3514  0.8454
  130CHL1   C2415868   2.278   6.839   4.636  0.4912  0.8787  0.0632
  130CHL1  H24A15869   2.202   6.770   4.594  1.6481 -1.7179  1.9504
  130CHL1  H24B15870   2.369   6.774   4.629 -1.9787 -2.8658 -0.4248
  130CHL1   C2515871   2.254   6.859   4.785 -0.2657 -1.2553  0.4085
  130CHL1   H2515872   2.187   6.945   4.802  1.4464  0.4862 -1.1533
  130CHL1   C2615873   2.178   6.738   4.840  0.4226 -0.2819 -0.6249
  130CHL1  H26A15874   2.078   6.742   4.792  0.5101  1.5328 -0.6920
  130CHL1  H26B15875   2.229   6.642   4.817 -0.6299 -1.3364  1.0972
  130CHL1  H26C15876   2.165   6.741   4.951  2.4342 -2.8998 -0.2219
  130CHL1   C2715877   2.380   6.896   4.871  0.3841  0.7692 -0.1728
  130CHL1  H27A15878   2.450   6.812   4.855  2.1967  2.3557 -0.9384
  130CHL1  H27B15879   2.437   6.982   4.828  1.2450  1.7839  2.7863
  130CHL1  H27C15880   2.349   6.924   4.974 -1.5284  0.3442 -0.5928
  131CHL1    C315881   1.166   5.806   3.351  0.3381 -0.4109 -0.4021
  131CHL1    H315882   1.172   5.916   3.366  0.5818 -0.5933  0.9540
  131CHL1    O315883   1.143   5.785   3.213  0.1355 -0.3242 -0.4806
  131CHL1   H3'15884   1.054   5.816   3.197  0.1814 -0.0428 -0.2004
  131CHL1    C415885   1.304   5.739   3.394 -0.1270 -0.3146 -0.1037
  131CHL1   H4A15886   1.301   5.629   3.382  0.1521 -0.3993  0.5828
  131CHL1   H4B15887   1.378   5.781   3.322  0.5195  0.4038  0.9614
  131CHL1    C515888   1.333   5.769   3.535  0.3249 -0.2630  0.1955
  131CHL1    C615889   1.449   5.833   3.571 -0.1017  0.3094 -0.3115
  131CHL1    H615890   1.522   5.864   3.495 -0.3138  1.7056  0.0208
  131CHL1    C715891   1.478   5.870   3.717  0.4091  0.4510 -0.2008
  131CHL1   H7A15892   1.585   5.847   3.738  0.8509  1.6278 -1.0752
  131CHL1   H7B15893   1.472   5.981   3.713 -1.9977  0.3553 -0.2196
  131CHL1    C815894   1.387   5.807   3.826 -0.3605 -0.0776 -0.3001
  131CHL1    H815895   1.416   5.700   3.838  0.7150 -0.0166 -2.0253
  131CHL1   C1415896   1.392   5.882   3.961 -0.0326  0.2577  0.0053
  131CHL1   H1415897   1.345   5.980   3.939 -2.1806 -0.3618  1.5558
  131CHL1   C1515898   1.519   5.920   4.037 -0.7098 -0.5003  0.3408
  131CHL1  H15A15899   1.588   5.832   4.035 -0.6052 -0.5823 -4.5849
  131CHL1  H15B15900   1.573   6.005   3.991 -1.9795 -0.6264 -1.4943
  131CHL1   C1615901   1.480   5.953   4.178 -0.1561  0.1267 -0.9160
  131CHL1  H16A15902   1.538   5.889   4.249 -2.2169  0.1343  0.8670
  131CHL1  H16B15903   1.491   6.061   4.198  1.9473 -0.1538 -0.2388
  131CHL1   C1715904   1.323   5.923   4.183  0.1810 -1.4726  0.3252
  131CHL1   H1715905   1.279   6.021   4.156 -0.6709 -1.4916  1.5526
  131CHL1   C1315906   1.302   5.826   4.065  0.3974  0.2492 -0.1555
  131CHL1   C1815907   1.341   5.685   4.110 -0.7731  0.0301 -0.4960
  131CHL1  H18A15908   1.446   5.688   4.148 -1.2586 -0.2892  0.9332
  131CHL1  H18B15909   1.278   5.641   4.190  0.8436  0.3128  1.0005
  131CHL1  H18C15910   1.342   5.602   4.035  0.2644  0.7790 -1.3494
  131CHL1   C1215911   1.155   5.827   4.011 -0.1243 -1.2277  0.0456
  131CHL1  H12A15912   1.099   5.778   4.094 -3.6243  0.5219 -1.0899
  131CHL1  H12B15913   1.120   5.931   3.998  2.6182 -0.1765  0.4480
  131CHL1   C1115914   1.149   5.751   3.886 -0.0053  0.3341 -0.2296
  131CHL1  H11A15915   1.177   5.645   3.904 -2.5105 -0.5675 -1.3039
  131CHL1  H11B15916   1.042   5.744   3.859  0.4673 -0.0985 -2.1250
  131CHL1    C915917   1.240   5.808   3.776  0.0807  0.2942 -0.3665
  131CHL1    H915918   1.231   5.917   3.760  0.8531  0.1085 -2.3407
  131CHL1   C1015919   1.220   5.735   3.635 -1.0862  0.4396  0.3187
  131CHL1   C1915920   1.225   5.583   3.641 -0.1840  0.2314  0.0260
  131CHL1  H19A15921   1.325   5.543   3.668 -1.0635 -2.5586 -0.4675
  131CHL1  H19B15922   1.145   5.549   3.710 -0.8320  0.7444 -0.4696
  131CHL1  H19C15923   1.201   5.540   3.541 -2.6381  2.1407 -0.3029
  131CHL1    C115924   1.085   5.783   3.586  0.1200  0.1320  0.0008
  131CHL1   H1A15925   1.014   5.741   3.661  1.2683  1.6184  2.0242
  131CHL1   H1B15926   1.086   5.893   3.602 -0.4783  0.3651 -1.4452
  131CHL1    C215927   1.051   5.753   3.439 -0.1068 -0.4381 -0.1880
  131CHL1   H2A15928   0.960   5.806   3.403  1.4854  1.8112 -1.1212
  131CHL1   H2B15929   1.040   5.643   3.429 -2.2477 -0.3368  0.5681
  131CHL1   C2015930   1.261   5.889   4.317  0.1465  0.8449  0.5556
  131CHL1   H2015931   1.176   5.820   4.296  2.0106 -2.0100  1.7042
  131CHL1   C2115932   1.201   6.018   4.378  0.3627 -0.8000  0.0650
  131CHL1  H21A15933   1.144   5.988   4.469 -0.2607 -0.6251 -0.2656
  131CHL1  H21B15934   1.123   6.059   4.312 -0.6360 -1.6554  0.6893
  131CHL1  H21C15935   1.284   6.091   4.388 -0.8967  0.6370  0.2917
  131CHL1   C2215936   1.352   5.812   4.417 -0.5847 -0.0014  0.0562
  131CHL1  H22A15937   1.402   5.729   4.363  0.6625 -0.2277  1.4881
  131CHL1  H22B15938   1.428   5.880   4.460  1.6567 -0.9048 -2.2031
  131CHL1   C2315939   1.277   5.741   4.529  0.0989  0.2121 -0.4052
  131CHL1  H23A15940   1.235   5.818   4.599 -0.9811 -0.3594 -0.3997
  131CHL1  H23B15941   1.181   5.694   4.499  1.7726 -2.4285 -1.9754
  131CHL1   C2415942   1.362   5.633   4.595  0.4741 -0.3716  0.5821
  131CHL1  H24A15943   1.421   5.574   4.522  0.5115  0.3976 -0.0333
  131CHL1  H24B15944   1.429   5.682   4.669  1.2219  0.2692 -0.4753
  131CHL1   C2515945   1.291   5.533   4.682 -0.1071 -0.0264  0.4891
  131CHL1   H2515946   1.207   5.498   4.619  0.7985 -2.6763  0.6291
  131CHL1   C2615947   1.380   5.418   4.738  0.1287 -0.1481  0.3048
  131CHL1  H26A15948   1.334   5.326   4.780  2.1122 -0.6039  1.5894
  131CHL1  H26B15949   1.451   5.385   4.659  1.5005  0.7869  1.1176
  131CHL1  H26C15950   1.446   5.459   4.817  3.2109  0.8007 -2.5074
  131CHL1   C2715951   1.220   5.599   4.807 -0.2790  0.4010  0.0186
  131CHL1  H27A15952   1.301   5.638   4.872  3.1706 -4.1324 -1.0607
  131CHL1  H27B15953   1.137   5.668   4.782 -1.3661  0.7350  3.8852
  131CHL1  H27C15954   1.170   5.524   4.872  1.4869  0.0533  1.0456
  132CHL1    C315955   3.806   6.890   3.416 -0.3053 -0.0909  0.1895
  132CHL1    H315956   3.872   6.957   3.475  0.3845 -1.1808  0.6947
  132CHL1    O315957   3.851   6.896   3.280 -0.2812 -0.0831  0.0740
  132CHL1   H3'15958   3.779   6.847   3.240 -1.7942  0.9225  1.4479
  132CHL1    C415959   3.826   6.754   3.486  0.2968  0.1801 -0.4216
  132CHL1   H4A15960   3.799   6.677   3.410  0.4607 -0.5378  0.2346
  132CHL1   H4B15961   3.935   6.732   3.494  0.2305 -1.2554 -2.5706
  132CHL1    C515962   3.765   6.738   3.626  0.0111 -0.0898 -0.0921
  132CHL1    C615963   3.845   6.705   3.725  0.2900  0.1475 -0.4340
  132CHL1    H615964   3.952   6.689   3.705  0.4367  0.6447 -0.0682
  132CHL1    C715965   3.813   6.700   3.874 -0.0021 -0.0888  0.0967
  132CHL1   H7A15966   3.862   6.607   3.910  0.1918 -0.6468 -1.5116
  132CHL1   H7B15967   3.858   6.780   3.935  0.4484 -0.4531  0.2520
  132CHL1    C815968   3.662   6.706   3.894  0.2232 -0.5297 -0.1933
  132CHL1    H815969   3.627   6.604   3.867  0.6593 -0.4645 -1.0475
  132CHL1   C1415970   3.623   6.744   4.033 -0.2360  0.0583  0.1384
  132CHL1   H1415971   3.646   6.852   4.040  1.6279 -0.1118 -1.9285
  132CHL1   C1515972   3.709   6.672   4.142 -0.3626  0.2072 -0.3464
  132CHL1  H15A15973   3.705   6.562   4.127 -2.6551  0.1155  0.5360
  132CHL1  H15B15974   3.816   6.701   4.146  0.1987 -1.8146  0.5862
  132CHL1   C1615975   3.632   6.706   4.270 -0.1138 -0.5483 -0.8991
  132CHL1  H16A15976   3.617   6.610   4.326 -0.5185  2.2218  4.4537
  132CHL1  H16B15977   3.687   6.777   4.335  0.3531 -0.6067 -1.2254
  132CHL1   C1715978   3.486   6.746   4.233  0.1867  0.1916  0.5024
  132CHL1   H1715979   3.487   6.856   4.250  0.4197 -0.0437  2.1247
  132CHL1   C1315980   3.478   6.727   4.073  0.3679 -0.1798  0.0184
  132CHL1   C1815981   3.428   6.588   4.048 -0.4130  0.5352  0.3239
  132CHL1  H18A15982   3.439   6.563   3.940  0.5525 -0.2997  0.5992
  132CHL1  H18B15983   3.476   6.510   4.111  0.3995 -0.2951 -1.2632
  132CHL1  H18C15984   3.321   6.565   4.067 -0.4013  0.8353  0.7654
  132CHL1   C1215985   3.409   6.831   3.984 -0.5512  0.4770 -0.4961
  132CHL1  H12A15986   3.298   6.826   3.988 -0.5538  1.1767  0.6264
  132CHL1  H12B15987   3.449   6.929   4.019  0.6219 -0.0434 -0.3198
  132CHL1   C1115988   3.440   6.822   3.830  0.7423  0.4211 -0.5598
  132CHL1  H11A15989   3.378   6.733   3.804  1.6146 -0.7940  1.2103
  132CHL1  H11B15990   3.413   6.917   3.781 -0.7553  0.7985  0.9240
  132CHL1    C915991   3.592   6.805   3.793  0.1696 -0.5495 -0.2696
  132CHL1    H915992   3.638   6.900   3.828 -3.2898  0.4086  2.2374
  132CHL1   C1015993   3.621   6.797   3.642  0.5281  0.0738  0.4921
  132CHL1   C1915994   3.519   6.695   3.580 -0.8493 -0.2628  0.9088
  132CHL1  H19A15995   3.411   6.719   3.597 -1.8976 -1.5553 -2.9447
  132CHL1  H19B15996   3.538   6.680   3.472 -0.2472 -2.4531  1.2739
  132CHL1  H19C15997   3.537   6.597   3.630  0.3888 -0.0602  0.8778
  132CHL1    C115998   3.608   6.934   3.573  0.3281  0.5460 -0.0259
  132CHL1   H1A15999   3.500   6.956   3.568 -0.1110 -1.5469 -0.5239
  132CHL1   H1B16000   3.661   7.008   3.638  1.7530 -1.5999  1.3777
  132CHL1    C216001   3.665   6.944   3.422 -0.7958  0.8364  0.1275
  132CHL1   H2A16002   3.671   7.052   3.397  0.6036  1.2324  1.8875
  132CHL1   H2B16003   3.595   6.897   3.350  1.7848  0.3450 -2.2132
  132CHL1   C2016004   3.380   6.679   4.326 -0.3775  0.6739  0.6110
  132CHL1   H2016005   3.370   6.571   4.302 -1.4429  0.5772  1.4156
  132CHL1   C2116006   3.246   6.745   4.286  0.2336 -0.2309 -0.2847
  132CHL1  H21A16007   3.251   6.853   4.308 -1.8652 -0.3902  1.3336
  132CHL1  H21B16008   3.159   6.704   4.343  1.9986 -0.7877  2.1876
  132CHL1  H21C16009   3.216   6.724   4.181 -2.6213 -1.8685  0.7259
  132CHL1   C2216010   3.397   6.697   4.479 -0.5614 -0.3915  0.8475
  132CHL1  H22A16011   3.309   6.648   4.527 -2.8283 -0.0818 -2.6640
  132CHL1  H22B16012   3.491   6.642   4.502 -0.3267 -2.3798 -3.7276
  132CHL1   C2316013   3.410   6.840   4.524 -0.3702  0.0818 -0.0097
  132CHL1  H23A16014   3.479   6.899   4.459 -1.6171  2.0903  0.3781
  132CHL1  H23B16015   3.311   6.891   4.518 -0.3744 -0.0581 -1.4670
  132CHL1   C2416016   3.459   6.861   4.669  0.0486  0.3875 -0.6231
  132CHL1  H24A16017   3.552   6.800   4.671 -2.2533 -3.4878 -1.3555
  132CHL1  H24B16018   3.473   6.968   4.694  0.0389  0.8264 -2.3713
  132CHL1   C2516019   3.372   6.794   4.783  0.6355 -0.3790  0.0460
  132CHL1   H2516020   3.356   6.685   4.766  1.3349 -0.2941 -1.2506
  132CHL1   C2616021   3.441   6.808   4.919 -0.7324 -0.4985 -0.2676
  132CHL1  H26A16022   3.462   6.914   4.946 -3.5293 -0.0873  0.6948
  132CHL1  H26B16023   3.376   6.750   4.989 -0.4798 -2.4736 -1.5817
  132CHL1  H26C16024   3.543   6.765   4.912 -0.8005 -0.6832 -0.1215
  132CHL1   C2716025   3.223   6.852   4.787 -0.1202 -0.0438  0.5271
  132CHL1  H27A16026   3.177   6.821   4.884 -0.3954  0.2915  0.5049
  132CHL1  H27B16027   3.220   6.962   4.774  0.0878  0.1332  1.8473
  132CHL1  H27C16028   3.168   6.811   4.699  0.5768 -1.1598  0.5894
  133CHL1    C316029   1.254   1.828   3.306  0.5113 -0.3410  0.1434
  133CHL1    H316030   1.199   1.743   3.353  0.9346 -0.8069 -0.1907
  133CHL1    O316031   1.244   1.820   3.166 -0.1128  0.1387 -0.2164
  133CHL1   H3'16032   1.157   1.850   3.137  0.5350  0.8721 -1.4502
  133CHL1    C416033   1.198   1.967   3.336 -0.2883 -0.0371  0.3937
  133CHL1   H4A16034   1.246   2.049   3.278 -0.0817  2.4648  3.8297
  133CHL1   H4B16035   1.089   1.965   3.311  0.0339 -0.8959 -1.1043
  133CHL1    C516036   1.226   1.994   3.483  0.3897  0.4444  0.4096
  133CHL1    C616037   1.121   2.042   3.556  0.1703  0.0293  0.5134
  133CHL1    H616038   1.027   2.060   3.502  0.1924 -0.6847  0.2319
  133CHL1    C716039   1.141   2.067   3.705  0.4845  0.1428  0.1674
  133CHL1   H7A16040   1.085   2.158   3.738  1.1380 -0.0986  2.1049
  133CHL1   H7B16041   1.097   1.981   3.759 -0.1508  0.2491 -0.1618
  133CHL1    C816042   1.281   2.084   3.762  0.7071 -0.5178  0.2260
  133CHL1    H816043   1.315   2.187   3.740  0.1832 -0.7036 -1.6187
  133CHL1   C1416044   1.279   2.070   3.913  0.4729  0.2851  0.0110
  133CHL1   H1416045   1.241   1.968   3.937 -1.5568  1.2926  1.4351
  133CHL1   C1516046   1.186   2.163   3.993 -0.9795  0.0010  0.4523
  133CHL1  H15A16047   1.188   2.271   3.969  0.6918  0.4536  2.3401
  133CHL1  H15B16048   1.082   2.124   3.991 -1.2132  0.6340 -0.2991
  133CHL1   C1616049   1.244   2.154   4.133 -0.5215  0.5096 -0.0762
  133CHL1  H16A16050   1.260   2.256   4.176  1.7271 -0.2790  1.1058
  133CHL1  H16B16051   1.171   2.101   4.198  0.3442 -0.4645  0.1249
  133CHL1   C1716052   1.377   2.072   4.124 -1.0090 -0.3012  0.0927
  133CHL1   H1716053   1.357   1.965   4.145  3.1904 -1.1000  0.8216
  133CHL1   C1316054   1.422   2.076   3.974  0.1596  0.0237  0.3399
  133CHL1   C1816055   1.482   2.213   3.942  0.1841  0.5045 -0.2090
  133CHL1  H18A16056   1.580   2.230   3.992  0.2088  0.0051 -0.0794
  133CHL1  H18B16057   1.496   2.223   3.833  0.2234  0.0977 -0.2414
  133CHL1  H18C16058   1.412   2.293   3.974 -2.1794 -0.7147 -2.0063
  133CHL1   C1216059   1.512   1.957   3.922  0.4325 -0.0458  0.0050
  133CHL1  H12A16060   1.617   1.976   3.954 -0.3634  0.5757  2.4583
  133CHL1  H12B16061   1.467   1.864   3.962 -1.4615  0.8426  0.0326
  133CHL1   C1116062   1.510   1.962   3.767  0.3298 -0.1619  0.4799
  133CHL1  H11A16063   1.572   2.047   3.730  0.1587 -0.1768  0.1627
  133CHL1  H11B16064   1.551   1.862   3.742 -0.0737 -0.5145  1.1923
  133CHL1    C916065   1.369   1.969   3.700 -0.2252  0.0557 -0.3910
  133CHL1    H916066   1.317   1.877   3.733  0.0562 -0.3287 -1.0148
  133CHL1   C1016067   1.366   1.967   3.542  0.0914 -0.2343  0.3656
  133CHL1   C1916068   1.456   2.081   3.480  1.0964  0.0499 -0.2780
  133CHL1  H19A16069   1.461   2.062   3.371 -1.6321  1.4033 -0.7332
  133CHL1  H19B16070   1.411   2.182   3.486 -1.0196 -0.8474 -0.3522
  133CHL1  H19C16071   1.558   2.087   3.524  0.1106 -0.7872  2.2879
  133CHL1    C116072   1.423   1.828   3.499  0.3840  0.0873  0.3114
  133CHL1   H1A16073   1.531   1.812   3.520 -0.0152 -1.5766  1.2777
  133CHL1   H1B16074   1.367   1.757   3.564  2.0095  1.1243  3.0017
  133CHL1    C216075   1.398   1.805   3.342  0.3547 -0.5774 -0.0364
  133CHL1   H2A16076   1.438   1.709   3.304  1.2260 -1.0469  1.9412
  133CHL1   H2B16077   1.460   1.883   3.292 -1.8577  1.5299  0.3400
  133CHL1   C2016078   1.472   2.121   4.229  0.2162 -0.5029  0.7266
  133CHL1   H2016079   1.495   2.225   4.198  0.6692 -0.8057  0.0318
  133CHL1   C2116080   1.609   2.043   4.238 -0.1025 -0.7066 -0.8530
  133CHL1  H21A16081   1.662   2.066   4.333 -2.5245  0.4224  0.3221
  133CHL1  H21B16082   1.668   2.076   4.150  1.9874  1.2529  1.1368
  133CHL1  H21C16083   1.595   1.934   4.254 -2.8867 -0.1529  1.3529
  133CHL1   C2216084   1.412   2.129   4.372 -0.4364  0.2803  0.9242
  133CHL1  H22A16085   1.489   2.159   4.447 -0.1273 -0.1882  0.7972
  133CHL1  H22B16086   1.338   2.212   4.377  0.5237  1.3755 -1.6659
  133CHL1   C2316087   1.342   1.997   4.426 -0.0652  0.7210  0.0409
  133CHL1  H23A16088   1.272   1.965   4.347 -0.6384 -0.9145  1.1561
  133CHL1  H23B16089   1.423   1.921   4.431 -0.6622  0.0637 -0.0677
  133CHL1   C2416090   1.270   2.010   4.557  0.0469 -0.1362 -0.9500
  133CHL1  H24A16091   1.341   2.057   4.628 -0.7434  0.9046 -0.8360
  133CHL1  H24B16092   1.186   2.078   4.534 -0.2923 -0.6381 -1.2160
  133CHL1   C2516093   1.206   1.891   4.637  0.1778  0.8162  0.8148
  133CHL1   H2516094   1.134   1.832   4.576  0.4701  0.9353  0.3490
  133CHL1   C2616095   1.316   1.799   4.696 -0.2438 -0.7807  0.5083
  133CHL1  H26A16096   1.380   1.763   4.613 -1.2122 -1.7067  0.1458
  133CHL1  H26B16097   1.380   1.853   4.769 -0.9471  0.6582  0.0865
  133CHL1  H26C16098   1.262   1.714   4.743 -1.7567  0.0906  0.4043
  133CHL1   C2716099   1.129   1.962   4.757 -0.1995 -0.0587  0.8031
  133CHL1  H27A16100   1.038   2.007   4.711  0.9135 -0.3052 -1.7962
  133CHL1  H27B16101   1.096   1.894   4.839  0.1309  1.6695  2.4419
  133CHL1  H27C16102   1.196   2.037   4.803  2.9432 -2.8261  1.0581
  134CHL1    C316103   7.050   1.974   3.286 -0.5459  0.2149 -0.6979
  134CHL1    H316104   7.009   2.077   3.291 -0.0279  0.4135 -0.4239
  134CHL1    O316105   7.012   1.920   3.160  0.2928  0.3376  0.4904
  134CHL1   H3'16106   7.069   1.966   3.098  0.1397  2.3782  1.7590
  134CHL1    C416107   7.206   1.978   3.284 -0.6121 -0.4185 -0.6035
  134CHL1   H4A16108   7.231   1.871   3.266 -0.8760 -0.2447 -2.1833
  134CHL1   H4B16109   7.241   2.040   3.198 -4.6049  1.6918 -0.9180
  134CHL1    C516110   7.266   2.010   3.419  0.2636 -0.1033 -0.2574
  134CHL1    C616111   7.350   2.113   3.419 -0.2771  0.2216 -0.1406
  134CHL1    H616112   7.385   2.170   3.332 -0.6944  2.3039  1.0058
  134CHL1    C716113   7.411   2.165   3.544  0.0016  0.2534 -0.1019
  134CHL1   H7A16114   7.517   2.192   3.529  0.7872 -2.0151  0.9411
  134CHL1   H7B16115   7.352   2.257   3.566 -1.2233 -0.4040 -0.5745
  134CHL1    C816116   7.387   2.071   3.668 -0.2015  0.0685 -0.2531
  134CHL1    H816117   7.467   1.995   3.660  0.9126  1.1494  0.4070
  134CHL1   C1416118   7.402   2.149   3.795 -0.3919  0.3173  0.1516
  134CHL1   H1416119   7.320   2.223   3.783 -1.4113 -1.1551 -2.8725
  134CHL1   C1516120   7.533   2.232   3.813 -0.1645 -0.1540 -0.3635
  134CHL1  H15A16121   7.620   2.170   3.781 -0.3552 -1.1654  1.0047
  134CHL1  H15B16122   7.533   2.330   3.761  1.6850  1.5925  2.6527
  134CHL1   C1616123   7.533   2.265   3.967 -0.4289 -0.4551 -0.1006
  134CHL1  H16A16124   7.631   2.227   4.004 -0.1601  2.9307  3.2447
  134CHL1  H16B16125   7.524   2.371   3.999 -1.6983 -0.4566 -0.3764
  134CHL1   C1716126   7.414   2.199   4.030  0.5192  0.0210 -0.8169
  134CHL1   H1716127   7.328   2.268   4.021  0.2277 -0.3032 -0.5127
  134CHL1   C1316128   7.385   2.079   3.931  0.2292  0.5950 -0.0796
  134CHL1   C1816129   7.491   1.969   3.948  0.0280 -0.6501 -0.1910
  134CHL1  H18A16130   7.593   2.009   3.964 -0.9351  1.6170  0.6799
  134CHL1  H18B16131   7.463   1.903   4.033 -2.4893  0.9358  0.3071
  134CHL1  H18C16132   7.496   1.912   3.853  2.6308 -1.6092  0.4333
  134CHL1   C1216133   7.237   2.020   3.928 -0.2950  0.3959 -0.4876
  134CHL1  H12A16134   7.212   1.950   4.011 -0.4167 -1.0238 -1.6960
  134CHL1  H12B16135   7.163   2.103   3.936 -0.1798  0.3056  2.5890
  134CHL1   C1116136   7.222   1.938   3.799  0.0224  0.1908  0.6021
  134CHL1  H11A16137   7.287   1.848   3.804  0.9552  0.6918 -1.7037
  134CHL1  H11B16138   7.119   1.897   3.791  0.1321  0.3149 -2.6471
  134CHL1    C916139   7.251   2.011   3.670 -0.3921  0.4570 -0.5395
  134CHL1    H916140   7.176   2.092   3.672 -0.8755  0.0278 -0.9318
  134CHL1   C1016141   7.218   1.927   3.540  0.2632 -0.4357  0.6223
  134CHL1   C1916142   7.279   1.785   3.540 -0.2857  0.4500  0.2537
  134CHL1  H19A16143   7.244   1.722   3.456  1.7163  0.5031 -0.6869
  134CHL1  H19B16144   7.389   1.781   3.550 -0.2710 -1.9532 -0.2855
  134CHL1  H19C16145   7.242   1.724   3.625 -2.1064  1.3211  0.1511
  134CHL1    C116146   7.056   1.928   3.529 -0.3089 -0.2362 -0.5182
  134CHL1   H1A16147   7.003   1.877   3.612  0.9402  0.2898  0.6481
  134CHL1   H1B16148   7.024   2.032   3.549  0.6376 -0.3192  1.7684
  134CHL1    C216149   6.992   1.883   3.396 -0.0429  0.1462 -0.0338
  134CHL1   H2A16150   6.881   1.889   3.397 -0.1191 -0.3675 -1.6461
  134CHL1   H2B16151   7.033   1.781   3.375  0.6440  0.1069  1.3839
  134CHL1   C2016152   7.416   2.155   4.179  0.4705 -0.3469 -0.5035
  134CHL1   H2016153   7.460   2.054   4.194 -0.9535 -1.0368 -0.7865
  134CHL1   C2116154   7.274   2.145   4.238  0.0614  0.0202  0.0139
  134CHL1  H21A16155   7.220   2.238   4.211  1.1105  1.2398  1.9287
  134CHL1  H21B16156   7.282   2.144   4.349 -2.9609  0.1813  0.3372
  134CHL1  H21C16157   7.228   2.055   4.191  1.8342 -0.6482 -0.5366
  134CHL1   C2216158   7.510   2.250   4.267 -0.4578 -0.3025  0.0440
  134CHL1  H22A16159   7.573   2.318   4.205 -2.8631  0.2129 -2.0012
  134CHL1  H22B16160   7.440   2.312   4.327  1.5466  2.9391 -0.6958
  134CHL1   C2316161   7.600   2.168   4.352  0.2401 -0.2822  0.0613
  134CHL1  H23A16162   7.529   2.111   4.416  0.7418  0.0219  0.8970
  134CHL1  H23B16163   7.650   2.090   4.290 -0.4774  0.8974 -2.1191
  134CHL1   C2416164   7.693   2.256   4.436 -0.0832 -0.2266  0.4445
  134CHL1  H24A16165   7.783   2.198   4.468  0.9219  1.2420  0.3991
  134CHL1  H24B16166   7.742   2.330   4.370  0.2820  0.0218  0.9767
  134CHL1   C2516167   7.625   2.330   4.546 -0.0307 -0.6543 -0.4392
  134CHL1   H2516168   7.551   2.392   4.491  1.2208  1.3039  0.0063
  134CHL1   C2616169   7.569   2.236   4.651 -0.6460 -0.4141  0.3799
  134CHL1  H26A16170   7.657   2.178   4.686  0.7028  0.6842 -1.0635
  134CHL1  H26B16171   7.509   2.292   4.727  0.6364  2.1377 -0.3890
  134CHL1  H26C16172   7.498   2.165   4.604 -0.3818  0.4630 -1.4118
  134CHL1   C2716173   7.724   2.434   4.609 -0.7145  0.5851  0.3144
  134CHL1  H27A16174   7.810   2.383   4.657  0.4430  2.5879  0.4877
  134CHL1  H27B16175   7.759   2.497   4.524 -1.1925 -2.3725 -2.2629
  134CHL1  H27C16176   7.680   2.501   4.686 -0.1151  0.6697  0.5911
  135CHL1    C316177   7.629   3.094   3.244 -0.4949  0.3588 -0.0550
  135CHL1    H316178   7.738   3.080   3.258 -0.3546  1.0846 -0.3672
  135CHL1    O316179   7.628   3.137   3.109  0.1337  0.0846  0.0708
  135CHL1   H3'16180   7.608   3.230   3.124  0.1616 -0.0417  0.9410
  135CHL1    C416181   7.553   2.956   3.250 -0.6206 -0.2448  0.0251
  135CHL1   H4A16182   7.455   2.964   3.198 -0.1198  1.0139 -0.7754
  135CHL1   H4B16183   7.616   2.889   3.187  1.4678  0.1856  1.5447
  135CHL1    C516184   7.549   2.920   3.400  0.1756  0.1661  0.4876
  135CHL1    C616185   7.598   2.804   3.444  0.1770  0.8014  0.4288
  135CHL1    H616186   7.653   2.745   3.369 -0.2953  1.1007 -0.1680
  135CHL1    C716187   7.610   2.754   3.582  0.0392 -0.9956  0.2811
  135CHL1   H7A16188   7.603   2.643   3.590  1.3945 -1.1367 -0.1927
  135CHL1   H7B16189   7.708   2.787   3.623  0.6149 -2.3367  0.0518
  135CHL1    C816190   7.503   2.829   3.662  0.2940  1.1117  0.6365
  135CHL1    H816191   7.407   2.786   3.629  0.8457 -0.4023  0.9468
  135CHL1   C1416192   7.516   2.806   3.812 -0.0443  0.5959  0.4739
  135CHL1   H1416193   7.608   2.855   3.849  0.2642  0.5216 -0.1849
  135CHL1   C1516194   7.542   2.656   3.853  0.6990 -0.5804  0.3209
  135CHL1  H15A16195   7.472   2.591   3.796 -0.0136 -0.8775  1.5155
  135CHL1  H15B16196   7.649   2.626   3.842  0.6466 -0.6440 -0.0559
  135CHL1   C1616197   7.497   2.657   3.999  0.2255 -0.1716  0.2731
  135CHL1  H16A16198   7.424   2.574   4.003 -0.1536  0.0001 -1.8606
  135CHL1  H16B16199   7.578   2.635   4.072 -0.7953  1.7525  2.0934
  135CHL1   C1716200   7.448   2.796   4.040 -0.2763  0.1666  0.1719
  135CHL1   H1716201   7.535   2.860   4.067  0.6002  0.3293 -2.7132
  135CHL1   C1316202   7.405   2.854   3.902  0.2567  0.0331 -0.2145
  135CHL1   C1816203   7.266   2.790   3.866 -0.0143  0.5474 -0.5030
  135CHL1  H18A16204   7.192   2.830   3.938  3.2336  0.2366  3.4105
  135CHL1  H18B16205   7.232   2.820   3.765 -1.3929  1.8915  0.3036
  135CHL1  H18C16206   7.272   2.680   3.879 -2.1651  0.3357 -0.9794
  135CHL1   C1216207   7.406   3.011   3.881  0.1814 -0.5513 -0.3254
  135CHL1  H12A16208   7.322   3.056   3.939 -0.0761  0.6798 -1.6060
  135CHL1  H12B16209   7.504   3.053   3.910 -0.5284  3.0966 -2.5683
  135CHL1   C1116210   7.382   3.037   3.735 -0.0702 -0.3553  0.4010
  135CHL1  H11A16211   7.286   2.997   3.695 -0.3783  2.0688 -1.5388
  135CHL1  H11B16212   7.376   3.147   3.721  0.0793 -0.5476 -1.3068
  135CHL1    C916213   7.495   2.983   3.644  0.3633  0.4573  0.1080
  135CHL1    H916214   7.591   3.023   3.683  0.7370  0.0752 -0.4086
  135CHL1   C1016215   7.476   3.027   3.495  0.5949 -0.1034 -0.3715
  135CHL1   C1916216   7.331   3.047   3.457 -0.2004 -0.8446  0.0152
  135CHL1  H19A16217   7.286   3.129   3.518  0.5184  0.3037 -0.9441
  135CHL1  H19B16218   7.317   3.073   3.350  0.1922  0.6225  0.2873
  135CHL1  H19C16219   7.285   2.948   3.474  0.8999 -1.5534 -1.0124
  135CHL1    C116220   7.555   3.159   3.482  0.3288 -0.4125 -0.9806
  135CHL1   H1A16221   7.496   3.240   3.530  0.0623 -0.3617 -1.3868
  135CHL1   H1B16222   7.654   3.159   3.531  0.9398  2.2905 -2.0323
  135CHL1    C216223   7.569   3.202   3.331  0.4429  0.3706 -0.4028
  135CHL1   H2A16224   7.624   3.297   3.315 -0.1932  1.5529  3.4784
  135CHL1   H2B16225   7.468   3.224   3.290  0.3773  0.1320 -0.3778
  135CHL1   C2016226   7.355   2.810   4.157 -0.7568  0.9231 -0.6859
  135CHL1   H2016227   7.251   2.781   4.130 -0.3262 -1.8452  0.2540
  135CHL1   C2116228   7.352   2.949   4.216  0.3406 -0.0641 -0.1178
  135CHL1  H21A16229   7.449   2.990   4.252 -0.5682  1.6193  0.5284
  135CHL1  H21B16230   7.297   2.944   4.313 -1.3344 -2.7052 -1.1180
  135CHL1  H21C16231   7.300   3.019   4.147  1.2146  1.2866  0.5543
  135CHL1   C2216232   7.392   2.709   4.268  0.2875 -0.1821 -0.2972
  135CHL1  H22A16233   7.394   2.607   4.225 -1.8082 -0.2937 -0.2145
  135CHL1  H22B16234   7.494   2.734   4.306  0.4076 -0.5146 -0.4008
  135CHL1   C2316235   7.286   2.702   4.373 -0.3166  0.2081 -0.7684
  135CHL1  H23A16236   7.302   2.783   4.448  1.1352  0.6837 -1.5612
  135CHL1  H23B16237   7.187   2.707   4.321 -0.4681 -1.9314 -0.7477
  135CHL1   C2416238   7.284   2.566   4.448  0.3564  0.6621  0.0346
  135CHL1  H24A16239   7.266   2.484   4.375  0.3318  1.1052 -0.4573
  135CHL1  H24B16240   7.379   2.556   4.505 -0.2507 -2.0328  0.7344
  135CHL1   C2516241   7.175   2.547   4.555 -0.0758 -0.3822  0.8064
  135CHL1   H2516242   7.198   2.631   4.624 -0.6614  0.6349 -0.2131
  135CHL1   C2616243   7.030   2.557   4.500  0.0144 -0.1177 -0.1955
  135CHL1  H26A16244   7.004   2.466   4.442  0.9385 -0.8806  0.5501
  135CHL1  H26B16245   6.960   2.560   4.586  0.1818 -0.0197 -0.0631
  135CHL1  H26C16246   7.006   2.647   4.439  1.9337  1.1629  0.8354
  135CHL1   C2716247   7.194   2.423   4.636 -0.4548  0.4686 -0.1468
  135CHL1  H27A16248   7.298   2.408   4.670 -0.4794  1.9183  0.6496
  135CHL1  H27B16249   7.116   2.416   4.715 -0.7922 -1.6324 -0.6064
  135CHL1  H27C16250   7.164   2.338   4.571  0.4709 -1.2577  1.5740
  136CHL1    C316251   5.845   0.160   3.252 -0.2102  0.2714  0.0511
  136CHL1    H316252   5.945   0.115   3.269  0.0297  1.0427  0.7411
  136CHL1    O316253   5.806   0.112   3.122 -0.0770 -0.2252 -0.1064
  136CHL1   H3'16254   5.749   0.040   3.149 -1.4232  1.5548  2.1864
  136CHL1    C416255   5.740   0.114   3.358 -0.7784  1.0478 -0.1037
  136CHL1   H4A16256   5.639   0.144   3.324 -0.5275  0.9573 -0.9605
  136CHL1   H4B16257   5.749   0.004   3.369  0.3149  0.9669 -1.5302
  136CHL1    C516258   5.767   0.175   3.494 -0.9869 -0.2497 -0.0413
  136CHL1    C616259   5.799   0.097   3.601 -0.1814  0.6901  0.2183
  136CHL1    H616260   5.808  -0.010   3.581 -0.4935  0.4613  1.2441
  136CHL1    C716261   5.825   0.145   3.738  0.0765  0.6255  0.3987
  136CHL1   H7A16262   5.760   0.094   3.811 -2.6356  0.9596 -1.6364
  136CHL1   H7B16263   5.933   0.146   3.764  0.0079 -1.0787  0.8248
  136CHL1    C816264   5.787   0.293   3.759 -0.0898  0.1034  0.3512
  136CHL1    H816265   5.676   0.287   3.766 -0.1916 -0.9412 -1.4019
  136CHL1   C1416266   5.839   0.344   3.893 -0.2713 -0.2148  0.0926
  136CHL1   H1416267   5.949   0.350   3.878 -0.1819 -0.9964  0.3845
  136CHL1   C1516268   5.795   0.259   4.016 -0.0735  0.1452 -0.4522
  136CHL1  H15A16269   5.688   0.231   4.011 -0.3486  0.8772  0.9435
  136CHL1  H15B16270   5.854   0.166   4.025 -1.2169 -0.5752 -0.2863
  136CHL1   C1616271   5.800   0.363   4.129  0.1127 -0.9850 -0.2194
  136CHL1  H16A16272   5.710   0.361   4.194 -0.4828 -0.8783 -1.0171
  136CHL1  H16B16273   5.880   0.334   4.200 -3.1269 -3.4483  2.7755
  136CHL1   C1716274   5.828   0.513   4.070  0.1918 -0.7655 -0.1327
  136CHL1   H1716275   5.938   0.522   4.079  0.1048 -1.7079  2.7127
  136CHL1   C1316276   5.793   0.491   3.923  0.1244  0.9751 -0.0943
  136CHL1   C1816277   5.640   0.494   3.923  1.1952 -0.3518  0.6073
  136CHL1  H18A16278   5.596   0.446   3.833 -0.8638  0.3106  1.2133
  136CHL1  H18B16279   5.586   0.436   4.001 -2.9996  0.5262 -1.3233
  136CHL1  H18C16280   5.595   0.595   3.926  1.6923 -0.0308 -1.4615
  136CHL1   C1216281   5.849   0.584   3.814  0.1149 -0.4358  0.2944
  136CHL1  H12A16282   5.821   0.691   3.825  2.1261 -0.0086  1.9178
  136CHL1  H12B16283   5.960   0.586   3.818  0.1102 -0.2180  0.3415
  136CHL1   C1116284   5.806   0.536   3.675 -0.3094  0.6019 -0.3654
  136CHL1  H11A16285   5.699   0.563   3.665 -0.7835 -0.8042  0.5325
  136CHL1  H11B16286   5.864   0.600   3.606  0.5899 -1.3281 -1.4813
  136CHL1    C916287   5.829   0.382   3.644  0.4755 -0.0924 -0.6707
  136CHL1    H916288   5.938   0.363   3.646  0.7415  1.1956  1.8248
  136CHL1   C1016289   5.775   0.330   3.505  0.4365 -0.2198  0.0566
  136CHL1   C1916290   5.628   0.390   3.485  0.5476  0.4320  0.8455
  136CHL1  H19A16291   5.570   0.388   3.580 -1.3746  1.9683 -0.2137
  136CHL1  H19B16292   5.631   0.497   3.456  0.6203 -0.2200 -1.7944
  136CHL1  H19C16293   5.570   0.350   3.399  0.7417  1.2036  0.3441
  136CHL1    C116294   5.873   0.379   3.389 -0.0716  0.8509  0.2526
  136CHL1   H1A16295   5.872   0.490   3.380  0.3934  0.9059  0.8297
  136CHL1   H1B16296   5.974   0.356   3.430 -0.9284 -0.1070  1.9254
  136CHL1    C216297   5.851   0.311   3.251  0.7247 -0.3674 -0.5572
  136CHL1   H2A16298   5.913   0.352   3.168  0.5475  1.5729  0.2183
  136CHL1   H2B16299   5.745   0.331   3.223  0.6386 -0.0461 -0.0123
  136CHL1   C2016300   5.754   0.614   4.154  0.0509  0.0766  0.4219
  136CHL1   H2016301   5.646   0.587   4.162 -0.2063  0.4891 -1.3228
  136CHL1   C2116302   5.770   0.751   4.084 -0.5520 -0.3664  0.2997
  136CHL1  H21A16303   5.750   0.841   4.146  2.6378 -0.2610  1.3842
  136CHL1  H21B16304   5.717   0.767   3.988 -1.6839  2.1242  1.2388
  136CHL1  H21C16305   5.877   0.752   4.054  0.1725 -0.7189  2.6501
  136CHL1   C2216306   5.806   0.639   4.298 -0.4262 -0.2588  0.0979
  136CHL1  H22A16307   5.732   0.711   4.340  0.9691  0.1978  1.8978
  136CHL1  H22B16308   5.787   0.545   4.353 -0.2845  0.4295  1.3687
  136CHL1   C2316309   5.948   0.672   4.325 -0.9392  0.6549 -0.0931
  136CHL1  H23A16310   6.011   0.590   4.286  1.9924  1.2991  2.8464
  136CHL1  H23B16311   5.975   0.758   4.260 -1.6449  1.4610  0.6579
  136CHL1   C2416312   5.992   0.708   4.472  0.4332 -0.3587  0.5195
  136CHL1  H24A16313   6.100   0.734   4.468  0.5753 -0.8726  0.9164
  136CHL1  H24B16314   5.927   0.791   4.508  0.2411  0.5951 -1.8287
  136CHL1   C2516315   6.007   0.589   4.567  0.2039 -0.6582  0.0529
  136CHL1   H2516316   5.910   0.536   4.576 -0.4411  0.5098  0.1439
  136CHL1   C2616317   6.111   0.489   4.527 -0.7665  0.4987  0.3094
  136CHL1  H26A16318   6.131   0.409   4.601 -1.0523 -0.7857 -0.9394
  136CHL1  H26B16319   6.085   0.449   4.426  0.4817  0.6860 -0.1121
  136CHL1  H26C16320   6.210   0.535   4.504  0.4108 -1.4888  1.0737
  136CHL1   C2716321   6.047   0.633   4.709 -0.0639  0.7639  0.2975
  136CHL1  H27A16322   5.976   0.706   4.754 -0.5175  0.0092  0.8388
  136CHL1  H27B16323   6.060   0.548   4.780 -0.7218 -0.4892 -1.0312
  136CHL1  H27C16324   6.147   0.680   4.710  0.1819  0.2481  0.5854
  137CHL1    C316325   0.789   1.645   3.319 -0.2047  0.1240 -0.5044
  137CHL1    H316326   0.896   1.615   3.329  0.9021  4.1178  2.0776
  137CHL1    O316327   0.750   1.668   3.188  0.4508  0.3016  0.2058
  137CHL1   H3'16328   0.774   1.588   3.142  1.3379  1.4332 -1.4034
  137CHL1    C416329   0.700   1.538   3.388  0.3335  0.6078 -0.2421
  137CHL1   H4A16330   0.593   1.545   3.360  0.1760 -2.3932 -0.7918
  137CHL1   H4B16331   0.728   1.446   3.333  2.8222  1.2549 -0.1652
  137CHL1    C516332   0.734   1.525   3.537 -0.1330  0.2113  0.3828
  137CHL1    C616333   0.774   1.408   3.595 -0.4514  0.3586  0.7707
  137CHL1    H616334   0.777   1.317   3.534 -1.5302  0.4845  0.5196
  137CHL1    C716335   0.797   1.387   3.740 -0.7486  0.2149 -0.1820
  137CHL1   H7A16336   0.739   1.300   3.779  1.3897 -0.3279  2.0592
  137CHL1   H7B16337   0.906   1.370   3.750 -0.9800  0.0530  3.6913
  137CHL1    C816338   0.756   1.512   3.824 -0.1912 -0.3455 -0.1257
  137CHL1    H816339   0.645   1.519   3.827 -0.0824  2.6093  1.1935
  137CHL1   C1416340   0.815   1.508   3.963  0.0319  0.4676  0.0409
  137CHL1   H1416341   0.925   1.505   3.956  0.0353  0.0796  0.1850
  137CHL1   C1516342   0.758   1.389   4.055  0.2896 -0.5913 -0.6516
  137CHL1  H15A16343   0.647   1.383   4.044  0.3489 -0.1499 -1.5975
  137CHL1  H15B16344   0.810   1.292   4.041  0.4622 -0.6472  0.2927
  137CHL1   C1616345   0.791   1.441   4.195  0.2131  0.2174 -0.2894
  137CHL1  H16A16346   0.711   1.420   4.269  0.8114  0.0464  0.3174
  137CHL1  H16B16347   0.880   1.386   4.232 -0.7511 -1.5309 -0.4402
  137CHL1   C1716348   0.838   1.587   4.179 -0.5849  0.6995 -0.2077
  137CHL1   H1716349   0.948   1.576   4.171 -0.7867 -0.8269 -1.2999
  137CHL1   C1316350   0.786   1.638   4.047 -0.3888  0.6178 -0.1719
  137CHL1   C1816351   0.629   1.652   4.068  0.7443  0.0608  0.2712
  137CHL1  H18A16352   0.611   1.743   4.131 -1.4560 -0.3966  0.3685
  137CHL1  H18B16353   0.581   1.672   3.970 -1.6774 -1.6888  0.9987
  137CHL1  H18C16354   0.575   1.568   4.117 -0.5009 -0.1667 -1.4193
  137CHL1   C1216355   0.852   1.747   3.972 -0.4020 -0.4273 -0.0551
  137CHL1  H12A16356   0.832   1.841   4.027 -2.9359 -0.3702 -0.9378
  137CHL1  H12B16357   0.962   1.731   3.979 -0.4006 -0.0900  0.9636
  137CHL1   C1116358   0.800   1.767   3.833  0.1980 -0.0568 -0.0878
  137CHL1  H11A16359   0.694   1.797   3.849 -0.3869 -2.3544  0.8047
  137CHL1  H11B16360   0.861   1.854   3.802 -0.9208  0.9846  0.5239
  137CHL1    C916361   0.799   1.643   3.748 -0.3556  0.3752 -0.4934
  137CHL1    H916362   0.905   1.626   3.721 -0.1048  0.9637  0.1048
  137CHL1   C1016363   0.739   1.655   3.608 -1.0201 -0.3716  0.6656
  137CHL1   C1916364   0.583   1.695   3.620 -0.5620  0.4745 -0.3949
  137CHL1  H19A16365   0.565   1.789   3.677 -1.4985  0.4998 -0.7177
  137CHL1  H19B16366   0.545   1.702   3.516  1.8320 -2.7819 -1.6602
  137CHL1  H19C16367   0.523   1.616   3.669  0.4834 -1.8431 -2.5979
  137CHL1    C116368   0.827   1.771   3.533 -0.3589  0.7332  0.2456
  137CHL1   H1A16369   0.806   1.865   3.588 -1.0106  0.0868  1.1158
  137CHL1   H1B16370   0.935   1.744   3.523 -0.1852  1.7302 -0.8170
  137CHL1    C216371   0.775   1.791   3.386 -0.9090 -0.0196  0.3150
  137CHL1   H2A16372   0.848   1.869   3.356  0.8684 -1.4251  0.7907
  137CHL1   H2B16373   0.673   1.834   3.377 -0.0642  1.6408 -2.3986
  137CHL1   C2016374   0.803   1.662   4.302  0.1880  0.3420 -1.1923
  137CHL1   H2016375   0.694   1.684   4.308  0.2189  0.1848  0.2773
  137CHL1   C2116376   0.874   1.794   4.298  0.0581  0.4004 -0.0124
  137CHL1  H21A16377   0.834   1.858   4.217  2.2981 -0.4875 -1.9166
  137CHL1  H21B16378   0.981   1.782   4.271 -0.1122  0.7587 -0.8769
  137CHL1  H21C16379   0.882   1.852   4.393  1.9275 -1.6423  1.1829
  137CHL1   C2216380   0.836   1.595   4.443 -0.0626  0.3459 -0.2930
  137CHL1  H22A16381   0.797   1.491   4.441  0.0215  0.2918  0.4845
  137CHL1  H22B16382   0.944   1.589   4.469  0.0127  1.3326 -0.3562
  137CHL1   C2316383   0.771   1.663   4.561 -0.2872 -0.0581  0.7241
  137CHL1  H23A16384   0.813   1.766   4.556  1.9753 -0.9152  0.6373
  137CHL1  H23B16385   0.661   1.674   4.548 -0.0006  2.0894 -0.3587
  137CHL1   C2416386   0.828   1.605   4.698 -0.0584  0.4238  0.3180
  137CHL1  H24A16387   0.839   1.495   4.684 -1.0184  0.4789 -1.1221
  137CHL1  H24B16388   0.925   1.657   4.713 -1.0761  1.9410  2.0275
  137CHL1   C2516389   0.741   1.623   4.821 -0.1785  0.2025 -0.0937
  137CHL1   H2516390   0.639   1.583   4.802 -0.0319 -1.3208  1.8928
  137CHL1   C2616391   0.801   1.552   4.946  0.7844 -0.5089 -0.1400
  137CHL1  H26A16392   0.822   1.444   4.927  0.1139 -0.3657 -1.8218
  137CHL1  H26B16393   0.895   1.603   4.976  0.8242 -0.4512 -0.3620
  137CHL1  H26C16394   0.736   1.561   5.035  2.1250 -0.6930  0.8958
  137CHL1   C2716395   0.732   1.767   4.858  0.1653  0.0376 -0.1181
  137CHL1  H27A16396   0.700   1.830   4.772  2.6195  2.5858  0.7173
  137CHL1  H27B16397   0.680   1.797   4.952 -0.2855 -0.3539 -0.2364
  137CHL1  H27C16398   0.834   1.807   4.873  0.7832 -1.3371 -0.4820
  138CHL1    C316399   7.254   0.746   3.185 -0.1779  0.1861 -0.1055
  138CHL1    H316400   7.241   0.637   3.204 -0.9737  0.5592  1.6669
  138CHL1    O316401   7.270   0.757   3.046  0.0203 -0.5301  0.2296
  138CHL1   H3'16402   7.277   0.852   3.034 -2.1565 -0.3391  0.1426
  138CHL1    C416403   7.133   0.827   3.234 -0.8176 -0.1924 -0.1165
  138CHL1   H4A16404   7.147   0.935   3.216  1.2381 -0.1731  1.3092
  138CHL1   H4B16405   7.043   0.800   3.174 -2.1355  2.4918  0.4928
  138CHL1    C516406   7.126   0.815   3.382 -0.2104 -0.0453  1.4328
  138CHL1    C616407   7.018   0.755   3.436 -0.5390 -0.3224  0.2449
  138CHL1    H616408   6.942   0.724   3.363 -0.4492 -1.4424  0.6049
  138CHL1    C716409   7.003   0.732   3.579  0.3656  0.2537 -0.4209
  138CHL1   H7A16410   6.896   0.752   3.602 -0.2675 -2.2052 -0.9341
  138CHL1   H7B16411   7.030   0.627   3.605 -0.0104  0.2028 -0.2409
  138CHL1    C816412   7.087   0.825   3.666 -0.0708  0.2437  0.5520
  138CHL1    H816413   7.050   0.929   3.658 -2.8625 -0.7946 -1.6001
  138CHL1   C1416414   7.077   0.778   3.811  0.6778 -0.5639  0.5012
  138CHL1   H1416415   7.121   0.676   3.811  0.1372 -0.8363 -1.1109
  138CHL1   C1516416   6.934   0.760   3.860  0.5519 -0.1399  0.9641
  138CHL1  H15A16417   6.875   0.849   3.828  1.7247  0.4395  0.3669
  138CHL1  H15B16418   6.890   0.664   3.823  0.6533 -0.0480  0.6054
  138CHL1   C1616419   6.949   0.763   4.008  0.0021  0.3915 -0.4611
  138CHL1  H16A16420   6.886   0.846   4.045  0.1333 -0.0850  0.8772
  138CHL1  H16B16421   6.930   0.668   4.061 -1.8635  0.9339 -0.0794
  138CHL1   C1716422   7.095   0.788   4.041 -0.2984  0.3664  0.1152
  138CHL1   H1716423   7.144   0.688   4.037 -0.4111  0.1555  2.4443
  138CHL1   C1316424   7.155   0.862   3.911  0.4978  0.0303  0.1490
  138CHL1   C1816425   7.103   1.001   3.922 -0.0149  0.3430 -0.4053
  138CHL1  H18A16426   6.997   0.998   3.957 -0.4545  1.2078 -1.5823
  138CHL1  H18B16427   7.151   1.066   3.998 -0.4479 -0.7445  0.8354
  138CHL1  H18C16428   7.080   1.040   3.820  1.3783 -3.2911 -2.2798
  138CHL1   C1216429   7.304   0.844   3.871  0.4223  0.4667  0.2440
  138CHL1  H12A16430   7.382   0.899   3.929  1.2466  1.9235 -2.0872
  138CHL1  H12B16431   7.321   0.735   3.875 -1.1590  0.1416 -0.8465
  138CHL1   C1116432   7.327   0.888   3.716 -0.4319 -0.5268 -0.5903
  138CHL1  H11A16433   7.314   0.999   3.719  0.7083 -0.3343 -1.7834
  138CHL1  H11B16434   7.426   0.850   3.683 -0.4011 -0.0587 -1.0370
  138CHL1    C916435   7.231   0.821   3.621  0.1662 -0.3431  0.0106
  138CHL1    H916436   7.258   0.713   3.619 -1.3923 -0.7443 -0.6221
  138CHL1   C1016437   7.245   0.863   3.474  0.3743 -0.1970 -0.2057
  138CHL1   C1916438   7.254   1.020   3.469  0.1883 -0.2694 -0.1863
  138CHL1  H19A16439   7.261   1.056   3.365  1.2615  0.7264  0.2070
  138CHL1  H19B16440   7.168   1.067   3.521 -0.0025 -0.6775 -0.1288
  138CHL1  H19C16441   7.348   1.065   3.507  0.3751 -0.6417 -0.2029
  138CHL1    C116442   7.374   0.799   3.408  0.5289  0.2841  0.4200
  138CHL1   H1A16443   7.471   0.835   3.450  0.0480  0.9874  0.9480
  138CHL1   H1B16444   7.371   0.691   3.432 -1.2829  0.1359 -0.3028
  138CHL1    C216445   7.380   0.807   3.253  0.5035 -0.7191 -0.6447
  138CHL1   H2A16446   7.469   0.748   3.222  0.7353 -1.2571  0.9469
  138CHL1   H2B16447   7.397   0.911   3.219 -1.8837 -0.1046 -0.1747
  138CHL1   C2016448   7.112   0.840   4.182 -0.2249 -0.3766  0.3758
  138CHL1   H2016449   7.074   0.944   4.190  0.2701 -0.3112  2.3156
  138CHL1   C2116450   7.264   0.856   4.205 -0.0899 -0.7749  0.1699
  138CHL1  H21A16451   7.279   0.907   4.303 -2.1618  0.2993 -0.0262
  138CHL1  H21B16452   7.311   0.915   4.125 -4.6454 -2.0272 -3.9297
  138CHL1  H21C16453   7.322   0.761   4.203  1.8432  0.1836  3.1585
  138CHL1   C2216454   7.034   0.780   4.303 -0.0324  0.5483 -0.0687
  138CHL1  H22A16455   7.064   0.835   4.394  1.7343 -1.8203  0.8955
  138CHL1  H22B16456   6.924   0.791   4.291 -0.2007 -1.9313 -1.4545
  138CHL1   C2316457   7.054   0.624   4.318  0.0679  0.6148 -0.4329
  138CHL1  H23A16458   7.021   0.580   4.221 -1.1733  0.4431  0.0504
  138CHL1  H23B16459   7.160   0.601   4.342  0.2646 -1.0302 -2.5138
  138CHL1   C2416460   6.956   0.559   4.421 -0.5469 -0.9849  0.3520
  138CHL1  H24A16461   6.966   0.605   4.522  0.7518  1.6870 -0.8649
  138CHL1  H24B16462   6.851   0.573   4.388 -0.7773  0.1296  1.4838
  138CHL1   C2516463   6.966   0.403   4.435 -0.4793 -0.5513 -1.0716
  138CHL1   H2516464   6.951   0.372   4.329  0.9587  1.9120 -2.0956
  138CHL1   C2616465   7.110   0.360   4.472 -0.0509  0.0236 -0.6993
  138CHL1  H26A16466   7.137   0.421   4.560 -4.1777  0.5459  0.4410
  138CHL1  H26B16467   7.111   0.256   4.511 -0.9733  0.4263  0.4451
  138CHL1  H26C16468   7.189   0.379   4.396 -0.4338  0.8997 -0.8948
  138CHL1   C2716469   6.867   0.341   4.541 -0.4922 -0.0150 -0.2685
  138CHL1  H27A16470   6.762   0.375   4.539 -0.9094 -1.1776  0.4389
  138CHL1  H27B16471   6.857   0.230   4.531 -4.0936  0.1629  0.0798
  138CHL1  H27C16472   6.902   0.365   4.644 -1.0190 -1.1217  0.1867
  139CHL1    C316473   0.482   6.965   3.235  0.0364 -0.6627  0.2929
  139CHL1    H316474   0.390   7.028   3.234  0.6201  0.2256  0.8693
  139CHL1    O316475   0.492   6.918   3.101 -0.1612 -0.1612 -0.1262
  139CHL1   H3'16476   0.541   6.835   3.105 -0.4557 -0.4251 -1.4573
  139CHL1    C416477   0.606   7.048   3.277 -0.3014 -1.1963 -0.1800
  139CHL1   H4A16478   0.692   6.979   3.265  1.3331  0.4304  1.4915
  139CHL1   H4B16479   0.610   7.132   3.205  1.0588 -1.9342 -1.0087
  139CHL1    C516480   0.608   7.102   3.421 -0.4873  0.7438  0.5354
  139CHL1    C616481   0.623   7.228   3.452  0.1229 -0.1744  0.2461
  139CHL1    H616482   0.652   7.293   3.368  0.7634 -0.9579 -0.1476
  139CHL1    C716483   0.620   7.276   3.593  0.2212 -0.9578 -0.1090
  139CHL1   H7A16484   0.700   7.348   3.623  0.2309 -0.4844 -1.2236
  139CHL1   H7B16485   0.527   7.330   3.622  1.2912  0.2152  1.3503
  139CHL1    C816486   0.636   7.165   3.703 -0.1414  0.0828  0.6177
  139CHL1    H816487   0.744   7.144   3.691 -0.4493 -0.6864 -1.2621
  139CHL1   C1416488   0.604   7.218   3.840 -0.1291  0.2707 -0.1996
  139CHL1   H1416489   0.499   7.253   3.842  0.5838  2.5827 -0.0242
  139CHL1   C1516490   0.680   7.341   3.892  0.5321  0.6087  0.2096
  139CHL1  H15A16491   0.785   7.328   3.858  0.8988  1.6402  0.9276
  139CHL1  H15B16492   0.634   7.438   3.862 -0.3270 -0.1630 -1.0716
  139CHL1   C1616493   0.669   7.325   4.047  1.0500  0.4791  0.1120
  139CHL1  H16A16494   0.774   7.302   4.076  1.4057 -0.9881 -2.0718
  139CHL1  H16B16495   0.636   7.417   4.100  2.2447  1.8761 -1.4535
  139CHL1   C1716496   0.586   7.197   4.082  0.4177 -0.0057  0.0731
  139CHL1   H1716497   0.480   7.224   4.065  0.4350 -0.1247 -0.2257
  139CHL1   C1316498   0.618   7.118   3.954  0.0809  0.0347 -0.1666
  139CHL1   C1816499   0.758   7.051   3.959 -0.3320 -0.4345  0.5327
  139CHL1  H18A16500   0.746   6.958   4.020  1.7375 -2.2056 -1.5443
  139CHL1  H18B16501   0.796   7.020   3.859  2.1588  2.2331  0.5224
  139CHL1  H18C16502   0.825   7.124   4.009 -3.1297  1.9189  1.0854
  139CHL1   C1216503   0.527   7.007   3.919  0.0225 -0.1829  0.4463
  139CHL1  H12A16504   0.539   6.922   3.990  0.3606 -0.0831  0.5087
  139CHL1  H12B16505   0.419   7.034   3.922 -0.2748 -1.3208  0.8225
  139CHL1   C1116506   0.548   6.939   3.780  0.1167 -0.4611  0.4144
  139CHL1  H11A16507   0.643   6.882   3.784  0.2465 -0.2183  0.9224
  139CHL1  H11B16508   0.470   6.863   3.756 -0.2238  0.3428 -1.1475
  139CHL1    C916509   0.552   7.042   3.664 -0.2437 -0.3384  0.4137
  139CHL1    H916510   0.448   7.080   3.657  0.3600  1.7174  1.5893
  139CHL1   C1016511   0.587   6.988   3.524 -0.3053  0.2157 -0.4248
  139CHL1   C1916512   0.721   6.899   3.522 -0.4840  0.3617 -0.8014
  139CHL1  H19A16513   0.808   6.962   3.551 -0.8584  1.5920 -2.2355
  139CHL1  H19B16514   0.716   6.819   3.599  0.1409 -0.2265 -1.3595
  139CHL1  H19C16515   0.738   6.851   3.423 -3.5318 -2.4631 -0.1378
  139CHL1    C116516   0.460   6.898   3.480 -0.0717  0.5568 -0.0836
  139CHL1   H1A16517   0.451   6.814   3.551  0.6246 -0.5132 -1.2149
  139CHL1   H1B16518   0.367   6.959   3.488 -0.3315  0.2568 -0.6904
  139CHL1    C216519   0.469   6.846   3.333 -0.0989 -0.4797 -0.3175
  139CHL1   H2A16520   0.379   6.788   3.304 -2.6335  1.4913  2.9803
  139CHL1   H2B16521   0.556   6.778   3.325 -0.3304 -0.8687  0.4419
  139CHL1   C2016522   0.614   7.131   4.216 -0.1944  0.2568 -0.0261
  139CHL1   H2016523   0.708   7.072   4.214  0.4194  1.0163  2.5864
  139CHL1   C2116524   0.490   7.042   4.255 -0.5015 -0.3094  0.7193
  139CHL1  H21A16525   0.465   6.975   4.170 -3.0825  1.4713 -0.0344
  139CHL1  H21B16526   0.402   7.104   4.283 -0.3366 -0.7088  2.1809
  139CHL1  H21C16527   0.509   6.973   4.340 -1.4681 -1.8166 -0.2421
  139CHL1   C2216528   0.635   7.227   4.330 -0.3047 -0.3180 -0.1298
  139CHL1  H22A16529   0.723   7.292   4.313 -1.3191  0.9077 -0.9013
  139CHL1  H22B16530   0.543   7.289   4.341 -0.0844 -0.3106  2.1145
  139CHL1   C2316531   0.655   7.157   4.461  0.0624  0.4419 -1.3012
  139CHL1  H23A16532   0.569   7.088   4.477  0.1055  0.0282 -2.7231
  139CHL1  H23B16533   0.746   7.094   4.451  0.1286  0.4836 -0.9883
  139CHL1   C2416534   0.687   7.246   4.581  0.2253  0.4118  0.3863
  139CHL1  H24A16535   0.783   7.300   4.565  1.1947 -0.6811  2.2280
  139CHL1  H24B16536   0.618   7.333   4.588 -0.3633  0.1394 -1.4519
  139CHL1   C2516537   0.691   7.167   4.709  0.4064  0.2815  0.0704
  139CHL1   H2516538   0.617   7.084   4.701 -0.9462  1.0014  3.3576
  139CHL1   C2616539   0.827   7.093   4.735  0.2337  0.2212 -0.0086
  139CHL1  H26A16540   0.824   7.039   4.832 -1.2177  0.0765 -0.1159
  139CHL1  H26B16541   0.853   7.024   4.651  0.1378 -1.7036  1.4722
  139CHL1  H26C16542   0.908   7.169   4.728  1.5634 -0.9440  1.6716
  139CHL1   C2716543   0.652   7.247   4.823 -0.1880  0.3984  0.4762
  139CHL1  H27A16544   0.550   7.286   4.805 -1.4588 -3.0837 -0.4819
  139CHL1  H27B16545   0.651   7.186   4.916 -0.1131  1.5618  1.2797
  139CHL1  H27C16546   0.719   7.334   4.843  1.4094 -0.3808 -1.2364
  140CHL1    C316547   0.387   0.643   3.162 -0.3219  0.1543  0.2852
  140CHL1    H316548   0.480   0.588   3.188  0.3453  1.1162 -0.0400
  140CHL1    O316549   0.427   0.723   3.057 -0.4468  0.5527  0.4407
  140CHL1   H3'16550   0.374   0.803   3.061  1.7398  2.1235  0.1662
  140CHL1    C416551   0.269   0.550   3.115  0.3253  0.1949 -0.4050
  140CHL1   H4A16552   0.198   0.623   3.070  0.4717 -0.7449 -2.2714
  140CHL1   H4B16553   0.316   0.499   3.028  1.9628 -3.0928  2.1912
  140CHL1    C516554   0.210   0.466   3.229  0.1143 -0.2306  1.1777
  140CHL1    C616555   0.206   0.330   3.223  0.0955  0.0738  0.2585
  140CHL1    H616556   0.259   0.276   3.143  1.5223  0.4456  0.9054
  140CHL1    C716557   0.149   0.245   3.336 -0.4496  0.0641 -0.2461
  140CHL1   H7A16558   0.086   0.172   3.281  0.2581 -0.2844 -0.6040
  140CHL1   H7B16559   0.226   0.187   3.391  0.0110 -0.0891 -1.0309
  140CHL1    C816560   0.065   0.333   3.435 -0.1426  0.5755 -0.2853
  140CHL1    H816561  -0.027   0.360   3.379 -0.1506  1.5347  0.1888
  140CHL1   C1416562   0.026   0.252   3.556 -0.4791  0.5002  0.4636
  140CHL1   H1416563   0.118   0.222   3.611 -1.9280 -1.3058  2.0436
  140CHL1   C1516564  -0.050   0.114   3.538 -0.2891 -0.1482  0.0250
  140CHL1  H15A16565  -0.116   0.125   3.449 -0.0756 -1.7375 -0.3616
  140CHL1  H15B16566   0.028   0.040   3.510 -0.2609  0.8224 -2.7873
  140CHL1   C1616567  -0.123   0.096   3.671  0.7631  0.0048  0.1704
  140CHL1  H16A16568  -0.232   0.096   3.650  0.4596  0.0582  1.6332
  140CHL1  H16B16569  -0.093  -0.006   3.703 -1.2433 -1.3601 -1.9610
  140CHL1   C1716570  -0.089   0.216   3.759 -0.0211 -0.1747  0.7788
  140CHL1   H1716571   0.011   0.191   3.800  0.5300 -0.4671 -0.7098
  140CHL1   C1316572  -0.051   0.327   3.660  0.1622 -0.5987  0.2978
  140CHL1   C1816573  -0.172   0.391   3.591  0.1813 -0.1429  0.0856
  140CHL1  H18A16574  -0.150   0.465   3.511  1.3905  1.4382  1.8052
  140CHL1  H18B16575  -0.239   0.312   3.549 -0.0850 -0.6631  1.4217
  140CHL1  H18C16576  -0.237   0.447   3.662  0.7863  1.0385 -0.2648
  140CHL1   C1216577   0.042   0.438   3.711  0.1302  0.3831 -0.3690
  140CHL1  H12A16578   0.007   0.496   3.799  0.0195 -0.1039 -0.0851
  140CHL1  H12B16579   0.141   0.393   3.732 -0.2005 -0.6397 -0.9093
  140CHL1   C1116580   0.093   0.537   3.603 -0.0251 -1.0054  0.9887
  140CHL1  H11A16581   0.008   0.606   3.585  1.4559  1.7516  3.6051
  140CHL1  H11B16582   0.174   0.590   3.657  0.8057  0.6509 -1.7046
  140CHL1    C916583   0.140   0.457   3.475 -0.1371 -0.2492 -0.8225
  140CHL1    H916584   0.240   0.418   3.502  0.5193  1.4406 -0.6670
  140CHL1   C1016585   0.167   0.545   3.354  0.2315  0.0618 -0.2027
  140CHL1   C1916586   0.034   0.614   3.304  0.0971  0.0015 -0.0011
  140CHL1  H19A16587   0.057   0.674   3.214  0.2532  1.0501  0.7138
  140CHL1  H19B16588  -0.034   0.539   3.260 -0.7933 -0.1642  1.5739
  140CHL1  H19C16589  -0.019   0.673   3.381 -0.5958 -1.7213  0.9077
  140CHL1    C116590   0.288   0.644   3.392  0.4520 -0.0146  0.9023
  140CHL1   H1A16591   0.241   0.710   3.468 -0.5875 -0.6580  0.8419
  140CHL1   H1B16592   0.373   0.583   3.426  1.4380  0.3663 -0.7590
  140CHL1    C216593   0.337   0.733   3.272  0.2061  0.0461  0.5799
  140CHL1   H2A16594   0.427   0.789   3.303  1.7618 -0.9674 -1.7855
  140CHL1   H2B16595   0.256   0.802   3.240  0.6951  0.3390 -0.0550
  140CHL1   C2016596  -0.188   0.239   3.877  0.3835 -0.5342 -0.5107
  140CHL1   H2016597  -0.164   0.159   3.950 -0.4319 -0.1430  0.2019
  140CHL1   C2116598  -0.339   0.229   3.839 -0.4933  0.3616 -0.0884
  140CHL1  H21A16599  -0.362   0.296   3.754  0.2063 -1.3166 -1.6745
  140CHL1  H21B16600  -0.410   0.268   3.916 -1.9783 -0.1478 -1.1487
  140CHL1  H21C16601  -0.372   0.124   3.823 -0.7647  0.3549  0.4738
  140CHL1   C2216602  -0.156   0.359   3.957 -0.5326 -0.5381  0.3879
  140CHL1  H22A16603  -0.046   0.376   3.965 -0.6358 -0.1281  0.9517
  140CHL1  H22B16604  -0.211   0.446   3.916 -0.8796 -0.8492  0.1888
  140CHL1   C2316605  -0.198   0.356   4.105  0.7008 -0.1280  0.2302
  140CHL1  H23A16606  -0.307   0.334   4.105  0.6464  0.1170  0.7022
  140CHL1  H23B16607  -0.148   0.269   4.152 -0.0911 -0.1877  0.9975
  140CHL1   C2416608  -0.156   0.470   4.205  0.0377 -0.1385  0.0332
  140CHL1  H24A16609  -0.045   0.483   4.202  0.0401  0.2010  1.1550
  140CHL1  H24B16610  -0.196   0.569   4.175  1.6693  0.4948 -0.1815
  140CHL1   C2516611  -0.193   0.450   4.354 -0.1468 -0.4711  0.2145
  140CHL1   H2516612  -0.302   0.433   4.345 -0.1238  0.1546 -1.7285
  140CHL1   C2616613  -0.190   0.585   4.433 -0.0077 -0.4130 -0.7729
  140CHL1  H26A16614  -0.089   0.629   4.430 -0.9225  2.0212  0.7518
  140CHL1  H26B16615  -0.257   0.660   4.386  0.4127 -0.4010 -1.3622
  140CHL1  H26C16616  -0.216   0.567   4.540  1.0026 -1.1075 -0.6263
  140CHL1   C2716617  -0.132   0.337   4.437 -0.0312  0.0904  0.2328
  140CHL1  H27A16618  -0.198   0.330   4.525 -1.7311  0.0304 -1.0021
  140CHL1  H27B16619  -0.137   0.246   4.372 -1.9108 -0.1806  0.6952
  140CHL1  H27C16620  -0.030   0.362   4.473 -0.1471 -0.3639  0.8933
  141DOPC     N16621   3.211   2.897   7.291 -0.2043  0.1091 -0.2635
  141DOPC   C1216622   3.156   2.801   7.181  0.1690  0.1525  0.5929
  141DOPC  H12A16623   3.050   2.822   7.173 -0.1360 -1.8549 -1.4818
  141DOPC  H12B16624   3.170   2.701   7.219  1.0156  0.8704  2.2792
  141DOPC   C1316625   3.352   2.902   7.278  0.0417 -0.4720  0.0662
  141DOPC  H13A16626   3.379   2.944   7.182  0.5957 -0.0285  0.4044
  141DOPC  H13B16627   3.393   2.967   7.354 -0.9876  1.9530 -1.3318
  141DOPC  H13C16628   3.397   2.804   7.275  3.3643  0.9291 -0.9306
  141DOPC   C1416629   3.163   2.851   7.427 -0.4701 -0.2280  0.0483
  141DOPC  H14A16630   3.196   2.752   7.452 -0.0084 -0.6366 -1.9749
  141DOPC  H14B16631   3.188   2.918   7.508 -1.1478 -1.5964  1.4250
  141DOPC  H14C16632   3.055   2.857   7.427 -0.4065  1.6039 -0.5285
  141DOPC   C1516633   3.138   3.026   7.271  0.3929  0.2079  0.0808
  141DOPC  H15A16634   3.161   3.067   7.174  0.4006  2.2551  0.8978
  141DOPC  H15B16635   3.177   3.087   7.351 -0.2447 -1.4590  1.7600
  141DOPC  H15C16636   3.031   3.012   7.271  0.4386 -0.1970  0.9025
  141DOPC   C1116637   3.211   2.821   7.041 -0.5186 -0.4519 -0.2315
  141DOPC  H11A16638   3.313   2.777   7.035  0.0946  0.8386  0.3652
  141DOPC  H11B16639   3.155   2.748   6.979  1.4107 -0.5570 -2.0017
  141DOPC     P16640   3.060   3.002   6.926  0.4520  0.2767 -0.0226
  141DOPC   O1316641   3.093   3.145   6.903 -0.6526 -0.0898  0.1214
  141DOPC   O1416642   2.943   2.976   7.016  0.0763 -0.2451  0.0599
  141DOPC   O1216643   3.197   2.944   6.983 -0.1593  0.1539 -0.4551
  141DOPC   O1116644   3.047   2.923   6.791 -0.6201 -0.1746  0.3931
  141DOPC    C116645   3.135   2.931   6.678  0.7734 -0.0691  0.2315
  141DOPC    HA16646   3.178   3.032   6.664 -0.7135  0.3751 -1.6391
  141DOPC    HB16647   3.080   2.912   6.583 -2.1272  2.2936  1.2826
  141DOPC    C216648   3.253   2.826   6.678 -0.5192 -0.0516  0.0167
  141DOPC    HS16649   3.309   2.836   6.773 -1.2138  1.0039  0.3435
  141DOPC   O2116650   3.343   2.844   6.566  0.3361 -0.2566 -0.4873
  141DOPC   C2116651   3.434   2.945   6.571  0.5736  0.5208 -0.1080
  141DOPC   O2216652   3.460   3.007   6.678  0.2345  0.0523 -0.3782
  141DOPC   C2216653   3.501   2.967   6.427 -0.2546 -0.1988 -0.1875
  141DOPC   H2R16654   3.600   3.017   6.442 -0.1172  0.5892 -3.1657
  141DOPC   H2S16655   3.431   3.029   6.367 -1.4923 -0.7111  0.7068
  141DOPC    C316656   3.191   2.685   6.683  0.4073  0.0527  0.0467
  141DOPC    HX16657   3.128   2.671   6.773  0.7511 -1.8506  0.0378
  141DOPC    HY16658   3.283   2.623   6.691 -0.4048 -0.9596  2.2962
  141DOPC   O3116659   3.115   2.651   6.566 -0.2708 -0.1024  0.2400
  141DOPC   C3116660   2.990   2.616   6.565  0.2704 -0.0986 -0.7294
  141DOPC   O3216661   2.912   2.619   6.662  0.0579 -0.6202 -0.3548
  141DOPC   C3216662   2.966   2.557   6.431 -0.6611  0.4557  0.5363
  141DOPC   H2X16663   2.987   2.638   6.358  0.6192 -1.3352 -1.2268
  141DOPC   H2Y16664   3.050   2.486   6.411  1.0717  2.3982  0.5822
  141DOPC   C2316665   3.541   2.845   6.345 -0.2796  0.1981 -0.2520
  141DOPC   H3R16666   3.450   2.783   6.335 -1.0100  1.1953  0.1138
  141DOPC   H3S16667   3.623   2.784   6.390  2.0172  2.7832 -0.6544
  141DOPC   C2416668   3.588   2.885   6.205 -0.1526 -0.5210  0.2955
  141DOPC   H4R16669   3.694   2.915   6.208  0.3740 -2.2752  0.3769
  141DOPC   H4S16670   3.525   2.969   6.170  0.2151 -0.6084 -0.5859
  141DOPC   C2516671   3.581   2.762   6.100 -0.5267 -0.6535 -0.2012
  141DOPC   H5R16672   3.478   2.749   6.060 -1.1715 -0.4437  1.3121
  141DOPC   H5S16673   3.621   2.677   6.158  0.3140 -0.4315 -0.4429
  141DOPC   C2616674   3.661   2.790   5.970 -0.4878 -0.1525 -0.5673
  141DOPC   H6R16675   3.640   2.890   5.928  1.4867  0.2958 -0.6049
  141DOPC   H6S16676   3.635   2.710   5.897  1.8539 -1.2526 -0.2958
  141DOPC   C2716677   3.812   2.782   5.986 -0.4539 -0.4647 -0.6040
  141DOPC   H7R16678   3.845   2.688   6.036  0.9555  1.0579  1.4932
  141DOPC   H7S16679   3.839   2.861   6.059  1.0577 -1.5481  0.0428
  141DOPC   C2816680   3.889   2.811   5.859 -0.7821 -0.3726 -0.0422
  141DOPC   H8R16681   3.994   2.832   5.889 -1.3540  2.5160  0.2381
  141DOPC   H8S16682   3.847   2.898   5.804 -0.0999 -0.9175 -1.4452
  141DOPC   C2916683   3.885   2.694   5.769  0.0349  0.6460  0.1217
  141DOPC   H9R16684   3.831   2.602   5.794 -0.1018  0.0394 -2.1205
  141DOPC  C21016685   3.957   2.683   5.652  0.8060 -0.1135 -0.6309
  141DOPC  H10R16686   3.948   2.598   5.583 -1.4452 -1.4086  1.1075
  141DOPC  C21116687   4.047   2.781   5.588 -0.7291  0.5682 -0.2239
  141DOPC  H11R16688   4.148   2.735   5.580 -1.3250 -0.4939 -2.4779
  141DOPC  H11S16689   4.077   2.868   5.650 -1.4287  1.5535 -1.2243
  141DOPC  C21216690   4.014   2.828   5.443 -0.8907  0.1554 -0.4540
  141DOPC  H12R16691   4.093   2.901   5.415  1.2885 -2.1630 -0.6814
  141DOPC  H12S16692   3.914   2.875   5.428 -2.1183 -2.5204 -1.2850
  141DOPC  C21316693   4.048   2.724   5.332 -0.0317  0.3373  0.8536
  141DOPC  H13R16694   3.975   2.642   5.349  1.5752 -1.4526 -0.3728
  141DOPC  H13S16695   4.154   2.692   5.345 -0.3489 -0.3074  2.0327
  141DOPC  C21416696   4.025   2.783   5.187  0.2177 -0.1607 -0.9561
  141DOPC  H14R16697   4.095   2.867   5.165 -1.9775  1.9531 -0.3175
  141DOPC  H14S16698   3.916   2.804   5.187 -0.0396 -1.4012 -1.7674
  141DOPC  C21516699   4.055   2.670   5.086  0.3806  0.9273 -0.3967
  141DOPC  H15R16700   3.992   2.581   5.108  3.1396 -1.7359 -2.4476
  141DOPC  H15S16701   4.160   2.638   5.102 -0.4296 -1.5066  0.4599
  141DOPC  C21616702   4.045   2.704   4.933  0.2398 -0.8724  0.0850
  141DOPC  H16R16703   4.111   2.793   4.916 -1.2123  0.1191 -0.6083
  141DOPC  H16S16704   3.940   2.733   4.913  0.3448 -0.1462  0.5342
  141DOPC  C21716705   4.090   2.601   4.825 -0.3914 -0.2622  0.1680
  141DOPC  H17R16706   4.061   2.662   4.737 -0.8531  0.0529  0.5325
  141DOPC  H17S16707   4.018   2.516   4.833 -1.1399  0.3825  0.3944
  141DOPC  C21816708   4.245   2.574   4.827  0.2880 -0.6221 -0.7561
  141DOPC  H18R16709   4.264   2.556   4.935  1.7452 -0.7004 -1.0040
  141DOPC  H18S16710   4.304   2.663   4.797  0.3440 -0.5620 -0.4771
  141DOPC  H18T16711   4.273   2.487   4.765 -1.3307 -0.5513 -1.6313
  141DOPC   C3316712   2.826   2.503   6.416  0.0250 -0.0354  0.1828
  141DOPC   H3X16713   2.747   2.579   6.433  1.4756  1.4510  0.5418
  141DOPC   H3Y16714   2.813   2.423   6.492 -1.8242 -0.7745 -0.8286
  141DOPC   C3416715   2.808   2.447   6.281  0.1614 -0.3324  0.0950
  141DOPC   H4X16716   2.865   2.352   6.269  1.7666  0.5815  0.1702
  141DOPC   H4Y16717   2.847   2.521   6.208 -1.4285 -0.2589 -0.7161
  141DOPC   C3516718   2.660   2.439   6.237 -0.6084  0.8693  0.6183
  141DOPC   H5X16719   2.617   2.541   6.242  0.9286  1.4908  2.7673
  141DOPC   H5Y16720   2.611   2.362   6.300  2.3410 -1.6286  0.1282
  141DOPC   C3616721   2.647   2.390   6.084  0.5959 -0.0254 -0.3967
  141DOPC   H6X16722   2.669   2.477   6.019 -0.6427 -0.1017 -0.9474
  141DOPC   H6Y16723   2.729   2.316   6.069 -0.0212 -0.9923  0.7412
  141DOPC   C3716724   2.507   2.329   6.068 -0.3323  0.6369 -0.3397
  141DOPC   H7X16725   2.491   2.250   6.145  0.1012  2.2060  1.4395
  141DOPC   H7Y16726   2.427   2.403   6.089 -2.1926 -1.6221  0.9266
  141DOPC   C3816727   2.485   2.263   5.924 -0.1176 -0.1859 -0.0181
  141DOPC   H8X16728   2.575   2.201   5.902 -0.5612 -1.5825  1.8690
  141DOPC   H8Y16729   2.490   2.356   5.864 -1.8610 -0.8461 -1.2644
  141DOPC   C3916730   2.360   2.190   5.881  0.6332  0.2618 -0.1499
  141DOPC   H9X16731   2.365   2.093   5.933 -0.7601  0.6111  0.6902
  141DOPC  C31016732   2.283   2.214   5.774 -0.0857  0.3077  0.6528
  141DOPC  H10X16733   2.197   2.152   5.746  0.0608  0.7862 -0.9124
  141DOPC  C31116734   2.306   2.324   5.669  0.0848  0.0365 -0.1295
  141DOPC  H11X16735   2.394   2.390   5.686 -0.6419  0.8507  0.6094
  141DOPC  H11Y16736   2.219   2.392   5.681  1.5186  2.2482 -1.6251
  141DOPC  C31216737   2.304   2.279   5.521 -0.6039 -0.7852  0.4502
  141DOPC  H12X16738   2.373   2.194   5.507 -0.4075 -0.6770  0.7373
  141DOPC  H12Y16739   2.348   2.365   5.466 -1.2591 -0.7825 -0.0802
  141DOPC  C31316740   2.166   2.251   5.454  0.0438 -0.1170  0.0838
  141DOPC  H13X16741   2.195   2.248   5.347  1.1903 -0.1781  0.3917
  141DOPC  H13Y16742   2.120   2.152   5.476  0.4809 -0.7928 -1.8799
  141DOPC  C31416743   2.067   2.364   5.469 -0.0217 -0.0336 -0.7192
  141DOPC  H14X16744   2.041   2.378   5.576  1.5206 -2.0665 -0.0161
  141DOPC  H14Y16745   2.114   2.459   5.438  1.0098 -0.8767 -1.8075
  141DOPC  C31516746   1.935   2.332   5.408 -0.0085  0.1465  0.1369
  141DOPC  H15X16747   1.898   2.237   5.452  2.8680 -1.2910 -0.3418
  141DOPC  H15Y16748   1.948   2.320   5.298  0.2006 -0.1629  0.1970
  141DOPC  C31616749   1.836   2.447   5.423 -0.0138  0.1751  0.5358
  141DOPC  H16X16750   1.733   2.409   5.401 -0.5727  1.6148  0.5869
  141DOPC  H16Y16751   1.836   2.481   5.529  1.6520  0.2383  0.5341
  141DOPC  C31716752   1.870   2.559   5.323 -0.2038  0.7327 -0.2308
  141DOPC  H17X16753   1.969   2.595   5.356 -0.5080  1.6643 -0.2972
  141DOPC  H17Y16754   1.874   2.511   5.222 -0.9220 -1.1933  0.6004
  141DOPC  C31816755   1.773   2.676   5.328  0.4895 -0.2245 -0.0263
  141DOPC  H18X16756   1.804   2.752   5.252 -1.6219 -0.6252 -1.3756
  141DOPC  H18Y16757   1.668   2.648   5.302  0.0806  0.7197  0.5141
  141DOPC  H18Z16758   1.776   2.723   5.429 -1.7758 -0.5376  0.2514
  142DOPC     N16759   3.813   2.826   6.934 -0.7902 -0.1991  0.0846
  142DOPC   C1216760   3.806   2.947   6.842  0.9103 -0.1644  0.0588
  142DOPC  H12A16761   3.741   3.021   6.887 -0.8815 -1.7652  0.2462
  142DOPC  H12B16762   3.757   2.913   6.751 -0.9828  0.7992  0.6638
  142DOPC   C1316763   3.865   2.872   7.069  0.0587 -0.1397  0.2320
  142DOPC  H13A16764   3.807   2.946   7.123  1.4432 -0.4662  2.3183
  142DOPC  H13B16765   3.880   2.789   7.136 -0.5399 -0.8459 -0.5024
  142DOPC  H13C16766   3.959   2.925   7.060  0.9056 -1.6561 -0.0550
  142DOPC   C1416767   3.900   2.724   6.868 -0.1788  0.4832 -0.5591
  142DOPC  H14A16768   3.996   2.764   6.840  0.5095 -1.2848 -0.8804
  142DOPC  H14B16769   3.922   2.642   6.936 -2.6139 -0.0839 -0.3553
  142DOPC  H14C16770   3.860   2.675   6.780  2.7172 -1.0327 -1.1597
  142DOPC   C1516771   3.671   2.773   6.949  0.9260 -0.3708 -0.1590
  142DOPC  H15A16772   3.595   2.845   6.973  0.8771 -0.7832  1.0248
  142DOPC  H15B16773   3.667   2.700   7.029  3.9592 -1.7149 -1.0591
  142DOPC  H15C16774   3.632   2.726   6.860 -3.1292  1.0637  0.6653
  142DOPC   C1116775   3.930   3.023   6.787 -0.0019 -0.1961 -0.7064
  142DOPC  H11A16776   3.994   2.954   6.728  0.6847 -0.4938  0.3560
  142DOPC  H11B16777   3.903   3.104   6.717  3.6083  1.3692 -0.4782
  142DOPC     P16778   4.017   3.214   6.950  0.1739  0.3167 -0.1573
  142DOPC   O1316779   4.092   3.213   7.081 -0.4177  0.1728 -0.1923
  142DOPC   O1416780   3.883   3.282   6.956 -0.4661 -0.2921 -0.3511
  142DOPC   O1216781   4.004   3.068   6.898 -0.5655  0.5990 -0.5177
  142DOPC   O1116782   4.103   3.289   6.841  0.3118 -0.0751  0.1273
  142DOPC    C116783   4.218   3.222   6.780  0.1722 -0.0215 -0.1029
  142DOPC    HA16784   4.206   3.114   6.757 -0.8089  0.5808 -2.9505
  142DOPC    HB16785   4.313   3.250   6.830  0.2295 -0.9952  0.3425
  142DOPC    C216786   4.228   3.264   6.625 -0.3829 -0.8324 -0.7290
  142DOPC    HS16787   4.220   3.375   6.633  1.4281 -0.7869  2.4887
  142DOPC   O2116788   4.114   3.207   6.558  0.0082  0.4991  0.0338
  142DOPC   C2116789   4.071   3.285   6.458  0.2657 -0.0493  0.0044
  142DOPC   O2216790   4.121   3.387   6.417 -0.2727  0.2166 -0.4099
  142DOPC   C2216791   3.936   3.233   6.411 -0.1455  0.7136 -0.2393
  142DOPC   H2R16792   3.901   3.297   6.327  1.0334  1.7302  0.0253
  142DOPC   H2S16793   3.872   3.245   6.501  0.7233 -0.0462  0.5009
  142DOPC    C316794   4.364   3.213   6.566 -0.3533  0.3960 -0.2494
  142DOPC    HX16795   4.362   3.102   6.571 -0.2098  0.2354 -2.6445
  142DOPC    HY16796   4.453   3.240   6.627  0.3633  1.2216 -1.5994
  142DOPC   O3116797   4.392   3.249   6.430 -0.5628 -0.5144 -0.4158
  142DOPC   C3116798   4.423   3.386   6.432  0.3288 -0.4115  0.3323
  142DOPC   O3216799   4.453   3.453   6.529  0.3562  0.2138 -0.2687
  142DOPC   C3216800   4.419   3.441   6.288  0.7151 -0.3042 -0.4355
  142DOPC   H2X16801   4.365   3.360   6.233 -0.5570 -0.3207  0.7736
  142DOPC   H2Y16802   4.348   3.526   6.300 -2.1932 -2.0161 -3.6964
  142DOPC   C2316803   3.946   3.085   6.369 -0.3512  0.2795 -0.7485
  142DOPC   H3R16804   3.857   3.047   6.315 -2.1459  0.1828  2.0633
  142DOPC   H3S16805   3.950   3.022   6.461 -1.8991  0.3582 -0.5966
  142DOPC   C2416806   4.056   3.056   6.269  0.0191  1.1184  1.0727
  142DOPC   H4R16807   4.037   2.952   6.235  2.1205  0.5278  1.5980
  142DOPC   H4S16808   4.157   3.066   6.313 -0.4636 -0.1569  2.5764
  142DOPC   C2516809   4.045   3.145   6.143  0.2332  0.0872  0.3568
  142DOPC   H5R16810   4.101   3.240   6.159 -0.5240  0.3705  1.4424
  142DOPC   H5S16811   3.937   3.165   6.124 -0.2681 -0.3783  2.3893
  142DOPC   C2616812   4.117   3.071   6.029 -0.4398  0.0761 -0.0984
  142DOPC   H6R16813   4.062   3.103   5.938 -1.3283  1.1934  0.7933
  142DOPC   H6S16814   4.117   2.961   6.041 -0.1888  0.2861  2.3616
  142DOPC   C2716815   4.262   3.109   6.007 -0.2484  0.2990  0.3953
  142DOPC   H7R16816   4.301   3.097   6.110 -0.2178  0.6102  0.4200
  142DOPC   H7S16817   4.266   3.218   5.989  1.3715  0.1669 -0.2084
  142DOPC   C2816818   4.330   3.023   5.901  0.6991 -1.0551  0.4547
  142DOPC   H8R16819   4.292   2.919   5.916 -0.4242 -0.9604 -1.4175
  142DOPC   H8S16820   4.440   3.024   5.915  0.5649  0.3850  1.6210
  142DOPC   C2916821   4.278   3.052   5.762 -0.5798  0.0618 -1.3232
  142DOPC   H9R16822   4.168   3.056   5.758 -0.7150  0.0054  0.9093
  142DOPC  C21016823   4.339   3.062   5.646 -0.1753  0.1318 -0.2646
  142DOPC  H10R16824   4.277   3.091   5.559 -1.2375  0.7287  0.6522
  142DOPC  C21116825   4.493   3.047   5.624  0.2078  0.7224 -0.3358
  142DOPC  H11R16826   4.548   3.072   5.717  0.8687  0.0129 -0.5275
  142DOPC  H11S16827   4.524   3.117   5.544  0.9003  1.0231  0.1874
  142DOPC  C21216828   4.532   2.903   5.575 -0.1613 -0.2364  0.0291
  142DOPC  H12R16829   4.454   2.827   5.597 -2.0546  1.8158  0.8743
  142DOPC  H12S16830   4.632   2.876   5.615 -0.3765 -0.8603  0.1571
  142DOPC  C21316831   4.561   2.910   5.424 -0.7452  0.2181  0.0489
  142DOPC  H13R16832   4.646   2.979   5.409 -0.1560 -0.0283  1.9972
  142DOPC  H13S16833   4.472   2.956   5.377 -0.8606  0.1461  0.1971
  142DOPC  C21416834   4.591   2.777   5.354 -0.0407  0.3069  0.4205
  142DOPC  H14R16835   4.516   2.704   5.392 -0.9529  2.4844  3.1748
  142DOPC  H14S16836   4.689   2.735   5.386  0.2244  0.1496 -0.5827
  142DOPC  C21516837   4.596   2.777   5.199 -0.6715 -0.4745 -0.0669
  142DOPC  H15R16838   4.703   2.787   5.170 -1.0366  1.0075 -0.9972
  142DOPC  H15S16839   4.536   2.860   5.155 -0.7599 -0.7528 -0.4797
  142DOPC  C21616840   4.549   2.647   5.134 -0.1387 -0.1837 -0.2669
  142DOPC  H16R16841   4.492   2.662   5.039 -0.1035 -1.1899 -0.4660
  142DOPC  H16S16842   4.491   2.588   5.209  1.1875 -0.0929  0.8609
  142DOPC  C21716843   4.658   2.552   5.087  0.4421  0.4230 -0.5632
  142DOPC  H17R16844   4.715   2.598   5.003  1.2675  0.0833 -0.1980
  142DOPC  H17S16845   4.599   2.470   5.041 -0.2812 -0.3441  1.5779
  142DOPC  C21816846   4.761   2.504   5.192 -0.3223 -0.1809 -0.2751
  142DOPC  H18R16847   4.715   2.430   5.261 -1.7656  0.9352  0.0279
  142DOPC  H18S16848   4.808   2.588   5.247  0.1225  0.1332 -1.1146
  142DOPC  H18T16849   4.838   2.460   5.126 -0.5286 -0.4119 -0.3644
  142DOPC   C3316850   4.558   3.492   6.238  0.9509  0.2801 -0.2244
  142DOPC   H3X16851   4.609   3.558   6.312 -1.0278  1.1916  0.3988
  142DOPC   H3Y16852   4.545   3.556   6.148  1.9876 -1.1756 -1.4536
  142DOPC   C3416853   4.660   3.382   6.194 -0.1366 -1.0873 -0.5944
  142DOPC   H4X16854   4.603   3.307   6.134 -0.1775 -1.5388  0.0057
  142DOPC   H4Y16855   4.695   3.321   6.280 -2.6610 -0.1292  1.2311
  142DOPC   C3516856   4.778   3.434   6.115 -0.3677 -0.5368  0.1909
  142DOPC   H5X16857   4.848   3.484   6.186  1.3754  0.5337 -2.1136
  142DOPC   H5Y16858   4.745   3.515   6.047 -1.2117 -0.5711  0.5512
  142DOPC   C3616859   4.856   3.320   6.040 -0.0836 -0.1200 -0.4693
  142DOPC   H6X16860   4.903   3.242   6.105  0.5690  0.4851 -0.2024
  142DOPC   H6Y16861   4.772   3.271   5.987 -1.4887  0.4144  1.1688
  142DOPC   C3716862   4.960   3.381   5.950  0.6284 -0.0940  0.1627
  142DOPC   H7X16863   4.908   3.451   5.881 -1.8613 -0.8499  1.1671
  142DOPC   H7Y16864   5.043   3.438   5.997 -0.2873  1.0757  0.3817
  142DOPC   C3816865   5.019   3.270   5.857 -0.4531  0.2775 -0.7425
  142DOPC   H8X16866   4.930   3.204   5.846 -0.1879  0.1124 -2.0401
  142DOPC   H8Y16867   5.088   3.202   5.912  0.3850  0.1498 -1.9130
  142DOPC   C3916868   5.081   3.307   5.723  0.0251 -0.7104  0.9577
  142DOPC   H9X16869   5.191   3.307   5.721  0.0945 -3.6534  0.3703
  142DOPC  C31016870   5.019   3.325   5.612  0.9170 -0.0272  0.6128
  142DOPC  H10X16871   5.083   3.349   5.526 -0.7733  0.5058 -0.5448
  142DOPC  C31116872   4.874   3.319   5.582  0.7105 -0.1239  0.2839
  142DOPC  H11X16873   4.809   3.274   5.661  1.1933 -0.4036  0.5286
  142DOPC  H11Y16874   4.855   3.251   5.496 -1.1101  0.2572  0.3505
  142DOPC  C31216875   4.816   3.461   5.535  0.2892  0.0628 -0.3566
  142DOPC  H12X16876   4.881   3.513   5.461  1.4580 -1.2303 -0.2826
  142DOPC  H12Y16877   4.818   3.517   5.631 -0.5133 -0.6192  0.0624
  142DOPC  C31316878   4.667   3.448   5.489 -0.3588  0.3756  0.1597
  142DOPC  H13X16879   4.612   3.385   5.562 -0.3641 -1.8790 -1.6768
  142DOPC  H13Y16880   4.623   3.549   5.477  0.0875  0.5058 -0.3915
  142DOPC  C31416881   4.639   3.354   5.364 -0.4330 -0.6397  0.0615
  142DOPC  H14X16882   4.651   3.250   5.400 -1.5662 -1.2490 -1.2106
  142DOPC  H14Y16883   4.531   3.352   5.341 -0.1807 -1.3111 -1.1924
  142DOPC  C31516884   4.720   3.389   5.239 -0.4447  0.3136  0.0161
  142DOPC  H15X16885   4.827   3.372   5.262 -0.0431  0.5613 -1.5666
  142DOPC  H15Y16886   4.709   3.496   5.210  2.8938  1.0784  1.1539
  142DOPC  C31616887   4.687   3.298   5.120 -0.9029 -0.4442  0.5325
  142DOPC  H16X16888   4.686   3.198   5.170 -5.6387  0.4422  2.8496
  142DOPC  H16Y16889   4.580   3.314   5.094 -0.6869  0.3769  0.1345
  142DOPC  C31716890   4.779   3.315   4.999  0.6984 -0.3271  0.2181
  142DOPC  H17X16891   4.761   3.415   4.954  1.9522 -0.4572 -0.6365
  142DOPC  H17Y16892   4.884   3.303   5.032  0.2904  2.1419  2.7232
  142DOPC  C31816893   4.767   3.213   4.882  0.6898 -0.7332  0.3050
  142DOPC  H18X16894   4.661   3.186   4.860  0.2739  1.2258 -0.3652
  142DOPC  H18Y16895   4.805   3.274   4.797 -0.4962  0.5035  0.6268
  142DOPC  H18Z16896   4.822   3.119   4.900  0.1622 -1.4239 -1.4744
  143DOPC     N16897   2.163   3.535   7.047 -0.6283 -0.2655  0.5591
  143DOPC   C1216898   2.111   3.492   6.910 -0.1228 -0.7259 -0.4977
  143DOPC  H12A16899   2.024   3.428   6.908 -0.1560 -0.6885 -0.1853
  143DOPC  H12B16900   2.180   3.419   6.869  1.6186 -0.4369  1.7440
  143DOPC   C1316901   2.178   3.422   7.144  0.6473  0.1364  0.1982
  143DOPC  H13A16902   2.186   3.469   7.241 -0.5732 -3.3245  2.1437
  143DOPC  H13B16903   2.090   3.360   7.158 -0.0947  0.8551 -1.0589
  143DOPC  H13C16904   2.261   3.355   7.127 -0.0883 -1.5794  2.7480
  143DOPC   C1416905   2.075   3.627   7.118  0.9179 -0.1833  0.3807
  143DOPC  H14A16906   2.112   3.671   7.209  0.6067  1.1214 -0.1004
  143DOPC  H14B16907   2.034   3.699   7.048  0.4338 -0.4441  0.3924
  143DOPC  H14C16908   1.988   3.573   7.154  0.7971 -0.6167 -0.5243
  143DOPC   C1516909   2.290   3.615   7.026 -0.1586 -0.0775 -0.3888
  143DOPC  H15A16910   2.265   3.687   6.949  1.3220  1.5418  0.5582
  143DOPC  H15B16911   2.373   3.551   7.000 -0.2717 -0.5385  0.3736
  143DOPC  H15C16912   2.312   3.679   7.110  1.0649  1.1863 -1.5888
  143DOPC   C1116913   2.074   3.603   6.801 -0.1459  0.0737 -0.4800
  143DOPC  H11A16914   2.164   3.656   6.763 -0.0123 -0.4489 -0.9117
  143DOPC  H11B16915   2.015   3.550   6.723  0.9076 -1.0475 -0.5554
  143DOPC     P16916   1.973   3.846   6.809  0.2025  0.3761  0.2777
  143DOPC   O1316917   2.109   3.891   6.778  0.7134 -0.0765  0.0717
  143DOPC   O1416918   1.899   3.927   6.908 -0.6875  0.2180  0.0206
  143DOPC   O1216919   1.984   3.693   6.855  0.1891 -0.1291  0.8069
  143DOPC   O1116920   1.895   3.842   6.675 -0.5329 -0.0278  0.5789
  143DOPC    C116921   1.751   3.845   6.665  0.2493 -0.8005 -0.7659
  143DOPC    HA16922   1.731   3.886   6.563  4.4910  2.7757 -0.4684
  143DOPC    HB16923   1.705   3.911   6.742  1.1879  0.4006 -1.1968
  143DOPC    C216924   1.694   3.706   6.671  0.7516  0.2675  0.2469
  143DOPC    HS16925   1.735   3.664   6.765  0.1767 -1.3046 -0.1670
  143DOPC   O2116926   1.761   3.632   6.564  0.4123 -0.4245  0.5043
  143DOPC   C2116927   1.744   3.498   6.567  0.2860  0.4195 -0.2511
  143DOPC   O2216928   1.703   3.434   6.659 -0.3305  0.1168 -0.1567
  143DOPC   C2216929   1.790   3.432   6.434  0.2828 -0.0676 -0.4121
  143DOPC   H2R16930   1.834   3.331   6.452  0.9225 -0.5250 -3.8140
  143DOPC   H2S16931   1.862   3.509   6.398  0.0162  1.0410  1.3163
  143DOPC    C316932   1.539   3.692   6.669  0.3426  0.3213  0.3040
  143DOPC    HX16933   1.487   3.755   6.745 -0.4875  1.0743 -0.8704
  143DOPC    HY16934   1.511   3.585   6.678  1.0552 -0.1349 -2.2859
  143DOPC   O3116935   1.490   3.730   6.537 -0.0627 -0.2116  0.3528
  143DOPC   C3116936   1.412   3.831   6.530 -0.9434 -0.6100  0.7881
  143DOPC   O3216937   1.356   3.884   6.627 -0.1353  0.0810 -0.0493
  143DOPC   C3216938   1.381   3.877   6.386  0.5416  0.5500  0.2631
  143DOPC   H2X16939   1.272   3.856   6.377  0.1828  1.3126  2.3573
  143DOPC   H2Y16940   1.398   3.986   6.376  0.6914  0.5699  0.7204
  143DOPC   C2316941   1.666   3.427   6.340  0.6608  0.3525  0.4560
  143DOPC   H3R16942   1.612   3.522   6.321  1.9066  1.2127  1.0721
  143DOPC   H3S16943   1.588   3.356   6.376  3.1913 -2.7256  0.3582
  143DOPC   C2416944   1.704   3.359   6.201  0.4644 -0.8001 -0.1447
  143DOPC   H4R16945   1.798   3.409   6.169 -0.7993  2.3281  0.6505
  143DOPC   H4S16946   1.628   3.373   6.121 -0.6448 -1.2517  0.8049
  143DOPC   C2516947   1.724   3.208   6.209  0.3262 -0.4660  1.0743
  143DOPC   H5R16948   1.622   3.166   6.226  0.8073 -3.2625 -1.9441
  143DOPC   H5S16949   1.800   3.180   6.285 -0.0318 -0.2615  1.5161
  143DOPC   C2616950   1.772   3.156   6.073  0.1105 -0.1188  0.3149
  143DOPC   H6R16951   1.858   3.218   6.042 -0.5538 -0.0153 -1.4054
  143DOPC   H6S16952   1.691   3.166   5.997 -1.1412  0.4494  1.6481
  143DOPC   C2716953   1.827   3.021   6.097 -0.1529  0.3262  0.2187
  143DOPC   H7R16954   1.744   2.960   6.137 -0.0994 -0.0617 -0.2474
  143DOPC   H7S16955   1.905   3.025   6.176  1.0285  0.3330 -0.9153
  143DOPC   C2816956   1.889   2.959   5.970 -0.3267  0.9571  0.2036
  143DOPC   H8R16957   1.967   2.882   5.989 -1.5098 -0.2791  0.1942
  143DOPC   H8S16958   1.948   3.040   5.920 -0.7221  0.1326 -1.7026
  143DOPC   C2916959   1.791   2.899   5.872  0.6798 -0.3107  0.0137
  143DOPC   H9R16960   1.715   2.831   5.914 -2.7333  2.1295 -1.7646
  143DOPC  C21016961   1.792   2.909   5.745 -0.1987 -0.4240 -0.2285
  143DOPC  H10R16962   1.709   2.871   5.683  0.0959  0.0259 -0.9153
  143DOPC  C21116963   1.894   2.982   5.657 -1.0187  0.8318  0.9059
  143DOPC  H11R16964   1.954   3.054   5.717  3.0763 -0.3672 -1.3632
  143DOPC  H11S16965   1.847   3.035   5.572 -2.0344 -1.3860 -0.0041
  143DOPC  C21216966   2.003   2.884   5.605 -0.1639  0.3248  0.5227
  143DOPC  H12R16967   1.951   2.822   5.530 -0.1149  0.0412  0.7191
  143DOPC  H12S16968   2.047   2.824   5.688 -0.0331 -1.9954 -1.1276
  143DOPC  C21316969   2.124   2.954   5.537 -0.1183  0.3067 -1.5131
  143DOPC  H13R16970   2.162   3.030   5.608 -1.5886  0.6675 -1.0780
  143DOPC  H13S16971   2.085   3.009   5.448  0.1749  1.8066 -0.7398
  143DOPC  C21416972   2.225   2.852   5.500 -0.5326  0.2309 -0.0368
  143DOPC  H14R16973   2.179   2.776   5.432  0.6210 -0.0706 -0.4918
  143DOPC  H14S16974   2.256   2.799   5.592 -1.7695 -0.7432 -0.1508
  143DOPC  C21516975   2.333   2.916   5.410 -0.6109 -0.7166 -0.3694
  143DOPC  H15R16976   2.352   3.024   5.428  0.1168 -0.9950  0.6608
  143DOPC  H15S16977   2.306   2.918   5.303  2.5668  0.5751 -1.2606
  143DOPC  C21616978   2.465   2.842   5.431  0.0782  0.3801  0.4066
  143DOPC  H16R16979   2.458   2.736   5.398 -0.4577  0.9337 -1.4155
  143DOPC  H16S16980   2.479   2.841   5.541 -0.2371  0.8615  0.4523
  143DOPC  C21716981   2.587   2.905   5.367 -0.1051 -0.3540  0.4238
  143DOPC  H17R16982   2.558   2.923   5.261 -1.6535 -4.4478 -0.0280
  143DOPC  H17S16983   2.672   2.833   5.368 -3.1589 -4.3158 -0.3734
  143DOPC  C21816984   2.625   3.041   5.423 -0.5558 -0.1405  0.4034
  143DOPC  H18R16985   2.719   3.077   5.377 -1.2599  0.4910 -0.5976
  143DOPC  H18S16986   2.626   3.038   5.534 -1.7861  2.2620  0.5472
  143DOPC  H18T16987   2.547   3.115   5.397  2.8990  3.6743 -0.0852
  143DOPC   C3316988   1.452   3.797   6.268 -0.6790  0.2188  0.3497
  143DOPC   H3X16989   1.369   3.788   6.195  1.6109 -0.5425 -2.3400
  143DOPC   H3Y16990   1.473   3.693   6.300  1.6789  0.1790 -1.1124
  143DOPC   C3416991   1.574   3.863   6.210  0.3283 -0.6627 -0.3126
  143DOPC   H4X16992   1.655   3.881   6.284 -0.1849 -1.0805  0.3617
  143DOPC   H4Y16993   1.545   3.962   6.168 -0.7028  0.7600  3.3486
  143DOPC   C3516994   1.639   3.773   6.102  0.2995 -0.0169 -0.7962
  143DOPC   H5X16995   1.562   3.772   6.021 -1.4032  0.8504  0.7276
  143DOPC   H5Y16996   1.653   3.679   6.159  0.3678  1.6985  2.2469
  143DOPC   C3616997   1.763   3.838   6.047 -0.1431  0.6325  0.5334
  143DOPC   H6X16998   1.742   3.924   5.980 -0.7763  0.9127  1.0782
  143DOPC   H6Y16999   1.826   3.867   6.134  0.4554 -0.4946  0.4937
  143DOPC   C3717000   1.847   3.737   5.955  0.1072 -0.3490 -0.1395
  143DOPC   H7X17001   1.858   3.635   5.996  3.4679  0.0868  0.3412
  143DOPC   H7Y17002   1.804   3.735   5.853  0.1965  0.7475 -0.2119
  143DOPC   C3817003   1.997   3.796   5.944  0.8369  0.2439 -0.4634
  143DOPC   H8X17004   2.068   3.726   5.896 -0.2335 -0.6496 -0.8011
  143DOPC   H8Y17005   2.022   3.799   6.053 -2.6746  0.7444  0.4621
  143DOPC   C3917006   2.008   3.928   5.874  0.5127  0.1293 -0.1870
  143DOPC   H9X17007   1.997   4.015   5.940  1.8643 -0.1369  0.4401
  143DOPC  C31017008   2.033   3.952   5.742  0.0340 -0.2447  0.2746
  143DOPC  H10X17009   2.046   4.057   5.711  2.7768  0.6528  3.7399
  143DOPC  C31117010   2.057   3.852   5.637 -0.3197  0.9530 -0.1616
  143DOPC  H11X17011   2.005   3.756   5.659 -0.0751  0.2245 -2.4777
  143DOPC  H11Y17012   2.167   3.840   5.631 -0.4860 -1.4949  0.4001
  143DOPC  C31217013   2.008   3.901   5.497 -0.2326 -0.4112  0.5129
  143DOPC  H12X17014   2.047   4.001   5.468 -2.7649  0.2616 -0.8257
  143DOPC  H12Y17015   1.899   3.908   5.513 -0.2967  0.0265 -0.0879
  143DOPC  C31317016   2.027   3.801   5.382  0.2400 -0.3512  0.5855
  143DOPC  H13X17017   2.135   3.797   5.357  0.6539  2.3147  1.6601
  143DOPC  H13Y17018   1.985   3.704   5.416 -1.7636 -0.5730 -2.1861
  143DOPC  C31417019   1.964   3.840   5.248 -0.4229  0.3537 -0.3582
  143DOPC  H14X17020   1.965   3.755   5.176 -0.5922 -0.5271  0.6568
  143DOPC  H14Y17021   1.854   3.854   5.259 -0.6016 -1.6000  0.7405
  143DOPC  C31517022   2.031   3.972   5.197 -0.7018 -0.0388  0.0976
  143DOPC  H15X17023   2.140   3.964   5.217 -0.6227 -1.1257 -0.6518
  143DOPC  H15Y17024   1.989   4.052   5.262  0.4261  2.1166 -1.6901
  143DOPC  C31617025   2.001   4.010   5.049 -0.2144  0.8222  0.3646
  143DOPC  H16X17026   2.080   4.073   5.002  0.6936 -0.0378  0.7093
  143DOPC  H16Y17027   1.992   3.914   4.994 -0.5027  1.9159 -1.6006
  143DOPC  C31717028   1.867   4.085   5.036  0.0919  0.1058 -0.5114
  143DOPC  H17X17029   1.789   4.054   5.109  0.8256  0.4094  0.4342
  143DOPC  H17Y17030   1.886   4.192   5.061  0.1298  0.3121 -1.4188
  143DOPC  C31817031   1.813   4.079   4.898 -0.2422 -0.4369 -0.4724
  143DOPC  H18X17032   1.782   3.979   4.864 -0.4496 -1.2696  1.9571
  143DOPC  H18Y17033   1.728   4.150   4.887 -1.5957 -2.0877 -1.1205
  143DOPC  H18Z17034   1.889   4.131   4.835  0.5466  1.1496  1.6637
  144DOPC     N17035   2.388   2.655   7.482 -0.0876 -0.3042  0.6434
  144DOPC   C1217036   2.498   2.666   7.372 -0.0973 -0.2525 -0.7390
  144DOPC  H12A17037   2.563   2.580   7.383 -0.0954  0.0386  2.6085
  144DOPC  H12B17038   2.556   2.752   7.402 -1.0128 -0.8787  3.4758
  144DOPC   C1317039   2.317   2.790   7.492  0.5428 -0.0339 -0.7782
  144DOPC  H13A17040   2.240   2.780   7.566  2.3200  1.6600  1.4463
  144DOPC  H13B17041   2.389   2.865   7.522 -1.6639  1.9209 -0.0680
  144DOPC  H13C17042   2.271   2.819   7.399 -1.7322  1.3214  0.6717
  144DOPC   C1417043   2.457   2.621   7.606  0.2130  0.3133  0.6570
  144DOPC  H14A17044   2.557   2.662   7.606  0.2699  0.1783  0.3803
  144DOPC  H14B17045   2.388   2.627   7.689 -0.7113  1.5562 -0.1629
  144DOPC  H14C17046   2.477   2.515   7.602 -0.0589  0.3053 -0.9350
  144DOPC   C1517047   2.289   2.542   7.447  0.1392  0.4234 -0.0147
  144DOPC  H15A17048   2.335   2.445   7.453 -0.8328  0.0369  2.2844
  144DOPC  H15B17049   2.239   2.539   7.351  0.5135  0.7197 -0.2204
  144DOPC  H15C17050   2.213   2.542   7.523  2.3977 -1.4307  2.4087
  144DOPC   C1117051   2.456   2.676   7.224 -0.1610 -0.3285  0.1382
  144DOPC  H11A17052   2.545   2.677   7.157  2.1699 -2.4644  2.9455
  144DOPC  H11B17053   2.400   2.581   7.210 -0.2529 -0.2916  0.2571
  144DOPC     P17054   2.422   2.934   7.185  0.5144 -0.2328 -0.2394
  144DOPC   O1317055   2.535   2.960   7.272  0.5806 -0.0015 -0.2063
  144DOPC   O1417056   2.312   3.030   7.185 -0.5134 -0.4622 -0.2406
  144DOPC   O1217057   2.366   2.793   7.211  0.1051  0.7708 -0.1575
  144DOPC   O1117058   2.475   2.917   7.038  0.2847 -0.8210 -0.3473
  144DOPC    C117059   2.403   2.922   6.915 -0.0100  0.6883  0.0692
  144DOPC    HA17060   2.457   2.974   6.833 -2.8148  2.2386 -0.9232
  144DOPC    HB17061   2.310   2.980   6.933  0.1325  0.4013  1.8654
  144DOPC    C217062   2.355   2.782   6.860  0.0037  1.0840 -0.7785
  144DOPC    HS17063   2.293   2.730   6.936  2.7799  0.5033  1.2364
  144DOPC   O2117064   2.481   2.710   6.842  0.3663  0.1486 -0.3494
  144DOPC   C2117065   2.453   2.580   6.817 -0.3061 -0.5538  0.4674
  144DOPC   O2217066   2.345   2.525   6.829  0.3289 -0.2920  1.2173
  144DOPC   C2217067   2.592   2.507   6.795 -0.3301 -0.1804 -0.5279
  144DOPC   H2R17068   2.662   2.536   6.876 -0.9113  1.3442 -0.5287
  144DOPC   H2S17069   2.627   2.558   6.702 -2.4060  0.1868 -1.1668
  144DOPC    C317070   2.263   2.792   6.736 -0.3214 -0.4819  0.7559
  144DOPC    HX17071   2.159   2.823   6.760 -0.9532 -1.9596 -0.0021
  144DOPC    HY17072   2.249   2.695   6.685  1.0053 -0.2320 -0.1227
  144DOPC   O3117073   2.330   2.879   6.635  0.4622  0.4848  0.1656
  144DOPC   C3117074   2.413   2.815   6.553  0.1239 -0.0644  0.7665
  144DOPC   O3217075   2.415   2.698   6.534  0.2572  0.4756 -0.2727
  144DOPC   C3217076   2.491   2.919   6.483 -0.2543  0.4004  0.1389
  144DOPC   H2X17077   2.415   2.989   6.441  0.1892 -0.0849 -1.5264
  144DOPC   H2Y17078   2.538   2.990   6.554 -1.2726 -1.1209  2.4470
  144DOPC   C2317079   2.586   2.349   6.777 -0.0730 -0.1053 -0.3411
  144DOPC   H3R17080   2.499   2.311   6.836 -2.3449  1.7226 -2.3097
  144DOPC   H3S17081   2.681   2.294   6.795 -0.0940 -0.3629 -0.9633
  144DOPC   C2417082   2.551   2.320   6.629  0.4850  0.0854 -0.2503
  144DOPC   H4R17083   2.641   2.326   6.564  0.3920  0.4472 -0.3468
  144DOPC   H4S17084   2.469   2.386   6.594  1.0054 -0.9706 -3.9744
  144DOPC   C2517085   2.493   2.175   6.611  0.6107 -0.7060  0.1198
  144DOPC   H5R17086   2.396   2.170   6.664  0.2924  0.4990 -0.3197
  144DOPC   H5S17087   2.563   2.101   6.657  2.4041  1.2909  0.7911
  144DOPC   C2617088   2.445   2.139   6.476 -0.3090  0.3577 -0.0512
  144DOPC   H6R17089   2.395   2.040   6.478  0.0445  0.0739 -2.2509
  144DOPC   H6S17090   2.528   2.136   6.402  0.8776 -0.4971  1.2741
  144DOPC   C2717091   2.342   2.237   6.427 -0.0619 -0.1629 -0.0822
  144DOPC   H7R17092   2.407   2.318   6.388  0.1319 -0.9668 -1.5183
  144DOPC   H7S17093   2.281   2.275   6.511 -0.7732 -1.1455 -0.1363
  144DOPC   C2817094   2.257   2.194   6.317  0.1272 -0.7213  0.7604
  144DOPC   H8R17095   2.323   2.137   6.248  1.0950 -0.9520  1.8342
  144DOPC   H8S17096   2.227   2.275   6.248  2.0513 -2.0937 -1.8274
  144DOPC   C2917097   2.140   2.112   6.366  0.1459  0.1146  0.1123
  144DOPC   H9R17098   2.077   2.172   6.433  0.5913  1.6175 -0.7493
  144DOPC  C21017099   2.099   1.990   6.324 -0.0736 -0.0852  0.2405
  144DOPC  H10R17100   2.024   1.936   6.383  0.0337  0.5180  0.9431
  144DOPC  C21117101   2.162   1.901   6.222 -0.0691 -0.4866 -0.0219
  144DOPC  H11R17102   2.211   1.817   6.276  0.5706  1.8110  3.2605
  144DOPC  H11S17103   2.238   1.957   6.162 -0.5412 -1.2349 -1.3723
  144DOPC  C21217104   2.068   1.836   6.130  0.1160 -0.5295  0.2176
  144DOPC  H12R17105   1.979   1.785   6.172  1.7137 -1.6338  2.5158
  144DOPC  H12S17106   2.121   1.748   6.087 -0.1208 -0.9719  0.8132
  144DOPC  C21317107   2.026   1.934   6.012 -0.2838 -0.1167 -0.2709
  144DOPC  H13R17108   2.119   1.972   5.964 -0.3002 -0.0315 -0.2353
  144DOPC  H13S17109   1.979   2.022   6.060  1.4009 -1.0420  3.4139
  144DOPC  C21417110   1.933   1.877   5.900 -0.3380 -1.3763 -0.5907
  144DOPC  H14R17111   1.835   1.849   5.943 -0.7520 -0.4851 -0.9302
  144DOPC  H14S17112   1.979   1.789   5.850  2.5737  0.9880 -2.4762
  144DOPC  C21517113   1.896   1.988   5.791 -0.4427  0.3594  0.1079
  144DOPC  H15R17114   1.984   2.044   5.752 -0.4689 -0.2886 -0.9372
  144DOPC  H15S17115   1.822   2.052   5.843 -0.0468  0.7646  0.1781
  144DOPC  C21617116   1.820   1.920   5.674  1.0122 -0.2062  0.2920
  144DOPC  H16R17117   1.735   1.989   5.654  1.6767  0.2757 -0.9286
  144DOPC  H16S17118   1.779   1.817   5.688  0.0203  0.0610 -0.5021
  144DOPC  C21717119   1.914   1.903   5.553  0.1009  0.6279  0.3843
  144DOPC  H17R17120   2.001   1.840   5.581  0.3268  0.1649 -1.2564
  144DOPC  H17S17121   1.968   1.997   5.529  0.1525  0.5222  0.0795
  144DOPC  C21817122   1.845   1.852   5.430  0.7645 -0.1294 -0.4790
  144DOPC  H18R17123   1.776   1.930   5.391  0.8575 -0.6400 -1.7037
  144DOPC  H18S17124   1.787   1.763   5.465 -1.2237  1.2956  0.0281
  144DOPC  H18T17125   1.915   1.829   5.347 -0.2846  1.8205 -1.9855
  144DOPC   C3317126   2.603   2.862   6.393 -0.4170 -0.0355  0.2126
  144DOPC   H3X17127   2.577   2.763   6.350  1.9716 -0.9421  0.6673
  144DOPC   H3Y17128   2.693   2.849   6.458 -0.8968 -1.0607  0.6986
  144DOPC   C3417129   2.636   2.940   6.269  0.6693 -0.1205 -0.3601
  144DOPC   H4X17130   2.625   3.048   6.294  1.0848  0.3565 -2.1159
  144DOPC   H4Y17131   2.551   2.919   6.201 -1.1683  0.0910  1.7425
  144DOPC   C3517132   2.762   2.914   6.187  0.2557 -0.1491 -0.6388
  144DOPC   H5X17133   2.776   2.810   6.150  0.3851 -0.6861  0.8586
  144DOPC   H5Y17134   2.850   2.926   6.254 -0.1509  0.8343 -0.2680
  144DOPC   C3617135   2.775   2.999   6.059 -0.4154  0.2123 -0.7893
  144DOPC   H6X17136   2.689   2.980   5.991 -0.6303 -1.5538 -0.0723
  144DOPC   H6Y17137   2.778   3.106   6.091 -0.5514 -0.3739  1.2938
  144DOPC   C3717138   2.902   2.958   5.979  0.1470  0.3492 -0.3875
  144DOPC   H7X17139   3.000   2.960   6.031  0.2251 -2.8778 -0.2585
  144DOPC   H7Y17140   2.897   2.849   5.961 -1.7379  0.5803 -1.5716
  144DOPC   C3817141   2.895   3.038   5.844  0.6239  0.0656  0.2995
  144DOPC   H8X17142   2.792   3.079   5.844 -0.4777 -2.5175  1.0032
  144DOPC   H8Y17143   2.912   2.968   5.759  3.1297  1.5029 -0.4952
  144DOPC   C3917144   3.001   3.144   5.842 -0.1593  0.2302 -0.0330
  144DOPC   H9X17145   3.098   3.121   5.795 -0.1509  6.2855 -4.1493
  144DOPC  C31017146   2.987   3.277   5.863  0.1743  0.1848 -0.5444
  144DOPC  H10X17147   3.073   3.344   5.874  0.1521  0.3142 -1.1075
  144DOPC  C31117148   2.853   3.346   5.889  0.2652  0.1605 -0.4400
  144DOPC  H11X17149   2.827   3.375   5.994 -6.4627  0.5832 -1.7671
  144DOPC  H11Y17150   2.774   3.274   5.861  2.0183 -1.0536 -2.5432
  144DOPC  C31217151   2.824   3.477   5.817  0.2580 -0.1806  0.6770
  144DOPC  H12X17152   2.906   3.545   5.848  2.7392 -1.9193 -1.5935
  144DOPC  H12Y17153   2.731   3.523   5.857  1.1277  1.7959  0.5333
  144DOPC  C31317154   2.804   3.461   5.662 -0.3573 -0.2776  0.1986
  144DOPC  H13X17155   2.892   3.404   5.624 -1.4854 -1.8942 -0.0700
  144DOPC  H13Y17156   2.713   3.406   5.633 -0.4829  1.2859 -2.7387
  144DOPC  C31417157   2.807   3.594   5.595 -0.2581 -0.0230  0.1643
  144DOPC  H14X17158   2.712   3.647   5.617  0.4467  0.9109  1.0841
  144DOPC  H14Y17159   2.903   3.643   5.623 -0.6116 -0.1996  1.7820
  144DOPC  C31517160   2.812   3.581   5.440 -0.6992 -0.5392 -0.1294
  144DOPC  H15X17161   2.710   3.553   5.405  0.0338 -0.9966 -2.0656
  144DOPC  H15Y17162   2.878   3.498   5.407  0.9492  1.4684 -2.2063
  144DOPC  C31617163   2.855   3.712   5.374  0.0228 -0.1756 -0.2051
  144DOPC  H16X17164   2.783   3.787   5.416  1.3011 -0.3846  2.5920
  144DOPC  H16Y17165   2.952   3.737   5.422  1.3531 -0.8236 -2.4256
  144DOPC  C31717166   2.868   3.693   5.223  0.1970  0.3221  0.2314
  144DOPC  H17X17167   2.951   3.624   5.196 -0.8737  0.4325 -4.0293
  144DOPC  H17Y17168   2.780   3.645   5.176  1.0001 -1.0363  0.0855
  144DOPC  C31817169   2.890   3.823   5.140 -0.4526  0.5040 -0.2170
  144DOPC  H18X17170   2.876   3.808   5.030 -1.8968 -0.2042  0.0432
  144DOPC  H18Y17171   2.809   3.895   5.164  1.1005  2.2894 -0.1690
  144DOPC  H18Z17172   2.991   3.858   5.170  0.1005 -1.3261  0.1750
  145DOPC     N17173   4.557   5.544   7.199  0.3445 -0.2879 -0.0956
  145DOPC   C1217174   4.478   5.491   7.081 -0.0364  0.4766  0.9701
  145DOPC  H12A17175   4.370   5.493   7.083 -0.1145  0.8952 -1.2266
  145DOPC  H12B17176   4.508   5.388   7.072  0.2876  0.5538  1.1915
  145DOPC   C1317177   4.530   5.464   7.319 -0.3331 -0.6586  0.4548
  145DOPC  H13A17178   4.535   5.358   7.300  0.5225 -0.6872  0.7902
  145DOPC  H13B17179   4.600   5.488   7.398 -1.1256  0.4365  0.8418
  145DOPC  H13C17180   4.429   5.481   7.354  0.2160  2.0737  0.9376
  145DOPC   C1417181   4.527   5.690   7.223 -0.0368 -0.3368  0.5991
  145DOPC  H14A17182   4.424   5.698   7.253  0.0971 -0.2447  1.0346
  145DOPC  H14B17183   4.588   5.736   7.299 -2.1562  1.8951  1.0730
  145DOPC  H14C17184   4.550   5.742   7.131  0.7056 -1.0383  0.3799
  145DOPC   C1517185   4.702   5.520   7.186 -0.6614  0.3952  0.0606
  145DOPC  H15A17186   4.723   5.416   7.161  3.6280  0.9289  0.5760
  145DOPC  H15B17187   4.754   5.553   7.275  0.8992  2.2413 -1.4464
  145DOPC  H15C17188   4.748   5.573   7.104  1.1203 -0.6745  0.3029
  145DOPC   C1117189   4.500   5.556   6.939 -0.1249  0.2006 -0.5384
  145DOPC  H11A17190   4.487   5.666   6.932  0.5200  0.4640  1.7154
  145DOPC  H11B17191   4.605   5.530   6.917 -0.0158  1.0519 -1.0360
  145DOPC     P17192   4.426   5.356   6.789  0.2412 -0.4247  0.0333
  145DOPC   O1317193   4.304   5.310   6.712 -0.2217  0.0625 -0.0702
  145DOPC   O1417194   4.460   5.275   6.909  0.2192  0.4883 -0.2568
  145DOPC   O1217195   4.412   5.503   6.834  0.2230 -0.4218 -0.6102
  145DOPC   O1117196   4.549   5.370   6.696 -0.2345 -0.2291  0.4137
  145DOPC    C117197   4.533   5.357   6.550  0.6582 -0.1876 -0.3340
  145DOPC    HA17198   4.466   5.275   6.516 -1.1533  1.4473 -0.9350
  145DOPC    HB17199   4.630   5.326   6.506 -0.6463 -0.6313 -3.1274
  145DOPC    C217200   4.492   5.497   6.490 -0.1133 -0.3122  0.2087
  145DOPC    HS17201   4.387   5.531   6.505  0.7574  2.0821  1.3848
  145DOPC   O2117202   4.517   5.490   6.345 -0.0935 -0.1970 -0.1338
  145DOPC   C2117203   4.417   5.434   6.275 -0.7951  0.4682 -0.9375
  145DOPC   O2217204   4.323   5.376   6.321  0.0199 -0.0021 -0.5450
  145DOPC   C2217205   4.443   5.451   6.133  0.3846 -0.4384 -0.1213
  145DOPC   H2R17206   4.441   5.345   6.098  2.0369 -0.9253  1.0717
  145DOPC   H2S17207   4.545   5.492   6.117  0.9166 -0.7242  2.1473
  145DOPC    C317208   4.573   5.606   6.558 -0.1632  0.1455 -0.0676
  145DOPC    HX17209   4.678   5.571   6.567  0.1232 -0.1573 -3.3667
  145DOPC    HY17210   4.542   5.615   6.665  0.7059  1.0837  0.1222
  145DOPC   O3117211   4.559   5.732   6.485  0.3177  0.1357 -0.5132
  145DOPC   C3117212   4.674   5.802   6.480  0.9949 -0.4957  0.2007
  145DOPC   O3217213   4.774   5.786   6.550  0.1695  0.1433  0.0543
  145DOPC   C3217214   4.679   5.900   6.361 -0.0700 -0.0554 -0.1660
  145DOPC   H2X17215   4.610   5.984   6.382 -0.2161 -0.0793 -0.5397
  145DOPC   H2Y17216   4.783   5.938   6.351  0.4116 -1.0104  0.9833
  145DOPC   C2317217   4.317   5.513   6.064 -0.7373 -0.3724 -0.1571
  145DOPC   H3R17218   4.215   5.482   6.095 -1.3818  1.1608 -0.6494
  145DOPC   H3S17219   4.322   5.481   5.958 -2.6523  0.4847 -0.5502
  145DOPC   C2417220   4.326   5.665   6.059  0.3298  0.0124  0.5055
  145DOPC   H4R17221   4.357   5.698   6.161 -2.8226  1.0765  1.2605
  145DOPC   H4S17222   4.227   5.717   6.054 -0.6534 -1.9065 -2.4723
  145DOPC   C2517223   4.411   5.718   5.949  0.0604  0.3077 -0.0296
  145DOPC   H5R17224   4.508   5.665   5.960  0.0234  0.1832 -0.2904
  145DOPC   H5S17225   4.421   5.826   5.972 -1.9971  0.0503  2.5329
  145DOPC   C2617226   4.364   5.708   5.802 -0.0148  0.1857  0.1730
  145DOPC   H6R17227   4.270   5.767   5.793 -0.1518 -0.1699 -0.7286
  145DOPC   H6S17228   4.343   5.607   5.763 -1.9903  0.8212 -0.5686
  145DOPC   C2717229   4.462   5.770   5.708  0.5213  0.0077  1.1629
  145DOPC   H7R17230   4.567   5.748   5.736  0.1965 -1.6846  1.1730
  145DOPC   H7S17231   4.456   5.880   5.720 -0.4732 -0.2115  3.1699
  145DOPC   C2817232   4.446   5.739   5.552  0.3534 -0.9904 -0.7905
  145DOPC   H8R17233   4.435   5.630   5.538  1.8066 -1.0677 -1.4264
  145DOPC   H8S17234   4.540   5.772   5.504 -0.7814  1.9636 -1.2142
  145DOPC   C2917235   4.336   5.814   5.482 -0.2547 -0.1810  0.1727
  145DOPC   H9R17236   4.358   5.922   5.479 -1.6461  0.1221 -2.7213
  145DOPC  C21017237   4.234   5.760   5.414  0.4823  0.3007 -0.2459
  145DOPC  H10R17238   4.168   5.819   5.349 -0.9374 -1.3253 -0.3435
  145DOPC  C21117239   4.211   5.613   5.398 -0.6931 -0.6556 -0.0460
  145DOPC  H11R17240   4.102   5.597   5.416 -1.4983  3.0728 -0.6731
  145DOPC  H11S17241   4.271   5.546   5.463  1.1253  0.5045 -0.4594
  145DOPC  C21217242   4.246   5.578   5.247  0.6191  0.5473 -0.0733
  145DOPC  H12R17243   4.357   5.576   5.243  0.6812 -2.6016  0.4462
  145DOPC  H12S17244   4.213   5.656   5.176  1.5869 -1.2679 -2.6869
  145DOPC  C21317245   4.201   5.430   5.222 -0.8354 -0.1283 -0.1051
  145DOPC  H13R17246   4.097   5.420   5.260 -1.0294 -0.5208 -0.7298
  145DOPC  H13S17247   4.266   5.359   5.278 -2.2582 -0.5789  1.0400
  145DOPC  C21417248   4.200   5.405   5.067 -0.1835 -0.7179 -0.0775
  145DOPC  H14R17249   4.141   5.491   5.028 -1.7030 -0.7390  1.9723
  145DOPC  H14S17250   4.138   5.313   5.064 -1.5679  0.1958 -1.5103
  145DOPC  C21517251   4.336   5.373   5.008  0.3765 -0.3736 -0.0449
  145DOPC  H15R17252   4.402   5.347   5.094  1.3821 -1.9542 -1.2281
  145DOPC  H15S17253   4.378   5.463   4.958 -0.7766  0.1649 -0.0507
  145DOPC  C21617254   4.341   5.260   4.903  0.7599  1.4907 -0.6410
  145DOPC  H16R17255   4.432   5.275   4.840  1.0091  0.6582 -0.4951
  145DOPC  H16S17256   4.252   5.255   4.837 -1.2328 -0.5286  1.9541
  145DOPC  C21717257   4.345   5.125   4.981 -0.4122 -0.0263 -0.1666
  145DOPC  H17R17258   4.256   5.108   5.046 -0.5656  1.9439  0.1994
  145DOPC  H17S17259   4.434   5.138   5.045  1.0242 -1.2666 -1.8276
  145DOPC  C21817260   4.364   4.991   4.902  0.1568  0.8862  0.5136
  145DOPC  H18R17261   4.382   4.910   4.975 -0.3030  1.3863  1.1959
  145DOPC  H18S17262   4.444   4.998   4.825  0.5519 -0.7988  0.7461
  145DOPC  H18T17263   4.275   4.957   4.846 -0.3550  2.1662  0.5027
  145DOPC   C3317264   4.638   5.830   6.227  0.3415  0.1471  0.2287
  145DOPC   H3X17265   4.528   5.819   6.242 -0.0114  0.3686 -1.9233
  145DOPC   H3Y17266   4.699   5.737   6.216  1.1789  0.9136 -1.9736
  145DOPC   C3417267   4.660   5.915   6.099 -0.3457  0.0185 -0.6228
  145DOPC   H4X17268   4.654   5.851   6.008  3.2135  0.7755 -1.5305
  145DOPC   H4Y17269   4.767   5.943   6.106 -0.8315  1.8078  0.0340
  145DOPC   C3517270   4.562   6.032   6.087  0.1749 -0.3246 -0.1831
  145DOPC   H5X17271   4.586   6.096   6.174 -0.9428  0.3617 -0.3589
  145DOPC   H5Y17272   4.458   5.992   6.094  0.7467 -2.0009 -0.8337
  145DOPC   C3617273   4.565   6.113   5.954  0.9176  0.0864 -0.0897
  145DOPC   H6X17274   4.520   6.051   5.874  0.3337 -0.3179  0.5394
  145DOPC   H6Y17275   4.484   6.189   5.960 -0.9639 -1.6526 -1.9406
  145DOPC   C3717276   4.688   6.183   5.909 -0.2905 -1.2282 -0.2438
  145DOPC   H7X17277   4.665   6.234   5.814 -0.1784  1.0040  0.8653
  145DOPC   H7Y17278   4.729   6.257   5.982 -2.3003  0.1545 -0.4391
  145DOPC   C3817279   4.806   6.090   5.863  0.1926 -0.7531 -0.9840
  145DOPC   H8X17280   4.846   6.038   5.953 -0.8006  2.3054  1.3902
  145DOPC   H8Y17281   4.892   6.151   5.830  0.1884  0.7726  1.5762
  145DOPC   C3917282   4.758   5.986   5.765  1.2332 -0.3693  0.2288
  145DOPC   H9X17283   4.682   5.914   5.800  1.1795 -0.0789  0.7209
  145DOPC  C31017284   4.789   5.977   5.638 -0.4650  0.5785 -0.8031
  145DOPC  H10X17285   4.739   5.893   5.588 -2.4271 -0.1189  2.0583
  145DOPC  C31117286   4.882   6.067   5.560  0.0565  0.8077  0.2388
  145DOPC  H11X17287   4.983   6.024   5.542 -0.5423 -0.1972 -0.8790
  145DOPC  H11Y17288   4.899   6.167   5.606  0.8994 -0.1280  2.0461
  145DOPC  C31217289   4.814   6.090   5.423 -0.5333  0.0377  0.1779
  145DOPC  H12X17290   4.881   6.164   5.374  1.5399 -1.2856  0.8655
  145DOPC  H12Y17291   4.712   6.133   5.422 -0.6891 -0.3344 -0.8026
  145DOPC  C31317292   4.817   5.961   5.343  0.6112  0.2901 -0.2552
  145DOPC  H13X17293   4.849   5.875   5.405  0.4880 -1.3210 -2.3077
  145DOPC  H13Y17294   4.714   5.940   5.308  0.1878  1.5553  0.1996
  145DOPC  C31417295   4.902   5.975   5.219 -0.7355  0.7200 -0.0979
  145DOPC  H14X17296   4.882   6.074   5.172  0.5999  0.6969 -0.7841
  145DOPC  H14Y17297   5.011   5.974   5.244 -0.4469 -0.4026 -1.2838
  145DOPC  C31517298   4.876   5.859   5.107  0.2590 -0.0579 -0.2052
  145DOPC  H15X17299   4.953   5.865   5.027 -0.0855  1.0750 -0.4722
  145DOPC  H15Y17300   4.783   5.887   5.054  0.8698 -0.7254 -1.6852
  145DOPC  C31617301   4.867   5.715   5.167 -0.1663  0.3540 -0.4530
  145DOPC  H16X17302   4.941   5.654   5.111 -2.1839 -1.7097 -1.0230
  145DOPC  H16Y17303   4.906   5.710   5.271  3.1413  0.9136 -1.5283
  145DOPC  C31717304   4.730   5.648   5.144  0.7827 -0.4461  0.3207
  145DOPC  H17X17305   4.723   5.544   5.182 -1.0221 -1.1126 -1.6283
  145DOPC  H17Y17306   4.651   5.704   5.198  0.4512 -1.0196  0.4409
  145DOPC  C31817307   4.688   5.622   4.995  0.6304  0.6726 -0.3587
  145DOPC  H18X17308   4.580   5.594   4.990  0.9987 -0.6177 -1.5422
  145DOPC  H18Y17309   4.706   5.712   4.931  0.6653  1.2106  0.3977
  145DOPC  H18Z17310   4.744   5.537   4.950 -1.6565  0.9220 -4.1153
  146DOPC     N17311   4.521   3.283   7.239  0.2257  0.2184 -0.1720
  146DOPC   C1217312   4.435   3.218   7.135  0.5546 -0.0406 -0.2551
  146DOPC  H12A17313   4.380   3.278   7.064 -1.6555 -1.1796  0.3861
  146DOPC  H12B17314   4.348   3.185   7.191  1.8307 -0.6753  1.4218
  146DOPC   C1317315   4.438   3.396   7.298  0.2362  0.0973  0.4490
  146DOPC  H13A17316   4.431   3.469   7.218  1.3986 -0.3076 -0.0514
  146DOPC  H13B17317   4.339   3.360   7.322 -0.2755  1.4815  0.4812
  146DOPC  H13C17318   4.492   3.450   7.374  1.1924 -0.5047  0.2234
  146DOPC   C1417319   4.644   3.347   7.180 -0.6219  0.1969  0.5704
  146DOPC  H14A17320   4.630   3.411   7.094  0.7194 -2.5868 -1.9277
  146DOPC  H14B17321   4.697   3.409   7.250 -1.6069 -0.0511  1.5656
  146DOPC  H14C17322   4.704   3.263   7.148 -0.9278  0.3424 -0.4161
  146DOPC   C1517323   4.551   3.196   7.355  0.0232  0.1639 -0.0192
  146DOPC  H15A17324   4.623   3.242   7.420  0.4253 -1.0557  0.4378
  146DOPC  H15B17325   4.602   3.108   7.319 -1.1325 -0.6828  0.3336
  146DOPC  H15C17326   4.457   3.170   7.401 -0.5508  0.5729 -0.9271
  146DOPC   C1117327   4.482   3.097   7.050 -0.2414 -0.4355  0.4020
  146DOPC  H11A17328   4.479   3.004   7.111 -0.0387 -0.7494 -0.0600
  146DOPC  H11B17329   4.406   3.083   6.971 -0.5633  1.0457  0.4225
  146DOPC     P17330   4.646   3.165   6.860  0.5384 -0.1643 -0.0368
  146DOPC   O1317331   4.786   3.138   6.825 -0.3850 -0.1287 -0.4423
  146DOPC   O1417332   4.592   3.305   6.852  0.4627 -0.4091  0.5580
  146DOPC   O1217333   4.614   3.105   7.001  0.3912 -0.8669  0.1903
  146DOPC   O1117334   4.548   3.081   6.767 -0.5401  0.4684 -0.6950
  146DOPC    C117335   4.537   2.941   6.784 -0.1925  0.6934 -0.0693
  146DOPC    HA17336   4.430   2.921   6.762 -0.5550  2.4170  0.0139
  146DOPC    HB17337   4.563   2.907   6.886  1.3014  1.4056 -0.1918
  146DOPC    C217338   4.617   2.874   6.673 -0.3373  0.6253 -0.0438
  146DOPC    HS17339   4.717   2.921   6.661 -0.3984  0.2321 -2.9620
  146DOPC   O2117340   4.548   2.880   6.549 -0.1251  0.1267 -0.2784
  146DOPC   C2117341   4.599   2.965   6.460 -0.0885 -0.7707  0.1482
  146DOPC   O2217342   4.700   3.033   6.470 -0.2767  0.5192 -0.0917
  146DOPC   C2217343   4.514   2.980   6.328  0.0153  0.6075  0.5538
  146DOPC   H2R17344   4.513   3.088   6.301 -0.3424  0.6498  0.7330
  146DOPC   H2S17345   4.407   2.960   6.351 -0.1902  1.6402  0.5513
  146DOPC    C317346   4.638   2.722   6.699  0.1135 -0.0440 -0.1598
  146DOPC    HX17347   4.546   2.676   6.657 -0.0836 -0.2656  0.5033
  146DOPC    HY17348   4.633   2.703   6.808 -2.0367 -0.7207 -0.3318
  146DOPC   O3117349   4.752   2.681   6.636 -0.2975 -0.5317  0.4785
  146DOPC   C3117350   4.799   2.554   6.660 -0.5507 -0.5967 -0.1803
  146DOPC   O3217351   4.754   2.478   6.745  0.0757 -0.5156 -0.2916
  146DOPC   C3217352   4.927   2.531   6.576 -0.1995  1.1894  0.5102
  146DOPC   H2X17353   4.986   2.457   6.635 -1.6504  0.0016  0.5234
  146DOPC   H2Y17354   4.898   2.490   6.476  1.0121  2.4201 -0.3724
  146DOPC   C2317355   4.574   2.897   6.219 -0.6156 -0.1112  0.2884
  146DOPC   H3R17356   4.521   2.903   6.121  0.3199  0.4265 -0.2043
  146DOPC   H3S17357   4.567   2.793   6.255 -2.1587  0.0354  0.4734
  146DOPC   C2417358   4.716   2.940   6.183 -0.0260 -0.3068  0.6631
  146DOPC   H4R17359   4.786   2.858   6.211 -0.0574 -1.0274 -1.2280
  146DOPC   H4S17360   4.747   3.033   6.234 -1.3563  0.9655 -0.7512
  146DOPC   C2517361   4.748   2.963   6.036  0.3518  0.2028  0.0722
  146DOPC   H5R17362   4.843   3.020   6.025  2.5174 -3.1849 -0.2108
  146DOPC   H5S17363   4.670   3.026   5.988  1.3050  0.1829 -1.5736
  146DOPC   C2617364   4.748   2.833   5.942 -0.5948 -0.2592  0.1646
  146DOPC   H6R17365   4.706   2.867   5.845 -2.7799 -2.2913  0.3056
  146DOPC   H6S17366   4.671   2.761   5.978 -0.9527 -0.0576 -0.1901
  146DOPC   C2717367   4.897   2.784   5.936 -0.3560  0.0457  0.7959
  146DOPC   H7R17368   4.936   2.757   6.036  1.9355  1.6571  0.4319
  146DOPC   H7S17369   4.973   2.855   5.897 -1.1865 -0.2855 -1.6251
  146DOPC   C2817370   4.901   2.653   5.855 -0.5338  1.3734  0.2188
  146DOPC   H8R17371   4.851   2.570   5.910  0.5701  2.0268  2.3066
  146DOPC   H8S17372   5.005   2.616   5.850 -2.2355 -4.1747 -1.3616
  146DOPC   C2917373   4.840   2.648   5.715  0.4753  0.1604  0.4770
  146DOPC   H9R17374   4.749   2.588   5.698 -0.0129  1.6479 -3.0121
  146DOPC  C21017375   4.892   2.716   5.605 -0.8957  0.0321  0.2313
  146DOPC  H10R17376   4.847   2.710   5.505 -0.9259  0.6932  0.1989
  146DOPC  C21117377   5.019   2.793   5.595  0.6524 -0.1422 -0.0891
  146DOPC  H11R17378   5.094   2.722   5.553 -0.0759 -0.0206 -1.6849
  146DOPC  H11S17379   5.057   2.838   5.689  0.7089 -1.8454  0.7203
  146DOPC  C21217380   5.013   2.912   5.492  0.4178  0.2409  0.1601
  146DOPC  H12R17381   4.946   2.994   5.527 -1.0022  0.1623 -2.1887
  146DOPC  H12S17382   4.979   2.875   5.393  0.5458  1.2872 -0.2773
  146DOPC  C21317383   5.149   2.978   5.462  0.7575 -0.1341 -0.3272
  146DOPC  H13R17384   5.219   2.893   5.445  0.6954 -0.0411 -1.0863
  146DOPC  H13S17385   5.182   3.028   5.555 -0.4347 -0.8122  0.4870
  146DOPC  C21417386   5.148   3.079   5.349  0.0069  0.3314  0.2014
  146DOPC  H14R17387   5.231   3.152   5.361 -1.3585  2.2763 -1.4336
  146DOPC  H14S17388   5.052   3.134   5.354 -0.1823 -0.1159  2.5255
  146DOPC  C21517389   5.165   3.013   5.212  0.4927 -0.3641 -0.1083
  146DOPC  H15R17390   5.066   2.966   5.196 -0.2800  1.1938 -0.1644
  146DOPC  H15S17391   5.252   2.945   5.204  1.0244  0.4308 -1.4904
  146DOPC  C21617392   5.167   3.119   5.103 -0.5290 -0.5227  0.8299
  146DOPC  H16R17393   5.244   3.191   5.137 -1.3997  0.8553 -0.0037
  146DOPC  H16S17394   5.072   3.177   5.109 -0.8922 -1.0461  0.2450
  146DOPC  C21717395   5.199   3.060   4.965 -0.2109  0.6178 -1.0427
  146DOPC  H17R17396   5.125   2.978   4.954  0.9818 -1.1003  2.3891
  146DOPC  H17S17397   5.292   3.005   4.992 -2.9185 -3.2757  1.3072
  146DOPC  C21817398   5.212   3.155   4.848 -0.3384 -0.7299  0.1577
  146DOPC  H18R17399   5.191   3.109   4.749 -1.0717  0.9345 -0.5078
  146DOPC  H18S17400   5.306   3.214   4.852 -1.1226  0.5003  1.3045
  146DOPC  H18T17401   5.129   3.228   4.862  0.1461  0.1715 -1.4562
  146DOPC   C3317402   5.018   2.653   6.554  0.3850 -0.2146 -0.1254
  146DOPC   H3X17403   5.032   2.710   6.648  1.3950 -1.1483  0.3090
  146DOPC   H3Y17404   4.965   2.734   6.499 -1.6747  0.0912  2.1452
  146DOPC   C3417405   5.153   2.624   6.476  0.0075 -1.2499 -0.3723
  146DOPC   H4X17406   5.222   2.549   6.521 -0.1470  0.1644  2.4426
  146DOPC   H4Y17407   5.227   2.706   6.468  0.9591 -2.0785 -0.3234
  146DOPC   C3517408   5.125   2.571   6.342 -0.1880 -0.6582  1.1008
  146DOPC   H5X17409   5.041   2.629   6.297  1.1968  2.0387  1.7743
  146DOPC   H5Y17410   5.081   2.469   6.347  1.2055 -1.2769  1.1041
  146DOPC   C3617411   5.253   2.560   6.251 -0.2235  0.0254 -0.3659
  146DOPC   H6X17412   5.289   2.661   6.221 -1.2991  1.0297  1.5326
  146DOPC   H6Y17413   5.319   2.498   6.316  0.5100  0.4805 -0.6676
  146DOPC   C3717414   5.216   2.486   6.127 -0.0099  0.5853  0.4610
  146DOPC   H7X17415   5.161   2.393   6.153  0.8949 -0.3836 -0.9231
  146DOPC   H7Y17416   5.155   2.542   6.053  0.9029  1.6686  0.5061
  146DOPC   C3817417   5.346   2.433   6.054  0.0476 -0.0377 -0.2943
  146DOPC   H8X17418   5.322   2.346   5.989  0.4760 -0.2710 -0.1525
  146DOPC   H8Y17419   5.419   2.386   6.124  1.5370 -0.5655 -2.1054
  146DOPC   C3917420   5.400   2.551   5.977 -0.0569  1.0120  0.6382
  146DOPC   H9X17421   5.428   2.633   6.044 -2.0155  0.5656  2.0979
  146DOPC  C31017422   5.416   2.562   5.841  0.0373  0.3975 -0.1543
  146DOPC  H10X17423   5.469   2.648   5.798  2.3155 -1.9617 -2.4636
  146DOPC  C31117424   5.377   2.457   5.742  0.5841  0.2141 -0.0815
  146DOPC  H11X17425   5.385   2.357   5.789 -1.3875 -0.0721 -0.2507
  146DOPC  H11Y17426   5.446   2.447   5.656  1.4122 -2.0622  0.7736
  146DOPC  C31217427   5.238   2.455   5.662  0.7146 -0.2578 -0.2125
  146DOPC  H12X17428   5.228   2.545   5.598  0.6857  1.0441  1.5589
  146DOPC  H12Y17429   5.144   2.440   5.720 -1.0586 -0.9552 -3.0709
  146DOPC  C31317430   5.238   2.335   5.566  0.3423 -0.0477  0.1037
  146DOPC  H13X17431   5.340   2.343   5.522  0.0005  2.2559 -0.3945
  146DOPC  H13Y17432   5.222   2.240   5.621 -3.4552  0.2668 -0.2227
  146DOPC  C31417433   5.129   2.346   5.453 -0.7486 -0.2448  0.6953
  146DOPC  H14X17434   5.160   2.426   5.383  1.1683  0.2838  2.0586
  146DOPC  H14Y17435   5.136   2.252   5.394  3.0204  0.0707  0.4359
  146DOPC  C31517436   4.990   2.379   5.498 -0.7502 -0.1373  0.3455
  146DOPC  H15X17437   4.931   2.400   5.406 -1.0083 -2.7452 -0.1574
  146DOPC  H15Y17438   4.993   2.473   5.556 -0.5885 -1.0866  1.9230
  146DOPC  C31617439   4.930   2.263   5.575 -0.0900  0.4122  0.5061
  146DOPC  H16X17440   4.922   2.167   5.519 -2.0301  0.5872  0.4143
  146DOPC  H16Y17441   4.993   2.231   5.660  1.1447  0.1476 -0.4696
  146DOPC  C31717442   4.793   2.285   5.624 -0.5509  0.1534 -0.3730
  146DOPC  H17X17443   4.755   2.200   5.684 -2.7028  0.7962 -0.7477
  146DOPC  H17Y17444   4.791   2.367   5.699  0.7587 -0.3586  0.2546
  146DOPC  C31817445   4.697   2.309   5.511  0.5947  0.5300 -0.4707
  146DOPC  H18X17446   4.723   2.242   5.426  1.2896 -1.1114  0.9668
  146DOPC  H18Y17447   4.596   2.278   5.544  1.4268 -0.5924  1.1128
  146DOPC  H18Z17448   4.691   2.411   5.466  1.1087  0.0355 -1.7149
  147DOPC     N17449   1.144   3.315   7.352 -0.6285  0.2504 -0.0679
  147DOPC   C1217450   1.240   3.205   7.320  0.3766  0.6616 -0.4343
  147DOPC  H12A17451   1.178   3.116   7.323  0.4968  0.5761 -0.4923
  147DOPC  H12B17452   1.299   3.185   7.408 -1.0564  2.2960  0.9817
  147DOPC   C1317453   1.045   3.351   7.245 -0.1060  0.1885  0.2746
  147DOPC  H13A17454   0.993   3.443   7.265  1.8185  1.4324 -0.1655
  147DOPC  H13B17455   1.093   3.353   7.148 -0.5262  2.0721  0.0789
  147DOPC  H13C17456   0.969   3.274   7.239  0.3272 -0.2362  0.1138
  147DOPC   C1417457   1.221   3.438   7.367 -0.1173 -0.0326 -0.2528
  147DOPC  H14A17458   1.267   3.444   7.465 -1.7612  2.1394  0.4723
  147DOPC  H14B17459   1.304   3.441   7.298 -1.5855 -1.4747 -2.1984
  147DOPC  H14C17460   1.160   3.527   7.359 -0.4278 -0.2923 -0.8733
  147DOPC   C1517461   1.081   3.269   7.485  0.1244 -0.1867 -0.2867
  147DOPC  H15A17462   1.031   3.176   7.461 -0.5888  0.0127  0.4047
  147DOPC  H15B17463   1.015   3.346   7.520  1.6723  0.4739  1.3261
  147DOPC  H15C17464   1.154   3.255   7.563 -1.4575  1.0697  1.5075
  147DOPC   C1117465   1.321   3.201   7.187  0.4420 -0.3711  0.7984
  147DOPC  H11A17466   1.373   3.296   7.160  0.9951 -0.4351  1.6006
  147DOPC  H11B17467   1.398   3.122   7.195 -0.8158 -1.8989 -1.1633
  147DOPC     P17468   1.241   3.196   6.935 -0.1555  0.0470 -0.0160
  147DOPC   O1317469   1.273   3.339   6.916 -0.1566 -0.2510  0.0723
  147DOPC   O1417470   1.113   3.141   6.879  0.1252  0.0012 -0.1930
  147DOPC   O1217471   1.226   3.166   7.090 -0.4339 -0.4014  0.0475
  147DOPC   O1117472   1.373   3.109   6.899 -0.1094 -0.0907  0.8697
  147DOPC    C117473   1.358   2.968   6.885  0.4990 -0.1059 -0.0860
  147DOPC    HA17474   1.300   2.945   6.793 -1.5941  1.4799  0.7656
  147DOPC    HB17475   1.311   2.922   6.974  1.0991 -0.4718  0.0537
  147DOPC    C217476   1.499   2.899   6.870  0.5792 -0.0694  0.5355
  147DOPC    HS17477   1.556   2.893   6.966  3.5911 -2.1147 -1.2084
  147DOPC   O2117478   1.572   2.962   6.761  0.1500 -0.4814  0.3875
  147DOPC   C2117479   1.710   2.960   6.770 -0.8487  0.1452 -0.0349
  147DOPC   O2217480   1.784   2.928   6.861  0.5840 -0.4451  0.4824
  147DOPC   C2217481   1.770   3.011   6.633  0.0126  0.2301 -0.2952
  147DOPC   H2R17482   1.808   3.112   6.660  0.4543 -0.1008  0.3773
  147DOPC   H2S17483   1.695   3.018   6.552  0.6262  0.1012 -0.8828
  147DOPC    C317484   1.489   2.748   6.833  0.2180  0.2975  0.3559
  147DOPC    HX17485   1.440   2.687   6.913  1.6526  1.1935  1.9870
  147DOPC    HY17486   1.596   2.722   6.834  0.0799 -0.4602 -1.4749
  147DOPC   O3117487   1.443   2.731   6.690  0.4728  0.7485 -0.7511
  147DOPC   C3117488   1.328   2.673   6.675 -0.3499  0.1201  0.1272
  147DOPC   O3217489   1.261   2.621   6.762 -0.3800  0.3368 -0.3678
  147DOPC   C3217490   1.292   2.675   6.529  0.0945  0.5127  0.6088
  147DOPC   H2X17491   1.268   2.568   6.510  0.1193  0.3878  1.2845
  147DOPC   H2Y17492   1.195   2.729   6.532 -0.1385  0.0500  3.0842
  147DOPC   C2317493   1.902   2.925   6.597  0.3200  0.0950  0.2369
  147DOPC   H3R17494   1.881   2.824   6.638 -0.8221  1.0020  2.0049
  147DOPC   H3S17495   1.989   2.966   6.652  0.0874 -0.8514  1.3565
  147DOPC   C2417496   1.929   2.918   6.445  0.3275 -0.4745 -0.0620
  147DOPC   H4R17497   1.923   3.019   6.399 -0.4736  0.2787  1.6385
  147DOPC   H4S17498   1.851   2.850   6.405  0.1595 -2.8587  3.8372
  147DOPC   C2517499   2.069   2.861   6.416 -0.3738  0.0582  0.0099
  147DOPC   H5R17500   2.084   2.763   6.465 -0.5784  0.6327  1.2752
  147DOPC   H5S17501   2.131   2.933   6.475 -1.1545 -0.1173  1.0869
  147DOPC   C2617502   2.117   2.857   6.267  0.1150 -0.2404  0.6675
  147DOPC   H6R17503   2.132   2.956   6.220  0.0155 -0.2382  0.6387
  147DOPC   H6S17504   2.027   2.813   6.219 -0.8358  0.1994  1.9783
  147DOPC   C2717505   2.238   2.765   6.233 -0.3500 -0.4541  0.3686
  147DOPC   H7R17506   2.225   2.672   6.292  0.1911 -0.8968 -0.1939
  147DOPC   H7S17507   2.333   2.814   6.265 -0.4794 -0.4544  0.7585
  147DOPC   C2817508   2.246   2.721   6.083 -0.1466 -0.0233 -0.0354
  147DOPC   H8R17509   2.146   2.685   6.050 -0.8010  1.4252  0.2694
  147DOPC   H8S17510   2.316   2.635   6.080 -1.8348 -1.4812  0.5735
  147DOPC   C2917511   2.288   2.844   6.007 -0.5577 -0.1590  0.0986
  147DOPC   H9R17512   2.236   2.938   6.029  0.4926  0.5239 -0.2353
  147DOPC  C21017513   2.403   2.854   5.931  0.1772  0.4536 -0.0087
  147DOPC  H10R17514   2.427   2.949   5.881 -0.4126  0.3017 -0.5862
  147DOPC  C21117515   2.503   2.741   5.918 -0.1227 -0.3929  0.8832
  147DOPC  H11R17516   2.490   2.666   5.999 -1.1981 -2.5222 -1.1267
  147DOPC  H11S17517   2.606   2.782   5.916  0.6853 -2.2845  0.5789
  147DOPC  C21217518   2.468   2.666   5.788 -0.8510  0.3930  0.3354
  147DOPC  H12R17519   2.446   2.733   5.702 -2.8528 -1.4094 -0.6478
  147DOPC  H12S17520   2.371   2.613   5.797 -0.9946  0.6096  0.0792
  147DOPC  C21317521   2.581   2.579   5.740  0.4422 -0.2641 -0.1518
  147DOPC  H13R17522   2.548   2.522   5.650  0.3412 -0.2339 -0.1344
  147DOPC  H13S17523   2.616   2.508   5.818  2.1516  1.3384  0.5953
  147DOPC  C21417524   2.706   2.654   5.699 -0.0110  0.0593 -0.2725
  147DOPC  H14R17525   2.764   2.682   5.790  1.2831 -0.1294 -1.0196
  147DOPC  H14S17526   2.671   2.746   5.649 -2.3625 -0.9840 -0.6770
  147DOPC  C21517527   2.796   2.585   5.600 -0.6118  0.5967 -0.5377
  147DOPC  H15R17528   2.860   2.652   5.540  1.2816 -1.2172 -0.6372
  147DOPC  H15S17529   2.722   2.546   5.527 -0.6323 -2.1246  0.8381
  147DOPC  C21617530   2.880   2.468   5.650 -0.1773  0.9951  0.7161
  147DOPC  H16R17531   2.814   2.389   5.692  0.3438  1.1217  1.8250
  147DOPC  H16S17532   2.946   2.497   5.735 -1.2034 -0.0142  1.8973
  147DOPC  C21717533   2.967   2.410   5.536 -0.2613 -0.0563  0.3819
  147DOPC  H17R17534   3.053   2.480   5.527  1.3313 -1.7986  1.4652
  147DOPC  H17S17535   2.909   2.410   5.441 -1.0431 -0.6139  0.8483
  147DOPC  C21817536   3.018   2.271   5.558 -0.2384  0.5469  0.2432
  147DOPC  H18R17537   2.929   2.206   5.575  0.1768 -0.3791 -0.9615
  147DOPC  H18S17538   3.098   2.263   5.634 -1.2012  0.6965  1.2948
  147DOPC  H18T17539   3.060   2.236   5.461 -1.0499  1.3291 -0.4101
  147DOPC   C3317540   1.404   2.724   6.438  0.2756  0.4443 -0.3999
  147DOPC   H3X17541   1.504   2.678   6.458  0.3070  1.5209  2.2242
  147DOPC   H3Y17542   1.412   2.833   6.457 -1.0498  0.6111 -0.6865
  147DOPC   C3417543   1.375   2.704   6.289  0.1493 -0.7807  0.3022
  147DOPC   H4X17544   1.276   2.750   6.272  0.0412 -1.6168 -1.5002
  147DOPC   H4Y17545   1.365   2.594   6.275  4.3382 -1.6727  2.6212
  147DOPC   C3517546   1.490   2.747   6.189  0.1826 -0.3508  0.1780
  147DOPC   H5X17547   1.592   2.716   6.223 -1.2255 -3.0595  2.3942
  147DOPC   H5Y17548   1.489   2.858   6.194 -0.3980 -0.2688 -1.4539
  147DOPC   C3617549   1.460   2.720   6.039  0.1247 -0.0727  0.0878
  147DOPC   H6X17550   1.528   2.785   5.981  0.9696  0.5983  1.7691
  147DOPC   H6Y17551   1.495   2.618   6.012 -0.6723 -0.1575 -0.6621
  147DOPC   C3717552   1.304   2.730   5.995 -0.6340 -0.3026  0.6176
  147DOPC   H7X17553   1.293   2.694   5.891  0.3263 -3.0441  1.3835
  147DOPC   H7Y17554   1.244   2.661   6.059 -1.2316 -1.5322 -1.1702
  147DOPC   C3817555   1.250   2.874   6.016  0.3593 -0.3788 -0.0091
  147DOPC   H8X17556   1.232   2.892   6.125  1.2461  0.9800 -0.0580
  147DOPC   H8Y17557   1.152   2.886   5.965  0.2660 -0.4775  0.1480
  147DOPC   C3917558   1.339   2.988   5.967  0.7192  0.0674  0.9218
  147DOPC   H9X17559   1.396   3.043   6.042  1.2924  0.0190  0.5244
  147DOPC  C31017560   1.346   3.028   5.836  0.9244  0.3218 -0.0072
  147DOPC  H10X17561   1.422   3.103   5.810  2.3450 -1.3206 -0.7686
  147DOPC  C31117562   1.269   2.980   5.716  0.0198 -0.0327 -0.0108
  147DOPC  H11X17563   1.184   3.048   5.693 -0.5939 -0.9210 -0.4460
  147DOPC  H11Y17564   1.224   2.881   5.738  1.6553 -0.9444 -0.5609
  147DOPC  C31217565   1.366   2.986   5.598 -0.1336 -0.3681  0.6577
  147DOPC  H12X17566   1.456   2.923   5.616 -0.3530 -0.6378  0.8170
  147DOPC  H12Y17567   1.397   3.087   5.565 -0.6226 -0.9494 -1.7594
  147DOPC  C31317568   1.303   2.917   5.481 -0.1577 -0.1509 -0.1144
  147DOPC  H13X17569   1.266   2.825   5.531 -0.3169  0.0623  0.1593
  147DOPC  H13Y17570   1.217   2.975   5.442 -0.2250 -0.4157 -0.3640
  147DOPC  C31417571   1.394   2.884   5.361  0.2597 -1.0213 -0.2046
  147DOPC  H14X17572   1.425   2.979   5.312 -2.2668 -0.9327 -1.7957
  147DOPC  H14Y17573   1.479   2.824   5.399  0.0512 -0.9001  0.4687
  147DOPC  C31517574   1.311   2.812   5.252 -0.2111  0.3186  0.3687
  147DOPC  H15X17575   1.230   2.872   5.206 -0.3723 -0.1189  0.0672
  147DOPC  H15Y17576   1.251   2.730   5.298 -0.1228 -2.3411 -3.7616
  147DOPC  C31617577   1.400   2.738   5.149 -0.4473 -0.1921 -0.4226
  147DOPC  H16X17578   1.477   2.683   5.207 -0.5175 -0.6409 -0.7547
  147DOPC  H16Y17579   1.347   2.662   5.087 -0.3525 -1.3232  0.8411
  147DOPC  C31717580   1.479   2.828   5.050  0.1118 -0.4851  0.2552
  147DOPC  H17X17581   1.410   2.910   5.019  1.8096  1.2544  0.9206
  147DOPC  H17Y17582   1.564   2.884   5.094 -0.2647  0.6018 -0.3378
  147DOPC  C31817583   1.533   2.759   4.917 -0.1487 -0.4894  0.0265
  147DOPC  H18X17584   1.581   2.822   4.839 -1.4677 -0.5959 -0.9074
  147DOPC  H18Y17585   1.607   2.680   4.943 -1.4915 -1.7665  0.0720
  147DOPC  H18Z17586   1.448   2.719   4.857  0.4583  1.7707 -2.5392
  148DOPC     N17587   2.834   5.445   7.122  0.3528 -0.4908  0.0579
  148DOPC   C1217588   2.914   5.550   7.058  0.0969 -0.1463 -0.0210
  148DOPC  H12A17589   2.931   5.632   7.125  1.0116 -1.5394  1.5459
  148DOPC  H12B17590   2.849   5.595   6.985  1.5279  1.9218 -0.0985
  148DOPC   C1317591   2.906   5.396   7.241  0.0225 -0.7352 -0.8331
  148DOPC  H13A17592   2.846   5.322   7.293  0.4341 -1.4372 -1.3416
  148DOPC  H13B17593   3.006   5.362   7.218  1.0821  1.5779  0.1208
  148DOPC  H13C17594   2.909   5.471   7.318 -2.0247 -3.0231  1.7144
  148DOPC   C1417595   2.827   5.321   7.025 -0.0186 -0.0412 -0.4428
  148DOPC  H14A17596   2.927   5.282   7.014 -0.4247 -1.4831  0.5907
  148DOPC  H14B17597   2.767   5.249   7.079 -1.4191  0.3585 -1.4045
  148DOPC  H14C17598   2.780   5.354   6.934 -1.9772  1.3468  0.9837
  148DOPC   C1517599   2.698   5.491   7.162  0.5620 -0.0315 -0.8362
  148DOPC  H15A17600   2.706   5.583   7.218 -0.0189  0.7067 -1.9459
  148DOPC  H15B17601   2.640   5.415   7.212  1.4419 -0.6993 -0.7853
  148DOPC  H15C17602   2.640   5.522   7.077  2.2731  2.8819 -1.0565
  148DOPC   C1117603   3.042   5.507   6.978 -0.0547 -0.2541 -0.5354
  148DOPC  H11A17604   3.009   5.422   6.914 -0.7384 -0.4527  0.0798
  148DOPC  H11B17605   3.081   5.584   6.907 -2.1248 -0.0803 -1.5718
  148DOPC     P17606   3.250   5.560   7.136  0.1788 -0.0537 -0.1215
  148DOPC   O1317607   3.369   5.486   7.195  0.2198  0.5937  0.5751
  148DOPC   O1417608   3.175   5.655   7.224  0.2574 -0.4391 -0.1337
  148DOPC   O1217609   3.148   5.457   7.066 -0.8169 -0.1069 -0.1418
  148DOPC   O1117610   3.308   5.637   7.014  0.1968  0.2741 -0.3455
  148DOPC    C117611   3.392   5.566   6.928 -0.7045  0.9960 -0.8784
  148DOPC    HA17612   3.357   5.466   6.895  0.8656 -0.4087  1.3778
  148DOPC    HB17613   3.489   5.533   6.971 -0.0703  1.6915 -1.7412
  148DOPC    C217614   3.431   5.643   6.808  0.2297 -0.0137  0.3207
  148DOPC    HS17615   3.475   5.736   6.850 -2.0864  2.1560 -1.7471
  148DOPC   O2117616   3.315   5.684   6.737  0.0327  0.4410 -0.0050
  148DOPC   C2117617   3.326   5.804   6.677 -0.1065  0.1478 -0.4385
  148DOPC   O2217618   3.422   5.885   6.692  0.1443 -0.7446  0.3578
  148DOPC   C2217619   3.213   5.822   6.572 -0.3240  0.4366 -0.1825
  148DOPC   H2R17620   3.229   5.922   6.528  0.3884  0.2917 -0.2661
  148DOPC   H2S17621   3.117   5.814   6.627 -0.8994 -0.4211 -1.2581
  148DOPC    C317622   3.532   5.555   6.712 -0.3232  0.4960 -0.0712
  148DOPC    HX17623   3.479   5.467   6.669  0.4489  0.3284 -0.7187
  148DOPC    HY17624   3.617   5.513   6.770 -0.0565 -2.9595 -2.6195
  148DOPC   O3117625   3.580   5.633   6.603 -0.2077 -0.2871  0.3121
  148DOPC   C3117626   3.662   5.727   6.621 -1.0262  0.2760 -0.4032
  148DOPC   O3217627   3.709   5.763   6.731  0.4251  0.6306 -0.4219
  148DOPC   C3217628   3.703   5.786   6.489  0.1892  0.2447  0.1724
  148DOPC   H2X17629   3.813   5.775   6.475  0.5417  0.9574  2.0738
  148DOPC   H2Y17630   3.654   5.727   6.409 -0.6627 -0.9478  1.5345
  148DOPC   C2317631   3.220   5.704   6.472 -0.2520 -0.4292  0.9468
  148DOPC   H3R17632   3.124   5.704   6.417  0.0763  0.2069  0.3588
  148DOPC   H3S17633   3.225   5.605   6.522 -1.0542 -0.9297  0.0632
  148DOPC   C2417634   3.329   5.729   6.363 -0.6941  0.1570 -0.0932
  148DOPC   H4R17635   3.423   5.680   6.397  0.2019  1.7252 -0.2412
  148DOPC   H4S17636   3.357   5.836   6.356  1.8298 -0.3621  0.8223
  148DOPC   C2517637   3.279   5.669   6.232 -0.3722 -0.0016 -0.2981
  148DOPC   H5R17638   3.193   5.726   6.192 -0.8405 -0.0188  0.6536
  148DOPC   H5S17639   3.249   5.566   6.259  0.4070 -0.1027  0.2468
  148DOPC   C2617640   3.387   5.666   6.121  0.6872  0.4958 -0.3584
  148DOPC   H6R17641   3.480   5.648   6.178 -0.5909  2.0704  2.4296
  148DOPC   H6S17642   3.399   5.768   6.080 -1.5411  1.0908  0.3052
  148DOPC   C2717643   3.365   5.562   6.012 -0.2289  0.1788  0.0024
  148DOPC   H7R17644   3.274   5.598   5.961 -1.9537  1.3229  3.5764
  148DOPC   H7S17645   3.343   5.466   6.063 -0.4571  0.8667  1.2370
  148DOPC   C2817646   3.482   5.567   5.916  0.4299 -0.1836  0.0222
  148DOPC   H8R17647   3.565   5.522   5.974  1.5775  0.3430 -1.1557
  148DOPC   H8S17648   3.509   5.673   5.895  0.1395 -0.2301 -0.6281
  148DOPC   C2917649   3.470   5.488   5.788  0.0364 -0.5322 -0.3582
  148DOPC   H9R17650   3.483   5.379   5.796 -0.2320 -0.4487  1.7104
  148DOPC  C21017651   3.457   5.543   5.671 -0.0211 -0.5228  0.1556
  148DOPC  H10R17652   3.463   5.476   5.584 -1.1067 -0.5976  0.1241
  148DOPC  C21117653   3.451   5.691   5.641  0.7535 -0.5674  0.9727
  148DOPC  H11R17654   3.421   5.747   5.732  3.7869  3.4949 -0.1832
  148DOPC  H11S17655   3.376   5.709   5.561  0.9204 -1.0890  0.6892
  148DOPC  C21217656   3.579   5.750   5.580  0.1127  0.2577 -0.1929
  148DOPC  H12R17657   3.661   5.763   5.653  0.3548 -0.8258 -0.2565
  148DOPC  H12S17658   3.563   5.848   5.530  3.6279 -0.8567 -4.0172
  148DOPC  C21317659   3.638   5.662   5.464  0.2296 -0.9718  0.0117
  148DOPC  H13R17660   3.563   5.646   5.384 -0.2576  0.4101  0.1692
  148DOPC  H13S17661   3.665   5.560   5.501  2.0323 -0.8699 -0.9124
  148DOPC  C21417662   3.775   5.710   5.406 -0.0662 -0.4723  0.1170
  148DOPC  H14R17663   3.860   5.702   5.476  0.1133 -1.1188 -0.1607
  148DOPC  H14S17664   3.761   5.818   5.384 -0.7963 -0.7298 -0.7837
  148DOPC  C21517665   3.826   5.634   5.283 -0.3053  0.5444 -0.4976
  148DOPC  H15R17666   3.857   5.534   5.319 -1.6142  0.5581  0.8050
  148DOPC  H15S17667   3.920   5.677   5.242  0.1803 -0.6168 -0.6419
  148DOPC  C21617668   3.736   5.610   5.161  0.3472  0.3176 -0.7693
  148DOPC  H16R17669   3.721   5.699   5.097 -1.4096 -0.8908 -2.1441
  148DOPC  H16S17670   3.637   5.567   5.186  0.0182  1.3121 -0.3152
  148DOPC  C21717671   3.797   5.505   5.060 -0.0259  0.8004 -0.5823
  148DOPC  H17R17672   3.898   5.534   5.026 -1.4337  1.6080 -4.6893
  148DOPC  H17S17673   3.731   5.497   4.970 -1.3514 -0.8456  0.4680
  148DOPC  C21817674   3.783   5.362   5.115 -1.4176 -0.1500 -0.8886
  148DOPC  H18R17675   3.680   5.331   5.145 -0.5908 -1.2242  1.0229
  148DOPC  H18S17676   3.852   5.344   5.200  1.1683  0.1757 -2.8224
  148DOPC  H18T17677   3.816   5.292   5.035 -2.8889 -0.4728 -1.2449
  148DOPC   C3317678   3.664   5.925   6.483 -0.1779  0.5073 -0.5466
  148DOPC   H3X17679   3.706   5.991   6.563  0.6362 -0.3491 -0.2502
  148DOPC   H3Y17680   3.553   5.935   6.482 -0.1613  0.6878 -1.0659
  148DOPC   C3417681   3.701   5.987   6.347 -0.5667  0.3564 -0.5647
  148DOPC   H4X17682   3.809   5.981   6.321 -0.7327  1.1295 -1.5017
  148DOPC   H4Y17683   3.675   6.095   6.349  0.0129  0.4970 -0.4003
  148DOPC   C3517684   3.623   5.928   6.225 -0.0133  0.4065 -0.3113
  148DOPC   H5X17685   3.515   5.930   6.249  0.0485  1.3214 -0.0469
  148DOPC   H5Y17686   3.660   5.824   6.216  1.8568  1.0928 -1.1881
  148DOPC   C3617687   3.647   6.013   6.104  0.1836  0.3329  0.0952
  148DOPC   H6X17688   3.607   6.117   6.111  1.7608  0.8974  0.9303
  148DOPC   H6Y17689   3.756   6.024   6.086  0.1228  2.5977  0.7812
  148DOPC   C3717690   3.577   5.944   5.979  0.5008 -0.1044 -0.0099
  148DOPC   H7X17691   3.608   5.837   5.979  0.4470 -0.1192  0.3807
  148DOPC   H7Y17692   3.467   5.952   5.987  0.5097 -1.4983  2.4116
  148DOPC   C3817693   3.611   6.016   5.841  0.3592  0.0113 -0.8756
  148DOPC   H8X17694   3.544   5.959   5.773  0.2430 -1.0059  0.0639
  148DOPC   H8Y17695   3.719   6.002   5.818  0.5114  0.8878 -0.6979
  148DOPC   C3917696   3.575   6.166   5.826 -0.2428  0.0096 -0.2139
  148DOPC   H9X17697   3.638   6.232   5.887 -2.9964  1.7266  0.9932
  148DOPC  C31017698   3.484   6.217   5.745  0.1192 -0.6201 -0.2096
  148DOPC  H10X17699   3.475   6.327   5.744 -2.0967 -0.7626 -1.0070
  148DOPC  C31117700   3.393   6.153   5.645  0.5863  0.8598 -0.4099
  148DOPC  H11X17701   3.289   6.190   5.660  1.1470  1.6154  2.1452
  148DOPC  H11Y17702   3.402   6.044   5.666  1.0736  0.8309 -0.7442
  148DOPC  C31217703   3.433   6.184   5.502 -1.5181  0.5594 -0.1191
  148DOPC  H12X17704   3.543   6.173   5.504 -1.5857 -0.0332  1.7522
  148DOPC  H12Y17705   3.412   6.292   5.489 -1.9756  0.8177  2.2869
  148DOPC  C31317706   3.373   6.098   5.394 -0.0095 -0.4178  0.3504
  148DOPC  H13X17707   3.390   5.996   5.434 -1.1995 -0.7848 -0.0515
  148DOPC  H13Y17708   3.263   6.116   5.391 -0.0278 -0.2986  1.3740
  148DOPC  C31417709   3.436   6.111   5.252  0.7585  0.2602 -0.4019
  148DOPC  H14X17710   3.367   6.155   5.177  0.0881 -2.6502 -1.6477
  148DOPC  H14Y17711   3.522   6.180   5.263  0.6333  0.1391  1.7150
  148DOPC  C31517712   3.487   5.972   5.215 -0.5839 -0.8211 -0.5822
  148DOPC  H15X17713   3.397   5.908   5.215 -0.9429 -0.4111  1.8202
  148DOPC  H15Y17714   3.566   5.939   5.286  0.7629  0.3264 -1.4848
  148DOPC  C31617715   3.558   5.961   5.081  0.1947 -0.5977  0.0393
  148DOPC  H16X17716   3.577   5.853   5.064  1.2660 -0.2980 -0.7211
  148DOPC  H16Y17717   3.497   6.003   4.998 -0.3501  0.1081  0.7731
  148DOPC  C31717718   3.701   6.018   5.075  0.0969 -0.5797  0.2132
  148DOPC  H17X17719   3.702   6.124   5.111  1.3391 -0.3466 -0.4315
  148DOPC  H17Y17720   3.762   5.958   5.146 -0.5339 -3.9571 -1.8938
  148DOPC  C31817721   3.773   6.022   4.942 -0.3944 -0.1791  0.2160
  148DOPC  H18X17722   3.776   5.924   4.891 -0.5677  0.4497 -1.0498
  148DOPC  H18Y17723   3.718   6.087   4.871 -2.0079 -0.5787  1.0674
  148DOPC  H18Z17724   3.874   6.064   4.962  0.0447 -0.9578 -0.3339
  149DOPC     N17725   1.366   1.740   7.014  0.1151  0.4349  0.2486
  149DOPC   C1217726   1.509   1.733   6.967 -0.3500  0.5417  0.2455
  149DOPC  H12A17727   1.520   1.652   6.897  0.4402 -0.8537  1.9157
  149DOPC  H12B17728   1.567   1.706   7.054 -1.9713 -3.8337  0.2168
  149DOPC   C1317729   1.275   1.801   6.910 -0.0155  0.4418 -0.3639
  149DOPC  H13A17730   1.293   1.907   6.917 -1.7681  0.7767 -0.4249
  149DOPC  H13B17731   1.294   1.754   6.815 -0.5958  0.7791 -0.6516
  149DOPC  H13C17732   1.175   1.780   6.945 -0.8896  1.5379 -2.1168
  149DOPC   C1417733   1.356   1.819   7.137  0.6533 -0.0299 -0.3883
  149DOPC  H14A17734   1.408   1.771   7.219  0.8548  1.9707  0.7137
  149DOPC  H14B17735   1.402   1.917   7.132  2.4879 -0.5239  3.3110
  149DOPC  H14C17736   1.254   1.841   7.164  0.4102 -0.1848 -1.1799
  149DOPC   C1517737   1.318   1.601   7.045  0.1885 -0.0924  0.7565
  149DOPC  H15A17738   1.332   1.535   6.961 -0.6672 -1.1508  1.4132
  149DOPC  H15B17739   1.213   1.601   7.067 -0.6843  0.2836 -2.8270
  149DOPC  H15C17740   1.390   1.552   7.110  0.5448  0.3848  0.7313
  149DOPC   C1117741   1.571   1.864   6.908  0.2784  0.2168  0.0240
  149DOPC  H11A17742   1.678   1.846   6.886  0.3561  1.5514 -0.7742
  149DOPC  H11B17743   1.521   1.884   6.811  0.6919 -1.6436 -0.6253
  149DOPC     P17744   1.578   2.117   6.999  0.1540  0.1814  0.2326
  149DOPC   O1317745   1.643   2.157   7.122 -0.1109 -0.1567  0.2202
  149DOPC   O1417746   1.453   2.187   6.960  0.0580 -0.6822 -0.1105
  149DOPC   O1217747   1.561   1.965   7.007 -0.3686 -0.3420  0.2542
  149DOPC   O1117748   1.675   2.136   6.876 -0.2170  0.1569  0.1261
  149DOPC    C117749   1.818   2.128   6.877 -0.4437 -0.5525  0.4222
  149DOPC    HA17750   1.857   2.073   6.789 -0.9817  0.0216 -0.1915
  149DOPC    HB17751   1.860   2.080   6.967  1.2436  2.0386  1.1133
  149DOPC    C217752   1.888   2.269   6.858 -1.1590  0.1250 -0.1499
  149DOPC    HS17753   1.852   2.328   6.944 -0.1286  0.0745  0.3245
  149DOPC   O2117754   1.833   2.330   6.734  0.3042 -0.0796 -0.2377
  149DOPC   C2117755   1.859   2.456   6.711  0.6339 -0.3327  0.0038
  149DOPC   O2217756   1.911   2.538   6.790  0.6865  0.0038  0.4443
  149DOPC   C2217757   1.794   2.487   6.577 -1.4042 -0.0423 -0.4064
  149DOPC   H2R17758   1.769   2.594   6.588 -0.4362  0.2407 -0.8374
  149DOPC   H2S17759   1.694   2.438   6.581 -0.6474 -1.5790  1.9105
  149DOPC    C317760   2.037   2.259   6.867  0.3164 -0.2949 -0.7374
  149DOPC    HX17761   2.052   2.226   6.972 -0.6360  0.5988 -0.3077
  149DOPC    HY17762   2.080   2.360   6.849  0.6331 -0.2728  0.1309
  149DOPC   O3117763   2.083   2.158   6.770  0.2285 -0.5194  0.2138
  149DOPC   C3117764   2.159   2.061   6.824 -0.8664 -0.7832  0.1320
  149DOPC   O3217765   2.191   2.047   6.942 -0.0049 -0.4500 -0.4064
  149DOPC   C3217766   2.166   1.951   6.713  0.1655 -0.6831 -0.0348
  149DOPC   H2X17767   2.114   1.991   6.624 -0.1923  0.4425  0.6563
  149DOPC   H2Y17768   2.276   1.946   6.694  0.3083  2.3881 -0.5090
  149DOPC   C2317769   1.871   2.456   6.451  0.6226 -0.9220 -0.1208
  149DOPC   H3R17770   1.911   2.353   6.443  0.2099 -1.4153  2.8836
  149DOPC   H3S17771   1.964   2.517   6.458  0.4335 -0.7676  1.4337
  149DOPC   C2417772   1.801   2.486   6.316  0.5369  0.7431  0.1470
  149DOPC   H4R17773   1.740   2.578   6.325 -0.4067  0.0487  1.1966
  149DOPC   H4S17774   1.726   2.405   6.303 -0.0963  1.5295 -1.2041
  149DOPC   C2517775   1.895   2.491   6.191 -0.2517 -0.7493 -0.9868
  149DOPC   H5R17776   1.957   2.399   6.192 -0.5713 -1.0207  1.4685
  149DOPC   H5S17777   1.961   2.580   6.198  0.1559 -1.1627  0.9037
  149DOPC   C2617778   1.820   2.517   6.057 -0.0604 -0.2552  0.4863
  149DOPC   H6R17779   1.794   2.625   6.059 -1.4683 -0.5358 -0.9264
  149DOPC   H6S17780   1.734   2.447   6.059 -0.3592  0.0637 -0.5181
  149DOPC   C2717781   1.915   2.486   5.946 -0.2691 -0.5845 -0.1254
  149DOPC   H7R17782   1.951   2.381   5.953  0.7466 -0.1596  1.4450
  149DOPC   H7S17783   1.998   2.560   5.944 -0.8979  0.1227 -0.7083
  149DOPC   C2817784   1.844   2.508   5.815  0.3231 -0.1422  0.9568
  149DOPC   H8R17785   1.930   2.500   5.744  1.9687 -1.0960  2.9375
  149DOPC   H8S17786   1.815   2.615   5.809  1.1839  0.0234 -1.8391
  149DOPC   C2917787   1.732   2.406   5.795 -0.0591  0.1627 -0.0352
  149DOPC   H9R17788   1.755   2.301   5.822 -1.1268 -0.5340 -1.6918
  149DOPC  C21017789   1.609   2.428   5.745 -0.4119 -0.4001  0.4448
  149DOPC  H10R17790   1.533   2.349   5.751 -0.3772 -0.5466 -0.7265
  149DOPC  C21117791   1.562   2.565   5.690  0.0253  0.0621 -0.4245
  149DOPC  H11R17792   1.645   2.638   5.678  0.4323  0.1334  2.2405
  149DOPC  H11S17793   1.496   2.618   5.761  1.8652  0.8259  0.7974
  149DOPC  C21217794   1.466   2.540   5.565 -0.1835 -0.4549 -0.2240
  149DOPC  H12R17795   1.517   2.492   5.478 -1.4390  0.5178 -1.5595
  149DOPC  H12S17796   1.441   2.642   5.527  0.2007 -0.6224 -0.9525
  149DOPC  C21317797   1.335   2.468   5.599  0.0630 -0.0554  0.4800
  149DOPC  H13R17798   1.288   2.505   5.692 -0.4228  0.0520  0.1960
  149DOPC  H13S17799   1.353   2.359   5.605  1.5301  0.1557  0.4647
  149DOPC  C21417800   1.228   2.491   5.479 -0.0914  1.1174 -0.0462
  149DOPC  H14R17801   1.204   2.595   5.450 -2.1826  0.2261 -1.7843
  149DOPC  H14S17802   1.135   2.446   5.519  1.4712 -0.3529  2.2157
  149DOPC  C21517803   1.279   2.428   5.343 -0.2242 -0.6987  0.4071
  149DOPC  H15R17804   1.298   2.320   5.364 -3.4937 -1.3882  0.3200
  149DOPC  H15S17805   1.371   2.474   5.302 -1.3806  1.0795 -0.3119
  149DOPC  C21617806   1.170   2.442   5.230 -0.2502  0.7457  0.9263
  149DOPC  H16R17807   1.137   2.546   5.211 -0.5370  0.2603 -1.4466
  149DOPC  H16S17808   1.082   2.383   5.264 -0.6080  0.7773  0.0798
  149DOPC  C21717809   1.216   2.373   5.094 -0.1196 -0.1254 -0.3689
  149DOPC  H17R17810   1.282   2.286   5.114  0.7317  0.5435 -0.2038
  149DOPC  H17S17811   1.289   2.446   5.053 -0.5549  0.3213 -0.3601
  149DOPC  C21817812   1.099   2.332   5.002  0.2766  0.0189 -0.1629
  149DOPC  H18R17813   1.044   2.425   4.978  0.2503 -0.2606 -1.2285
  149DOPC  H18S17814   1.023   2.269   5.053 -0.4541  1.3746  0.4609
  149DOPC  H18T17815   1.120   2.279   4.907 -1.5020  2.6992 -2.1852
  149DOPC   C3317816   2.105   1.811   6.743 -0.0103 -0.1667  0.8932
  149DOPC   H3X17817   1.999   1.828   6.772  0.3945  0.2598  2.1997
  149DOPC   H3Y17818   2.163   1.761   6.823  0.3866 -0.7029  0.2809
  149DOPC   C3417819   2.113   1.732   6.614  0.0809  0.3034  0.3602
  149DOPC   H4X17820   2.199   1.768   6.553 -0.0951  1.9374  1.0200
  149DOPC   H4Y17821   2.018   1.743   6.556  0.3084 -0.4195 -0.1720
  149DOPC   C3517822   2.117   1.587   6.648 -0.6591 -0.0754  0.2859
  149DOPC   H5X17823   2.029   1.562   6.710 -1.0859  0.7055  0.0062
  149DOPC   H5Y17824   2.207   1.563   6.710  0.3278  0.8408 -0.7314
  149DOPC   C3617825   2.121   1.496   6.524 -0.4527 -0.1653  0.1981
  149DOPC   H6X17826   2.221   1.514   6.480  0.9893  1.1856  3.6396
  149DOPC   H6Y17827   2.128   1.387   6.547 -0.3762 -0.2855 -0.3779
  149DOPC   C3717828   2.009   1.509   6.421  0.0810 -0.2861  0.6138
  149DOPC   H7X17829   2.018   1.607   6.370 -2.0505 -0.0686  0.5929
  149DOPC   H7Y17830   2.015   1.439   6.335 -0.2488  0.6145 -0.1565
  149DOPC   C3817831   1.864   1.492   6.472 -0.4033 -0.3176  1.2580
  149DOPC   H8X17832   1.796   1.518   6.388  1.9285  0.7438 -0.3894
  149DOPC   H8Y17833   1.846   1.576   6.543  0.9676  0.3042  0.9014
  149DOPC   C3917834   1.835   1.362   6.536  1.0824  0.8297 -0.7278
  149DOPC   H9X17835   1.914   1.326   6.603  2.1639  2.3426 -1.1350
  149DOPC  C31017836   1.727   1.279   6.522 -0.0988 -0.1953  0.4459
  149DOPC  H10X17837   1.727   1.186   6.581  3.0914 -1.5598 -1.4439
  149DOPC  C31117838   1.603   1.279   6.430  0.0890  0.1066  0.3310
  149DOPC  H11X17839   1.628   1.343   6.343 -0.0840 -0.2397  0.0267
  149DOPC  H11Y17840   1.513   1.318   6.483  1.3714  2.0729  1.1915
  149DOPC  C31217841   1.571   1.139   6.389 -0.1913  0.4803 -0.5616
  149DOPC  H12X17842   1.551   1.067   6.472 -0.1394 -1.7157 -2.3496
  149DOPC  H12Y17843   1.662   1.104   6.335  0.8793  0.2204  1.3125
  149DOPC  C31317844   1.441   1.135   6.310 -0.3747 -0.7505 -0.4761
  149DOPC  H13X17845   1.435   1.232   6.255 -0.0706 -0.3921  0.1198
  149DOPC  H13Y17846   1.445   1.052   6.236 -1.3238 -1.8213  0.6322
  149DOPC  C31417847   1.319   1.124   6.398 -0.3701  0.6088  0.0308
  149DOPC  H14X17848   1.324   1.030   6.457  1.1011  0.5023 -0.2198
  149DOPC  H14Y17849   1.296   1.203   6.473  0.8546  0.4290  0.6269
  149DOPC  C31517850   1.189   1.103   6.318 -0.3283  0.0659 -0.0170
  149DOPC  H15X17851   1.214   1.041   6.229  3.6478 -0.8130  1.4734
  149DOPC  H15Y17852   1.171   1.207   6.284  0.8918  1.5503  3.4231
  149DOPC  C31617853   1.073   1.053   6.414  0.4678 -0.1992  0.0971
  149DOPC  H16X17854   1.102   0.953   6.451 -1.0697 -0.6120  0.2171
  149DOPC  H16Y17855   1.065   1.118   6.504  0.7199 -0.5695  0.3889
  149DOPC  C31717856   0.943   1.033   6.346 -0.1513  0.7596 -0.4045
  149DOPC  H17X17857   0.871   0.992   6.421  1.1903  0.6602  0.8554
  149DOPC  H17Y17858   0.898   1.133   6.327 -0.5304  1.0266  1.7252
  149DOPC  C31817859   0.928   0.936   6.222 -0.0255 -0.0679  0.3212
  149DOPC  H18X17860   0.825   0.932   6.180  0.0764 -0.9269  0.1370
  149DOPC  H18Y17861   0.984   0.990   6.143 -3.1698  2.2689 -0.5040
  149DOPC  H18Z17862   0.972   0.837   6.245  0.2094  0.0741  0.4892
  150DOPC     N17863   6.536   4.511   7.258  0.2777 -0.1373  0.3105
  150DOPC   C1217864   6.559   4.388   7.168  0.0939 -0.4931 -0.7034
  150DOPC  H12A17865   6.502   4.307   7.211 -0.3483  0.3709  0.3924
  150DOPC  H12B17866   6.665   4.367   7.168  0.9688  3.1224 -0.0619
  150DOPC   C1317867   6.642   4.612   7.219  0.5492 -0.0383 -0.0021
  150DOPC  H13A17868   6.608   4.710   7.248  0.4913  0.6863 -2.3170
  150DOPC  H13B17869   6.733   4.583   7.270 -0.9314 -2.0301  1.6477
  150DOPC  H13C17870   6.660   4.620   7.113 -2.1784  1.0705 -0.4575
  150DOPC   C1417871   6.555   4.494   7.403  0.3726 -0.1487  0.7739
  150DOPC  H14A17872   6.643   4.432   7.415  1.1310  0.4846 -1.0565
  150DOPC  H14B17873   6.574   4.590   7.447 -1.3217  0.9578 -0.7258
  150DOPC  H14C17874   6.473   4.449   7.456  1.0829 -1.4094  0.8398
  150DOPC   C1517875   6.394   4.563   7.237  0.2176 -0.2215 -0.5869
  150DOPC  H15A17876   6.331   4.485   7.278  0.8589 -1.0720 -1.1986
  150DOPC  H15B17877   6.371   4.577   7.132 -1.5690  1.2881 -0.0545
  150DOPC  H15C17878   6.375   4.649   7.300  1.4409 -1.6601  1.8684
  150DOPC   C1117879   6.537   4.400   7.013  0.2346  0.0652  0.6616
  150DOPC  H11A17880   6.531   4.298   6.971 -0.2412  0.6695 -0.7836
  150DOPC  H11B17881   6.436   4.441   6.993  0.3744  0.2564  0.3411
  150DOPC     P17882   6.779   4.406   6.918 -0.1983  0.4158  0.2396
  150DOPC   O1317883   6.810   4.321   7.040 -0.0078 -0.4263  0.5523
  150DOPC   O1417884   6.880   4.501   6.872  0.1626 -0.4915  0.0308
  150DOPC   O1217885   6.633   4.476   6.948 -0.7333 -0.1853  0.3845
  150DOPC   O1117886   6.736   4.308   6.802 -0.2660 -0.2301  0.2279
  150DOPC    C117887   6.701   4.360   6.672  0.2987  0.0897  0.3047
  150DOPC    HA17888   6.705   4.280   6.595  2.0328  3.0084 -2.9714
  150DOPC    HB17889   6.772   4.435   6.628  1.6865 -2.1284 -1.5007
  150DOPC    C217890   6.545   4.407   6.657 -0.1585  0.2780 -0.0490
  150DOPC    HS17891   6.530   4.491   6.728 -2.3342  1.5796 -1.9208
  150DOPC   O2117892   6.461   4.295   6.690 -0.1888  0.7526  0.2196
  150DOPC   C2117893   6.344   4.328   6.740 -0.8294 -0.2488  0.3479
  150DOPC   O2217894   6.312   4.438   6.772 -0.5622 -0.2328 -0.4377
  150DOPC   C2217895   6.247   4.209   6.733 -0.3998 -1.0919 -0.1819
  150DOPC   H2R17896   6.147   4.246   6.763  0.2853  0.6955  0.0040
  150DOPC   H2S17897   6.278   4.137   6.812  3.2543  3.1110  2.6497
  150DOPC    C317898   6.523   4.454   6.514 -0.5997  0.3654 -0.3105
  150DOPC    HX17899   6.506   4.365   6.450 -0.9509 -0.7325  1.2528
  150DOPC    HY17900   6.610   4.510   6.473 -2.8056  1.4202 -4.0860
  150DOPC   O3117901   6.400   4.526   6.506 -0.3336  0.3885  0.4991
  150DOPC   C3117902   6.405   4.655   6.544 -0.1224 -0.8655 -0.3710
  150DOPC   O3217903   6.501   4.725   6.565  0.0518 -0.0326 -0.1167
  150DOPC   C3217904   6.259   4.693   6.562 -0.3639 -0.5020 -0.0642
  150DOPC   H2X17905   6.216   4.621   6.634  0.4063 -1.8556 -0.9172
  150DOPC   H2Y17906   6.267   4.794   6.609 -1.1271 -1.7569  3.0428
  150DOPC   C2317907   6.239   4.135   6.600  0.0155 -0.2537 -0.4238
  150DOPC   H3R17908   6.209   4.033   6.633  1.4205 -0.2337  1.0291
  150DOPC   H3S17909   6.335   4.134   6.545  0.0900  0.1757 -0.3054
  150DOPC   C2417910   6.132   4.188   6.501 -0.3742 -0.2073  0.1650
  150DOPC   H4R17911   6.032   4.202   6.547  0.5877  2.3881  1.6729
  150DOPC   H4S17912   6.118   4.110   6.423  0.4912 -0.1210 -0.0829
  150DOPC   C2517913   6.178   4.311   6.414  0.4861 -0.1684 -0.1070
  150DOPC   H5R17914   6.287   4.292   6.400  0.6206  0.4858  0.0097
  150DOPC   H5S17915   6.157   4.401   6.476  1.0750  0.2769 -0.5392
  150DOPC   C2617916   6.122   4.336   6.276  0.2808 -1.2463 -0.1379
  150DOPC   H6R17917   6.126   4.243   6.217 -2.6669 -1.6590  0.1798
  150DOPC   H6S17918   6.189   4.414   6.234  0.8476 -1.2479  0.7257
  150DOPC   C2717919   5.979   4.392   6.285  0.2604 -0.4852 -0.0139
  150DOPC   H7R17920   5.979   4.476   6.358  1.9495 -0.5516  0.0969
  150DOPC   H7S17921   5.901   4.318   6.313  0.4109 -0.3225  0.8606
  150DOPC   C2817922   5.931   4.467   6.158 -0.6738 -0.4601  0.2405
  150DOPC   H8R17923   6.022   4.517   6.121 -0.4801 -1.1868 -0.2767
  150DOPC   H8S17924   5.863   4.550   6.186 -1.1454 -0.5601 -0.5907
  150DOPC   C2917925   5.868   4.377   6.055 -0.2277 -0.0728 -0.1036
  150DOPC   H9R17926   5.920   4.280   6.058  0.0628  0.0983  1.0488
  150DOPC  C21017927   5.750   4.393   5.989  0.0541 -0.8186  0.1999
  150DOPC  H10R17928   5.714   4.307   5.930  0.5189 -0.7166 -0.2369
  150DOPC  C21117929   5.656   4.518   5.997 -0.0112  0.3354 -0.6246
  150DOPC  H11R17930   5.671   4.583   6.087 -0.8716 -1.2510  0.7194
  150DOPC  H11S17931   5.552   4.485   6.014 -0.8783  2.9504 -0.3910
  150DOPC  C21217932   5.657   4.615   5.877 -0.1973 -0.6775  1.0687
  150DOPC  H12R17933   5.580   4.692   5.901  0.0621 -1.3790  4.7543
  150DOPC  H12S17934   5.629   4.557   5.786  0.9003  2.0724 -1.1602
  150DOPC  C21317935   5.792   4.692   5.852 -0.1746  0.3372 -0.3710
  150DOPC  H13R17936   5.863   4.610   5.828 -0.1284 -0.1769  1.3558
  150DOPC  H13S17937   5.839   4.738   5.942  1.6009 -0.3573 -0.8951
  150DOPC  C21417938   5.787   4.777   5.728  0.2446 -0.8985 -0.2937
  150DOPC  H14R17939   5.743   4.709   5.652  1.0573  0.8424 -2.4218
  150DOPC  H14S17940   5.892   4.803   5.701 -0.2729  1.4649 -0.1669
  150DOPC  C21517941   5.697   4.908   5.737  0.9001 -0.0594 -0.3293
  150DOPC  H15R17942   5.593   4.872   5.750  0.3948  1.2709 -0.5452
  150DOPC  H15S17943   5.714   4.954   5.637 -1.9786 -1.2653 -1.4767
  150DOPC  C21617944   5.731   5.007   5.850 -0.2187  0.5761  0.3055
  150DOPC  H16R17945   5.841   5.022   5.853 -0.2428  0.6658  2.3790
  150DOPC  H16S17946   5.708   4.963   5.949 -1.4553 -2.4769 -1.2218
  150DOPC  C21717947   5.653   5.137   5.833  0.6657  0.3707  0.0365
  150DOPC  H17R17948   5.674   5.203   5.921  3.2507  0.1574 -0.3386
  150DOPC  H17S17949   5.543   5.125   5.822  1.0740 -2.3407 -2.0606
  150DOPC  C21817950   5.700   5.218   5.712 -0.8069 -0.3832  0.6200
  150DOPC  H18R17951   5.647   5.315   5.701 -0.7287 -0.6035 -2.4477
  150DOPC  H18S17952   5.690   5.161   5.618  0.4414 -0.8747  0.7552
  150DOPC  H18T17953   5.811   5.225   5.719 -0.5380 -2.0780 -1.2378
  150DOPC   C3317954   6.174   4.695   6.433  0.2721  0.0057  0.3739
  150DOPC   H3X17955   6.065   4.705   6.449  0.3615 -0.5538  1.3835
  150DOPC   H3Y17956   6.176   4.599   6.377  1.7770 -0.1086  0.5757
  150DOPC   C3417957   6.214   4.805   6.339 -0.3942 -0.2329 -0.1654
  150DOPC   H4X17958   6.320   4.778   6.321 -0.8694 -0.1642 -3.8195
  150DOPC   H4Y17959   6.202   4.903   6.391  0.3822 -0.6769  0.8861
  150DOPC   C3517960   6.151   4.798   6.200  0.4986 -0.7606  0.4165
  150DOPC   H5X17961   6.044   4.815   6.226  0.6427 -2.7008  2.5935
  150DOPC   H5Y17962   6.160   4.715   6.127  1.8522  0.0895 -0.4442
  150DOPC   C3617963   6.175   4.926   6.113 -0.0961 -0.4782 -1.2771
  150DOPC   H6X17964   6.091   4.945   6.043 -4.1378  0.7474  3.2902
  150DOPC   H6Y17965   6.175   5.013   6.182  2.3941 -0.6796 -0.9265
  150DOPC   C3717966   6.314   4.929   6.050  0.0804 -0.0051  0.0491
  150DOPC   H7X17967   6.356   5.030   6.033 -1.5954  0.6451 -0.3975
  150DOPC   H7Y17968   6.376   4.881   6.129 -0.6924  0.3324  0.8801
  150DOPC   C3817969   6.334   4.839   5.932 -0.2179 -0.4933  0.5068
  150DOPC   H8X17970   6.251   4.857   5.859  0.0831 -0.4714  0.1670
  150DOPC   H8Y17971   6.334   4.731   5.959 -0.0793 -1.2138 -2.0864
  150DOPC   C3917972   6.461   4.879   5.860 -0.3653  0.0255  0.6235
  150DOPC   H9X17973   6.509   4.968   5.903 -0.9566  0.5522  0.2082
  150DOPC  C31017974   6.526   4.809   5.763  0.1071 -0.0962  0.4519
  150DOPC  H10X17975   6.620   4.852   5.727 -1.1823  0.8129 -2.0782
  150DOPC  C31117976   6.484   4.678   5.698 -0.5508  0.0253  0.3848
  150DOPC  H11X17977   6.444   4.698   5.597  0.5096 -1.3478 -0.3399
  150DOPC  H11Y17978   6.405   4.621   5.752  0.5155 -1.8520  0.0613
  150DOPC  C31217979   6.610   4.604   5.691 -0.2533 -0.6951 -0.2130
  150DOPC  H12X17980   6.635   4.576   5.796  1.6215 -1.2154 -0.7685
  150DOPC  H12Y17981   6.690   4.668   5.648 -1.1015  0.0733 -0.6878
  150DOPC  C31317982   6.607   4.469   5.615  0.5460 -0.7771  0.3260
  150DOPC  H13X17983   6.553   4.400   5.683  0.6791  0.0891  1.3441
  150DOPC  H13Y17984   6.552   4.481   5.519 -0.0158  1.5920  0.8838
  150DOPC  C31417985   6.751   4.413   5.599 -0.0957  0.2044  0.4730
  150DOPC  H14X17986   6.739   4.324   5.533 -1.2792 -1.7170  3.1274
  150DOPC  H14Y17987   6.818   4.488   5.553  1.1218  0.3250  2.3609
  150DOPC  C31517988   6.804   4.379   5.740 -0.3100 -0.3780  0.4728
  150DOPC  H15X17989   6.727   4.305   5.770 -0.1128 -0.9024 -0.2917
  150DOPC  H15Y17990   6.815   4.460   5.815 -0.7406 -2.7118  3.2281
  150DOPC  C31617991   6.939   4.307   5.740 -0.6326 -0.1486 -0.8489
  150DOPC  H16X17992   6.930   4.217   5.675  3.1524 -0.5878 -0.9788
  150DOPC  H16Y17993   7.012   4.380   5.698  0.7282 -1.8996 -1.6551
  150DOPC  C31717994   6.963   4.246   5.877  0.0729  0.1718  0.0936
  150DOPC  H17X17995   6.887   4.291   5.944  0.5744  1.5545 -0.2413
  150DOPC  H17Y17996   6.972   4.135   5.876  2.5669  0.3196 -0.3229
  150DOPC  C31817997   7.093   4.295   5.940  0.9483 -0.3630 -0.2033
  150DOPC  H18X17998   7.113   4.243   6.036 -0.1857 -0.3281  0.0632
  150DOPC  H18Y17999   7.179   4.284   5.870 -0.3366  0.0304 -1.9313
  150DOPC  H18Z18000   7.097   4.405   5.954  2.4757 -0.4144 -0.0976
  151DOPC     N18001   0.417   4.199   7.096 -0.5741 -0.1331 -0.1913
  151DOPC   C1218002   0.502   4.092   7.038 -0.1083 -0.8722 -0.1210
  151DOPC  H12A18003   0.445   4.023   6.979 -1.7887  1.1985 -1.0643
  151DOPC  H12B18004   0.544   4.030   7.115  1.1703 -0.8802 -0.7957
  151DOPC   C1318005   0.349   4.278   6.987  0.7657 -0.3410  0.2692
  151DOPC  H13A18006   0.281   4.352   7.026  1.4037  0.7975 -0.7561
  151DOPC  H13B18007   0.415   4.335   6.923  1.2573  0.3318  1.3415
  151DOPC  H13C18008   0.287   4.210   6.930  0.8525 -1.7171  1.7289
  151DOPC   C1418009   0.498   4.292   7.169  0.5763  0.5307 -0.4472
  151DOPC  H14A18010   0.556   4.248   7.249 -1.8088 -2.3254 -0.0995
  151DOPC  H14B18011   0.574   4.342   7.110  0.1124  3.2520  1.0975
  151DOPC  H14C18012   0.430   4.366   7.207 -0.7311 -0.8083 -0.0461
  151DOPC   C1518013   0.316   4.141   7.190 -0.0843  0.0033 -0.3171
  151DOPC  H15A18014   0.269   4.053   7.148  2.6564 -1.6104 -0.2419
  151DOPC  H15B18015   0.251   4.225   7.203 -2.0927 -1.3962 -0.7890
  151DOPC  H15C18016   0.355   4.113   7.286  0.4362 -1.7429 -0.9854
  151DOPC   C1118017   0.625   4.138   6.948  0.8835 -0.5214 -0.0879
  151DOPC  H11A18018   0.590   4.213   6.874 -0.6597  0.1291  1.2337
  151DOPC  H11B18019   0.684   4.203   7.017 -1.0537  0.2076  0.9588
  151DOPC     P18020   0.768   3.920   6.980 -0.5393  0.2554 -0.1072
  151DOPC   O1318021   0.676   3.849   7.068 -0.6316  0.1161 -0.2562
  151DOPC   O1418022   0.874   4.000   7.046  0.6169  0.6884  0.2862
  151DOPC   O1218023   0.683   4.022   6.889 -0.5140  0.4662 -0.4008
  151DOPC   O1118024   0.852   3.820   6.885 -0.1494  0.5412 -0.5953
  151DOPC    C118025   0.924   3.874   6.772 -0.1192  0.4433 -0.5506
  151DOPC    HA18026   1.022   3.915   6.804 -1.1757  2.9930 -0.2822
  151DOPC    HB18027   0.870   3.964   6.735  0.0490  0.7149 -0.1514
  151DOPC    C218028   0.939   3.769   6.655 -0.2511 -0.6624  0.0440
  151DOPC    HS18029   0.851   3.702   6.646 -0.9993  0.4475 -1.3720
  151DOPC   O2118030   1.066   3.700   6.667 -0.1693 -0.1123  0.5187
  151DOPC   C2118031   1.063   3.583   6.611  0.2033  0.3562  0.0165
  151DOPC   O2218032   0.959   3.535   6.563  0.0296  0.1413 -0.3607
  151DOPC   C2218033   1.195   3.512   6.640  1.0836 -0.0391  0.0474
  151DOPC   H2R18034   1.199   3.462   6.739  0.9971 -1.3412 -0.5858
  151DOPC   H2S18035   1.266   3.596   6.652 -0.6319  1.1321  3.5738
  151DOPC    C318036   0.929   3.856   6.523 -0.2777 -0.0714 -0.9319
  151DOPC    HX18037   1.003   3.932   6.554 -2.4598  1.5518  0.5567
  151DOPC    HY18038   0.830   3.906   6.530 -1.0818 -1.7472  0.7310
  151DOPC   O3118039   0.956   3.789   6.397 -0.0802 -0.8112 -0.4099
  151DOPC   C3118040   0.842   3.734   6.351 -0.1132  0.7419 -0.3282
  151DOPC   O3218041   0.730   3.732   6.404  0.1839 -0.6609 -0.2355
  151DOPC   C3218042   0.881   3.654   6.233  0.3720 -0.1424 -0.0236
  151DOPC   H2X18043   0.852   3.718   6.147  2.9620  1.1194 -0.0682
  151DOPC   H2Y18044   0.991   3.637   6.238  0.1095 -1.5243  2.4227
  151DOPC   C2318045   1.237   3.408   6.530 -0.3952 -0.4529 -0.0163
  151DOPC   H3R18046   1.172   3.319   6.536  0.9060 -1.3892  0.6521
  151DOPC   H3S18047   1.341   3.373   6.547 -0.2120 -0.4144 -1.0253
  151DOPC   C2418048   1.228   3.465   6.385  0.2013 -0.9635  0.3225
  151DOPC   H4R18049   1.295   3.554   6.381  0.7344 -1.3684 -0.0627
  151DOPC   H4S18050   1.123   3.492   6.362  0.1622 -0.8186  0.6796
  151DOPC   C2518051   1.277   3.371   6.271  0.3285  0.0393  0.4501
  151DOPC   H5R18052   1.219   3.277   6.274  0.2678  0.0629  0.1209
  151DOPC   H5S18053   1.382   3.336   6.282  0.7155  0.9712 -0.1203
  151DOPC   C2618054   1.272   3.436   6.131  0.4250  0.6849  0.1843
  151DOPC   H6R18055   1.336   3.525   6.113  1.6386 -0.0218  0.9254
  151DOPC   H6S18056   1.169   3.470   6.105  0.1274 -1.1886 -1.2983
  151DOPC   C2718057   1.320   3.332   6.028  0.4688 -0.4023 -0.4771
  151DOPC   H7R18058   1.255   3.242   6.035  0.2738 -0.3389 -1.2951
  151DOPC   H7S18059   1.425   3.300   6.045  1.1264  1.3933 -0.9053
  151DOPC   C2818060   1.315   3.387   5.887 -0.0929 -0.1530 -0.0974
  151DOPC   H8R18061   1.209   3.421   5.884  0.5799  2.3333  1.1250
  151DOPC   H8S18062   1.320   3.308   5.809 -1.0341 -1.1893  0.8578
  151DOPC   C2918063   1.421   3.504   5.861  0.0445 -0.1605  0.5957
  151DOPC   H9R18064   1.395   3.599   5.910 -0.0662 -0.7157  1.6490
  151DOPC  C21018065   1.531   3.494   5.784 -0.0084  0.0080  0.2948
  151DOPC  H10R18066   1.606   3.573   5.772  1.1784 -1.4730 -3.5671
  151DOPC  C21118067   1.579   3.377   5.704  0.2193 -0.3089 -0.3627
  151DOPC  H11R18068   1.518   3.287   5.727  1.0537 -0.8616 -0.3144
  151DOPC  H11S18069   1.684   3.353   5.731  0.0399  0.6369  1.3577
  151DOPC  C21218070   1.565   3.389   5.552  0.0254  0.1129 -0.1715
  151DOPC  H12R18071   1.609   3.485   5.518 -1.9793  0.6270 -1.4781
  151DOPC  H12S18072   1.461   3.405   5.516 -0.3042  0.9749  1.0914
  151DOPC  C21318073   1.635   3.273   5.478 -0.1311 -0.6971 -0.4493
  151DOPC  H13R18074   1.577   3.180   5.461  1.0142 -1.2436 -1.5190
  151DOPC  H13S18075   1.724   3.244   5.537 -0.3045 -2.1916 -0.8892
  151DOPC  C21418076   1.689   3.331   5.343 -0.2906  0.4899 -0.8767
  151DOPC  H14R18077   1.767   3.406   5.369 -2.9323  2.7446  1.1137
  151DOPC  H14S18078   1.606   3.383   5.290 -0.1334 -0.8120 -2.4836
  151DOPC  C21518079   1.733   3.234   5.233 -0.7060  0.7691  0.8768
  151DOPC  H15R18080   1.656   3.159   5.208  0.3292  0.3194 -1.2336
  151DOPC  H15S18081   1.825   3.183   5.269 -1.3068 -2.1472 -1.3586
  151DOPC  C21618082   1.761   3.311   5.103  0.0902 -0.1009  0.9475
  151DOPC  H16R18083   1.809   3.410   5.119 -0.3355  0.0672  1.1737
  151DOPC  H16S18084   1.666   3.343   5.055  0.0428 -0.0611  1.0671
  151DOPC  C21718085   1.838   3.228   4.994  0.4414  0.1165  0.3531
  151DOPC  H17R18086   1.947   3.217   5.010  1.3262  0.8936 -3.9351
  151DOPC  H17S18087   1.827   3.296   4.906  1.7860 -0.5957 -0.3912
  151DOPC  C21818088   1.767   3.099   4.952 -0.5300  0.1025  0.4335
  151DOPC  H18R18089   1.770   3.026   5.035 -1.7029 -2.0962 -1.3441
  151DOPC  H18S18090   1.821   3.043   4.872 -0.0842 -0.5412  1.1644
  151DOPC  H18T18091   1.660   3.118   4.931 -0.5633 -1.9103 -1.7604
  151DOPC   C3318092   0.809   3.514   6.214  0.1756  0.6709 -0.8921
  151DOPC   H3X18093   0.864   3.443   6.279  0.6015  3.5372  2.1864
  151DOPC   H3Y18094   0.842   3.493   6.110  1.7198 -1.6546 -0.0031
  151DOPC   C3418095   0.660   3.496   6.229 -0.1003  0.0280 -0.1206
  151DOPC   H4X18096   0.625   3.519   6.332 -1.6165  1.8062 -0.9754
  151DOPC   H4Y18097   0.629   3.391   6.212 -2.1525  0.8441 -1.8320
  151DOPC   C3518098   0.582   3.578   6.124  0.2902 -0.4676  0.3634
  151DOPC   H5X18099   0.593   3.527   6.025  0.6021  0.3437 -0.0295
  151DOPC   H5Y18100   0.614   3.684   6.112 -0.2480 -0.2363  0.9459
  151DOPC   C3618101   0.433   3.569   6.160 -0.2581 -0.1874  0.1336
  151DOPC   H6X18102   0.407   3.462   6.168 -0.7998 -0.0553  0.1794
  151DOPC   H6Y18103   0.426   3.607   6.265 -0.7701 -1.6039  0.6321
  151DOPC   C3718104   0.334   3.648   6.074  0.9209 -0.0342  0.1926
  151DOPC   H7X18105   0.247   3.695   6.126  0.1267  0.2989 -1.4012
  151DOPC   H7Y18106   0.399   3.728   6.032  2.7751 -1.6508 -0.1758
  151DOPC   C3818107   0.281   3.575   5.950  0.3180  0.3731  0.1164
  151DOPC   H8X18108   0.371   3.527   5.907 -1.0511 -0.2455 -2.2710
  151DOPC   H8Y18109   0.242   3.649   5.877  1.2052  2.7651  1.9484
  151DOPC   C3918110   0.188   3.472   5.996 -0.2715  0.2020  0.3671
  151DOPC   H9X18111   0.184   3.454   6.104 -1.9046 -0.0177  0.3058
  151DOPC  C31018112   0.108   3.405   5.916 -0.1652 -0.0402  0.3280
  151DOPC  H10X18113   0.032   3.343   5.966 -0.0460 -1.0011 -0.6231
  151DOPC  C31118114   0.084   3.415   5.767  0.1793  0.0166 -0.3749
  151DOPC  H11X18115   0.145   3.340   5.713 -1.1956  0.4711 -2.6505
  151DOPC  H11Y18116   0.131   3.508   5.727  0.8977 -0.6815 -1.2025
  151DOPC  C31218117  -0.061   3.426   5.719  0.0491 -0.0414  0.1140
  151DOPC  H12X18118  -0.070   3.445   5.610 -2.2141  0.3776  0.3191
  151DOPC  H12Y18119  -0.100   3.513   5.776 -0.3874 -0.5285  0.5717
  151DOPC  C31318120  -0.140   3.302   5.754 -0.7496  0.4479  0.9734
  151DOPC  H13X18121  -0.080   3.217   5.715 -1.6164  0.4041 -0.3109
  151DOPC  H13Y18122  -0.131   3.286   5.864 -0.0114  1.2094  1.0380
  151DOPC  C31418123  -0.279   3.285   5.686  0.0063 -0.2297 -0.5756
  151DOPC  H14X18124  -0.330   3.204   5.741  0.1393  0.5682  0.7494
  151DOPC  H14Y18125  -0.330   3.380   5.712 -0.0168 -0.9616  2.3187
  151DOPC  C31518126  -0.267   3.271   5.531  0.1254 -0.2895 -0.5936
  151DOPC  H15X18127  -0.238   3.370   5.490 -1.5821  0.9562  1.0488
  151DOPC  H15Y18128  -0.373   3.250   5.503 -0.2444  1.4219 -0.5808
  151DOPC  C31618129  -0.176   3.152   5.482  0.2463 -0.3264 -0.1162
  151DOPC  H16X18130  -0.069   3.183   5.490  0.8306 -1.2023 -3.2110
  151DOPC  H16Y18131  -0.192   3.065   5.549  0.1313  2.0760  3.2613
  151DOPC  C31718132  -0.206   3.108   5.335 -0.0986 -0.4890 -0.4774
  151DOPC  H17X18133  -0.298   3.047   5.346  0.5425 -1.2233  1.0906
  151DOPC  H17Y18134  -0.224   3.189   5.261  1.6191 -1.0284 -1.5329
  151DOPC  C31818135  -0.101   3.014   5.274 -0.2113  0.1288  0.3109
  151DOPC  H18X18136  -0.136   2.977   5.175  1.0752 -1.1480  0.2942
  151DOPC  H18Y18137  -0.013   3.071   5.238 -2.9239  3.9423 -0.8504
  151DOPC  H18Z18138  -0.087   2.932   5.348 -0.6760  0.4174  0.7284
  152DOPC     N18139   3.557   0.222   7.426 -0.0247 -0.0016  0.1045
  152DOPC   C1218140   3.540   0.356   7.344  0.1288  0.4045  0.3828
  152DOPC  H12A18141   3.602   0.438   7.376  0.1184  0.3550  0.5316
  152DOPC  H12B18142   3.442   0.394   7.368  0.9572  2.3070  0.9063
  152DOPC   C1318143   3.524   0.246   7.569 -0.1905 -0.6005  0.3919
  152DOPC  H13A18144   3.598   0.314   7.610  1.0969 -1.6403 -0.1370
  152DOPC  H13B18145   3.425   0.283   7.592  0.2419  0.8777  0.0076
  152DOPC  H13C18146   3.539   0.158   7.630  0.3149  0.2560  1.5455
  152DOPC   C1418147   3.690   0.160   7.410  0.0551 -0.7198  0.8522
  152DOPC  H14A18148   3.763   0.229   7.452 -0.1837  0.1204 -0.0703
  152DOPC  H14B18149   3.696   0.068   7.465  0.0454 -0.1977  1.7522
  152DOPC  H14C18150   3.706   0.144   7.304 -2.5284  0.3710  0.2340
  152DOPC   C1518151   3.455   0.117   7.385 -0.3754 -0.8840 -1.0170
  152DOPC  H15A18152   3.467   0.026   7.441 -0.6505  0.7362  1.8188
  152DOPC  H15B18153   3.459   0.096   7.279  0.4627 -1.7322 -0.8297
  152DOPC  H15C18154   3.359   0.160   7.409  1.0344  2.3943 -0.6814
  152DOPC   C1118155   3.545   0.337   7.191 -0.1858  0.0618  0.7355
  152DOPC  H11A18156   3.477   0.257   7.154 -0.8857  0.0849  1.9384
  152DOPC  H11B18157   3.508   0.434   7.152  2.1897  0.3914 -0.9608
  152DOPC     P18158   3.708   0.298   7.000  0.1724  0.1186  0.1835
  152DOPC   O1318159   3.657   0.168   6.946 -0.3245 -0.0852  0.0014
  152DOPC   O1418160   3.852   0.317   6.981 -0.0842 -0.0395 -0.2910
  152DOPC   O1218161   3.680   0.309   7.142  0.2856  0.1124 -0.0048
  152DOPC   O1118162   3.629   0.423   6.938 -0.1637 -0.3623  0.1046
  152DOPC    C118163   3.667   0.559   6.958  0.9053 -0.9457 -0.8296
  152DOPC    HA18164   3.776   0.574   6.971  0.6189 -0.2906  1.1383
  152DOPC    HB18165   3.623   0.582   7.057 -1.2583  0.6165 -2.0582
  152DOPC    C218166   3.603   0.660   6.862  0.0003  0.5274 -0.0213
  152DOPC    HS18167   3.493   0.642   6.860  0.2228 -1.2215  1.2958
  152DOPC   O2118168   3.662   0.656   6.732  0.3557  0.0595 -0.7297
  152DOPC   C2118169   3.583   0.591   6.640  0.9951 -0.5750  0.0260
  152DOPC   O2218170   3.480   0.531   6.670  0.0545 -0.1306  0.3353
  152DOPC   C2218171   3.641   0.619   6.503  0.0683 -0.7015  0.3368
  152DOPC   H2R18172   3.607   0.531   6.444  1.6851 -2.1295  1.4300
  152DOPC   H2S18173   3.752   0.606   6.509  0.5979  2.0892 -1.5690
  152DOPC    C318174   3.621   0.800   6.917  0.1364  0.5856 -0.3195
  152DOPC    HX18175   3.727   0.826   6.895  0.2277 -0.7237 -1.5795
  152DOPC    HY18176   3.605   0.803   7.027 -0.5412 -1.1560 -0.3310
  152DOPC   O3118177   3.530   0.899   6.854 -0.4925  0.0216  0.3443
  152DOPC   C3118178   3.515   1.020   6.916  0.0740  0.4486  0.2117
  152DOPC   O3218179   3.565   1.041   7.028  0.5024  0.1872  0.3818
  152DOPC   C3218180   3.415   1.106   6.833  0.4389 -0.2388  0.3882
  152DOPC   H2X18181   3.476   1.172   6.767  0.6170 -1.1280 -0.3514
  152DOPC   H2Y18182   3.359   1.038   6.765 -0.5493  0.2940  0.6494
  152DOPC   C2318183   3.600   0.756   6.450 -0.3537 -0.4583 -0.8720
  152DOPC   H3R18184   3.661   0.826   6.511 -0.5087 -1.6541  0.6993
  152DOPC   H3S18185   3.492   0.766   6.473 -0.1974  1.6953 -0.7988
  152DOPC   C2418186   3.601   0.771   6.298 -0.8863  0.7181 -0.0357
  152DOPC   H4R18187   3.513   0.721   6.252 -0.8733  0.5654  0.1052
  152DOPC   H4S18188   3.694   0.718   6.267  0.1456  1.8109  1.0956
  152DOPC   C2518189   3.602   0.913   6.253  0.1311  0.0745 -0.2283
  152DOPC   H5R18190   3.579   0.920   6.144 -1.6342 -1.7450 -0.0355
  152DOPC   H5S18191   3.703   0.957   6.268 -0.4275  1.5074 -0.5902
  152DOPC   C2618192   3.495   0.995   6.317  0.2501  0.3401 -0.3582
  152DOPC   H6R18193   3.513   1.105   6.314  3.3639 -0.0994 -1.0931
  152DOPC   H6S18194   3.504   0.977   6.427  0.8221  0.4846 -0.3774
  152DOPC   C2718195   3.356   0.960   6.270  0.1051  0.1975 -0.6313
  152DOPC   H7R18196   3.337   0.852   6.287 -2.5117  0.6888 -0.0156
  152DOPC   H7S18197   3.374   0.985   6.163  1.1374 -1.3576 -0.8646
  152DOPC   C2818198   3.247   1.036   6.346 -0.0527  0.0985  0.6243
  152DOPC   H8R18199   3.266   1.029   6.455 -0.8714 -1.4909  0.6987
  152DOPC   H8S18200   3.153   0.981   6.320 -0.1214  1.5154 -2.5897
  152DOPC   C2918201   3.240   1.181   6.321 -0.7207 -0.8747 -0.1534
  152DOPC   H9R18202   3.284   1.245   6.399 -2.1324 -0.1705  0.1054
  152DOPC  C21018203   3.197   1.250   6.214 -0.3688 -0.0532  0.6548
  152DOPC  H10R18204   3.210   1.359   6.209  3.1129 -0.3129  1.1971
  152DOPC  C21118205   3.148   1.178   6.097  0.0388  0.3237  0.0686
  152DOPC  H11R18206   3.042   1.201   6.071  0.4030  0.9866 -0.9187
  152DOPC  H11S18207   3.148   1.068   6.114  0.7621 -0.0118 -1.8242
  152DOPC  C21218208   3.237   1.188   5.978 -0.0880  0.4006 -0.5826
  152DOPC  H12R18209   3.202   1.110   5.906  2.3123 -1.2626 -0.0833
  152DOPC  H12S18210   3.336   1.154   6.016 -0.0100  0.9036 -0.3309
  152DOPC  C21318211   3.253   1.328   5.910 -0.2004  0.3018 -0.1298
  152DOPC  H13R18212   3.344   1.377   5.951  0.5907 -1.2151 -0.0135
  152DOPC  H13S18213   3.169   1.395   5.938  0.7244  0.8527  1.4197
  152DOPC  C21418214   3.254   1.322   5.758 -0.3122 -0.1851  0.0299
  152DOPC  H14R18215   3.149   1.295   5.732  0.0154 -0.8172 -0.7092
  152DOPC  H14S18216   3.326   1.243   5.727  0.0728 -1.2717  3.3110
  152DOPC  C21518217   3.286   1.458   5.682 -0.2227 -0.3505  0.1418
  152DOPC  H15R18218   3.394   1.469   5.704 -0.6254  1.5260  1.4292
  152DOPC  H15S18219   3.236   1.546   5.729 -0.0999  0.9216 -2.0048
  152DOPC  C21618220   3.265   1.444   5.532 -0.8601 -0.1811 -0.2139
  152DOPC  H16R18221   3.164   1.479   5.502 -0.5407  0.2099 -0.8528
  152DOPC  H16S18222   3.268   1.336   5.508  0.6785 -0.4492  0.9917
  152DOPC  C21718223   3.391   1.499   5.467  0.6734  0.3423  0.6138
  152DOPC  H17R18224   3.481   1.441   5.498 -1.1888 -2.3178  1.4113
  152DOPC  H17S18225   3.403   1.600   5.512  2.5105 -0.0942  1.2059
  152DOPC  C21818226   3.376   1.516   5.316  0.4050  0.1064  0.0267
  152DOPC  H18R18227   3.335   1.619   5.311 -0.1185 -0.1459 -1.0904
  152DOPC  H18S18228   3.317   1.427   5.284  0.5871 -0.5971  1.5572
  152DOPC  H18T18229   3.467   1.510   5.254 -1.2970  0.7638 -2.7047
  152DOPC   C3318230   3.324   1.191   6.920  1.5062  0.5514 -0.6721
  152DOPC   H3X18231   3.267   1.147   7.005  0.8334  1.0629 -0.8494
  152DOPC   H3Y18232   3.244   1.219   6.848  0.5034 -1.2161 -0.3014
  152DOPC   C3418233   3.388   1.319   6.966  0.2480 -0.7062 -0.2600
  152DOPC   H4X18234   3.478   1.348   6.909 -0.2348  2.8639  0.5744
  152DOPC   H4Y18235   3.426   1.320   7.071 -0.5973  0.8811  0.0669
  152DOPC   C3518236   3.294   1.444   6.935 -0.1392  0.0245 -0.4728
  152DOPC   H5X18237   3.211   1.454   7.008  1.9750  3.1054  1.7942
  152DOPC   H5Y18238   3.253   1.439   6.832 -2.5908  1.3645  0.3382
  152DOPC   C3618239   3.359   1.583   6.951 -0.7833 -0.2973 -0.3571
  152DOPC   H6X18240   3.266   1.644   6.957  0.4602  1.5775  1.5893
  152DOPC   H6Y18241   3.392   1.602   7.056  0.4853 -0.5669 -0.6850
  152DOPC   C3718242   3.441   1.643   6.837 -0.4485  0.0170  0.1994
  152DOPC   H7X18243   3.459   1.753   6.837  1.5333 -0.2026  2.8049
  152DOPC   H7Y18244   3.544   1.600   6.836 -0.2797  0.4032  0.7829
  152DOPC   C3818245   3.395   1.624   6.690 -0.2569  0.3272  0.4707
  152DOPC   H8X18246   3.389   1.514   6.671  2.4459  0.0975  0.5031
  152DOPC   H8Y18247   3.482   1.658   6.630 -0.3176  3.7500  2.1012
  152DOPC   C3918248   3.275   1.695   6.647  0.2155  0.1997 -0.7461
  152DOPC   H9X18249   3.240   1.763   6.725  2.3125  0.5619 -0.0531
  152DOPC  C31018250   3.213   1.702   6.527 -0.2707 -0.6785 -0.2618
  152DOPC  H10X18251   3.118   1.758   6.519 -0.6293 -1.2215  0.1304
  152DOPC  C31118252   3.261   1.636   6.396  1.0545 -0.6401  0.8139
  152DOPC  H11X18253   3.179   1.582   6.344 -0.1091  2.6829 -1.1524
  152DOPC  H11Y18254   3.345   1.566   6.415  3.1415  1.6546  0.5630
  152DOPC  C31218255   3.297   1.749   6.295 -0.1781  0.9090  0.2241
  152DOPC  H12X18256   3.363   1.817   6.353  1.6266 -0.1201 -0.5284
  152DOPC  H12Y18257   3.209   1.816   6.280  0.6550  2.2894  1.2007
  152DOPC  C31318258   3.359   1.696   6.165 -0.0906  0.3743 -0.7304
  152DOPC  H13X18259   3.444   1.627   6.181 -0.3590  0.3403  0.7511
  152DOPC  H13Y18260   3.287   1.635   6.106  1.5741 -0.6072 -1.8250
  152DOPC  C31418261   3.395   1.817   6.083 -0.0123  0.5972 -0.5173
  152DOPC  H14X18262   3.396   1.789   5.976  0.3129  0.4441 -0.4746
  152DOPC  H14Y18263   3.320   1.898   6.096  0.1621  1.1154 -2.4455
  152DOPC  C31518264   3.535   1.873   6.104  0.5844 -0.2275 -0.1809
  152DOPC  H15X18265   3.556   1.901   6.210 -0.4229 -0.5048  0.1002
  152DOPC  H15Y18266   3.521   1.969   6.051  1.6376 -0.4893 -0.9577
  152DOPC  C31618267   3.652   1.790   6.044  0.7329 -0.1029  1.1795
  152DOPC  H16X18268   3.639   1.689   6.087 -0.2834 -0.8099 -0.6764
  152DOPC  H16Y18269   3.644   1.774   5.934  0.2721  1.4182  0.9623
  152DOPC  C31718270   3.792   1.839   6.078 -0.7673  0.3193 -0.5385
  152DOPC  H17X18271   3.816   1.917   6.002 -1.5123 -1.6704 -2.9590
  152DOPC  H17Y18272   3.801   1.890   6.176 -0.7829  0.8244 -0.7954
  152DOPC  C31818273   3.893   1.730   6.091 -0.1708  1.1239  0.0784
  152DOPC  H18X18274   3.998   1.759   6.110 -0.7038  2.0294  1.9365
  152DOPC  H18Y18275   3.871   1.675   6.185 -2.8056 -0.1483 -1.1548
  152DOPC  H18Z18276   3.897   1.655   6.009 -0.3899  1.7835 -0.5491
  153DOPC     N18277   4.960   6.124   7.187 -0.4226  0.2732  0.3781
  153DOPC   C1218278   5.068   6.126   7.083  0.0602 -0.1581 -0.7854
  153DOPC  H12A18279   5.070   6.041   7.016  3.8899  1.0945 -2.5404
  153DOPC  H12B18280   5.166   6.128   7.128 -1.0835 -0.7440  1.9328
  153DOPC   C1318281   4.828   6.070   7.137 -0.1442 -0.2649 -0.6636
  153DOPC  H13A18282   4.759   6.074   7.220  0.9607  1.4090  0.2385
  153DOPC  H13B18283   4.792   6.141   7.064 -1.9290  2.0888  2.2544
  153DOPC  H13C18284   4.846   5.972   7.097  1.3122 -0.3129  0.0459
  153DOPC   C1418285   4.953   6.268   7.240  0.1540  0.1520  0.6815
  153DOPC  H14A18286   5.051   6.302   7.270  1.4797 -0.5472 -2.4961
  153DOPC  H14B18287   4.930   6.336   7.159 -1.4002  1.7062  2.3276
  153DOPC  H14C18288   4.884   6.287   7.322 -1.6052 -2.7676  0.0061
  153DOPC   C1518289   5.003   6.030   7.298 -0.5258 -0.2587  0.0413
  153DOPC  H15A18290   5.018   5.929   7.263  2.8211  0.7230 -1.7527
  153DOPC  H15B18291   4.940   6.026   7.385  3.2921  2.3094  3.2607
  153DOPC  H15C18292   5.102   6.057   7.330 -0.7463 -0.3542  0.8193
  153DOPC   C1118293   5.051   6.242   6.980  0.5780 -0.6902 -0.3070
  153DOPC  H11A18294   5.070   6.201   6.878 -0.3123 -0.4477 -0.5808
  153DOPC  H11B18295   4.950   6.288   6.974  1.3310  0.9296 -1.8595
  153DOPC     P18296   5.292   6.339   6.978  0.3008 -0.1549 -0.1810
  153DOPC   O1318297   5.347   6.237   7.068 -0.8914  0.4431 -0.4881
  153DOPC   O1418298   5.353   6.472   6.989  0.0181  0.8451  0.2427
  153DOPC   O1218299   5.141   6.349   7.014 -0.1052  0.2933 -0.2313
  153DOPC   O1118300   5.304   6.297   6.825  0.1233 -0.6226 -0.2925
  153DOPC    C118301   5.246   6.375   6.728  0.1138 -0.2777 -0.7799
  153DOPC    HA18302   5.285   6.478   6.736 -0.2833 -0.2565  1.3916
  153DOPC    HB18303   5.137   6.378   6.745  0.2670  0.2391  0.1617
  153DOPC    C218304   5.283   6.339   6.584  0.0557 -0.7507 -0.2924
  153DOPC    HS18305   5.233   6.401   6.507  1.1379  1.1252  0.4523
  153DOPC   O2118306   5.265   6.202   6.557 -0.3778  0.1065 -0.3064
  153DOPC   C2118307   5.152   6.164   6.521  0.4201 -0.4252  0.4457
  153DOPC   O2218308   5.046   6.233   6.513  0.7627 -0.5857 -0.1985
  153DOPC   C2218309   5.158   6.020   6.476 -0.1811  0.7731  0.3919
  153DOPC   H2R18310   5.131   5.946   6.556 -3.3178 -0.1770 -1.3706
  153DOPC   H2S18311   5.258   5.991   6.436 -0.2228 -2.1702  2.0740
  153DOPC    C318312   5.432   6.378   6.549 -0.1426  0.0668 -0.2805
  153DOPC    HX18313   5.493   6.316   6.618 -0.1452  2.1197  1.7097
  153DOPC    HY18314   5.432   6.487   6.573 -4.7882  0.5830 -1.7917
  153DOPC   O3118315   5.455   6.359   6.408 -0.5033  0.3610 -1.0299
  153DOPC   C3118316   5.521   6.257   6.372  0.4485 -0.4131  0.2957
  153DOPC   O3218317   5.540   6.153   6.428 -0.5331 -0.3953  0.0810
  153DOPC   C3218318   5.563   6.291   6.227  0.1045 -0.6239 -0.1170
  153DOPC   H2X18319   5.478   6.318   6.161 -0.1868  0.8267  0.8089
  153DOPC   H2Y18320   5.637   6.373   6.234  1.4266 -1.8183  0.4416
  153DOPC   C2318321   5.064   5.999   6.357  0.2439  0.1839 -0.4052
  153DOPC   H3R18322   4.964   6.036   6.388 -0.9690 -2.0794 -1.3791
  153DOPC   H3S18323   5.052   5.890   6.344 -0.5779 -0.0799  1.9258
  153DOPC   C2418324   5.096   6.073   6.227  0.2750  0.1445  0.4830
  153DOPC   H4R18325   5.131   6.177   6.240  1.3831 -0.0664 -0.6273
  153DOPC   H4S18326   4.996   6.078   6.177  0.1370 -0.2617  0.7127
  153DOPC   C2518327   5.202   6.016   6.137  0.4516 -0.5348  0.2426
  153DOPC   H5R18328   5.180   5.910   6.110  0.2152 -0.4388  0.0580
  153DOPC   H5S18329   5.296   6.024   6.197  0.0927  3.6765  0.5013
  153DOPC   C2618330   5.201   6.086   6.004  0.1054 -0.0613 -0.3548
  153DOPC   H6R18331   5.186   6.196   6.015  0.9845  0.0621 -0.3523
  153DOPC   H6S18332   5.121   6.054   5.933  0.5943 -0.6166 -0.6599
  153DOPC   C2718333   5.342   6.065   5.935 -1.3576 -0.3918 -0.1495
  153DOPC   H7R18334   5.357   5.955   5.933  2.9658  0.0310  0.0790
  153DOPC   H7S18335   5.414   6.111   6.005 -0.2441  0.0395 -1.5152
  153DOPC   C2818336   5.365   6.123   5.799 -0.1665  0.1138  0.2349
  153DOPC   H8R18337   5.298   6.063   5.733 -0.4662  1.2269 -0.5130
  153DOPC   H8S18338   5.472   6.107   5.775 -0.4190 -0.5488 -0.4972
  153DOPC   C2918339   5.328   6.267   5.796 -0.1411 -0.5397 -0.1476
  153DOPC   H9R18340   5.367   6.329   5.879  1.0267 -1.8038  0.2926
  153DOPC  C21018341   5.244   6.320   5.707 -0.4647  0.1037 -0.4065
  153DOPC  H10R18342   5.221   6.427   5.720 -0.4398  0.1558 -0.7859
  153DOPC  C21118343   5.175   6.242   5.600 -0.3561  0.1167 -0.2580
  153DOPC  H11R18344   5.071   6.277   5.585 -0.9716 -1.3504  0.3762
  153DOPC  H11S18345   5.163   6.136   5.630  3.1283 -0.7073 -1.2601
  153DOPC  C21218346   5.257   6.258   5.475  0.1764  0.2714 -0.5022
  153DOPC  H12R18347   5.365   6.232   5.487  0.1813  0.8469  0.7774
  153DOPC  H12S18348   5.270   6.364   5.443 -0.2725  0.4288 -0.1637
  153DOPC  C21318349   5.191   6.180   5.360  0.8961 -0.1191  0.5417
  153DOPC  H13R18350   5.085   6.213   5.348  2.0495  3.2888 -1.5569
  153DOPC  H13S18351   5.180   6.075   5.395 -3.5116  0.1744  0.6443
  153DOPC  C21418352   5.266   6.181   5.227 -0.0707 -1.0944  0.1605
  153DOPC  H14R18353   5.207   6.123   5.153 -0.4039 -2.3075  1.3418
  153DOPC  H14S18354   5.368   6.138   5.227  0.0506 -0.8383 -0.6226
  153DOPC  C21518355   5.289   6.318   5.166 -0.0831 -0.3386 -0.0176
  153DOPC  H15R18356   5.366   6.367   5.229  0.1690 -1.3544  0.4807
  153DOPC  H15S18357   5.193   6.373   5.174 -1.2745 -1.9934 -1.9931
  153DOPC  C21618358   5.329   6.334   5.020 -0.2665  0.3246  0.1299
  153DOPC  H16R18359   5.274   6.254   4.966  0.9493  0.3474 -1.1890
  153DOPC  H16S18360   5.439   6.318   5.022 -0.1152  1.1622 -0.6323
  153DOPC  C21718361   5.295   6.461   4.948  0.4896 -0.3972  0.0265
  153DOPC  H17R18362   5.185   6.469   4.929  0.4098 -1.1072  0.1781
  153DOPC  H17S18363   5.343   6.457   4.848 -0.7691  0.3713 -0.6403
  153DOPC  C21818364   5.336   6.591   5.009 -0.0390 -0.0489  0.2187
  153DOPC  H18R18365   5.292   6.587   5.111 -1.0089  1.6623 -0.0995
  153DOPC  H18S18366   5.302   6.685   4.960  2.5539  0.0534 -1.5926
  153DOPC  H18T18367   5.445   6.614   5.009  0.0431 -0.1298 -2.2164
  153DOPC   C3318368   5.632   6.167   6.164 -0.2755 -0.2900  0.0374
  153DOPC   H3X18369   5.568   6.077   6.157 -0.8784 -0.0440  1.8752
  153DOPC   H3Y18370   5.710   6.132   6.234 -0.8156 -1.2239  0.1884
  153DOPC   C3418371   5.693   6.203   6.028  0.5058 -0.3396 -0.2586
  153DOPC   H4X18372   5.746   6.297   6.056 -2.2789  0.9218  1.0826
  153DOPC   H4Y18373   5.621   6.231   5.948 -0.2653 -0.7018  0.3023
  153DOPC   C3518374   5.792   6.100   5.964  0.7115 -0.1375  0.1808
  153DOPC   H5X18375   5.748   5.999   5.957 -0.8593  0.5713 -0.6390
  153DOPC   H5Y18376   5.882   6.090   6.029 -0.7760  1.6520  2.6862
  153DOPC   C3618377   5.829   6.144   5.829 -0.4584 -0.0468 -1.0306
  153DOPC   H6X18378   5.743   6.133   5.759  0.2294  1.6362 -2.1977
  153DOPC   H6Y18379   5.871   6.246   5.836 -1.8110  0.4781 -0.3150
  153DOPC   C3718380   5.940   6.053   5.773 -0.2339 -0.8101  1.1826
  153DOPC   H7X18381   6.025   6.030   5.840  1.4401 -2.7446 -1.4037
  153DOPC   H7Y18382   5.896   5.952   5.759  0.7296 -1.2303  1.0996
  153DOPC   C3818383   5.989   6.083   5.628 -0.1381 -0.3070  0.0668
  153DOPC   H8X18384   5.911   6.129   5.563  1.8235 -1.8204 -3.6993
  153DOPC   H8Y18385   6.012   5.990   5.572 -1.1016  0.6232 -1.9784
  153DOPC   C3918386   6.114   6.168   5.617 -0.2840  0.1110 -0.0760
  153DOPC   H9X18387   6.102   6.239   5.700 -0.4343  1.3230 -1.1000
  153DOPC  C31018388   6.219   6.158   5.527  0.8471 -0.3146 -0.2673
  153DOPC  H10X18389   6.313   6.214   5.539  1.3413 -1.0776 -0.5267
  153DOPC  C31118390   6.215   6.056   5.416  0.2348 -0.1089 -0.0652
  153DOPC  H11X18391   6.194   5.958   5.464 -0.2710 -0.2820 -0.6258
  153DOPC  H11Y18392   6.316   6.033   5.377  0.3490 -0.9649  0.6949
  153DOPC  C31218393   6.122   6.082   5.297  0.1550 -0.4551  0.0836
  153DOPC  H12X18394   6.147   6.178   5.247 -0.4263  0.1186  0.8738
  153DOPC  H12Y18395   6.018   6.087   5.334  0.1059  1.0170 -0.2056
  153DOPC  C31318396   6.146   5.969   5.196 -0.1607 -0.3205  0.3049
  153DOPC  H13X18397   6.252   5.978   5.164 -0.4106  0.6814 -0.2936
  153DOPC  H13Y18398   6.137   5.870   5.247  1.4953  0.0533  1.4034
  153DOPC  C31418399   6.043   5.969   5.087 -0.4576  0.1989 -0.5281
  153DOPC  H14X18400   6.067   6.046   5.010  0.7002  0.0382 -0.3427
  153DOPC  H14Y18401   6.044   5.872   5.032  2.0173  1.1296 -2.3224
  153DOPC  C31518402   5.902   5.998   5.132 -0.4702 -0.7880  0.6124
  153DOPC  H15X18403   5.892   6.106   5.158  1.1464 -0.2890 -0.6491
  153DOPC  H15Y18404   5.870   5.941   5.222 -2.5984 -1.5785 -0.5674
  153DOPC  C31618405   5.803   5.978   5.018 -0.4871 -0.0172  0.5186
  153DOPC  H16X18406   5.822   6.054   4.939  0.8286 -0.5741  0.2817
  153DOPC  H16Y18407   5.818   5.874   4.981 -3.2440 -0.9519  1.7782
  153DOPC  C31718408   5.658   5.993   5.060 -0.1848 -0.1383  0.2028
  153DOPC  H17X18409   5.632   5.966   5.165 -1.0601  0.5873  0.1942
  153DOPC  H17Y18410   5.626   6.100   5.062  0.4191  0.0328  1.5324
  153DOPC  C31818411   5.564   5.930   4.958 -0.2902  0.3171  0.3533
  153DOPC  H18X18412   5.580   5.983   4.861  2.0838 -0.4586  0.2462
  153DOPC  H18Y18413   5.593   5.824   4.939 -2.8192 -0.1768 -1.2501
  153DOPC  H18Z18414   5.459   5.929   4.993  0.7593 -0.1111  3.9350
  154DOPC     N18415   6.579   2.590   6.935 -0.0350  0.0420 -0.3339
  154DOPC   C1218416   6.543   2.699   6.841  0.8569  0.0158  0.5796
  154DOPC  H12A18417   6.442   2.729   6.866  0.5902  0.4311 -0.9025
  154DOPC  H12B18418   6.552   2.655   6.743 -0.1478  1.0824 -0.0164
  154DOPC   C1318419   6.566   2.643   7.079  0.0581 -0.0059 -0.3781
  154DOPC  H13A18420   6.655   2.701   7.098 -1.3849  1.2835  3.4295
  154DOPC  H13B18421   6.481   2.706   7.100 -1.2166 -1.7856  0.0654
  154DOPC  H13C18422   6.574   2.568   7.156  1.8056  0.5057 -0.0147
  154DOPC   C1418423   6.713   2.541   6.907  0.5765 -0.2241 -0.2347
  154DOPC  H14A18424   6.790   2.617   6.912  2.0457 -1.5043 -2.0995
  154DOPC  H14B18425   6.727   2.457   6.973 -0.7397 -0.9747 -0.8684
  154DOPC  H14C18426   6.710   2.500   6.807  1.1726 -0.6142 -0.0972
  154DOPC   C1518427   6.481   2.469   6.925 -0.0819 -0.2063  0.0390
  154DOPC  H15A18428   6.518   2.393   6.992  0.7338  1.2500  1.2936
  154DOPC  H15B18429   6.482   2.434   6.823  2.1834 -1.3518  0.3952
  154DOPC  H15C18430   6.386   2.500   6.966  0.3928  0.3968  0.7113
  154DOPC   C1118431   6.631   2.832   6.845 -0.0582  0.6690 -0.3255
  154DOPC  H11A18432   6.740   2.814   6.832 -0.1121 -0.6853  0.8825
  154DOPC  H11B18433   6.609   2.900   6.760 -2.8352  2.0907  1.4003
  154DOPC     P18434   6.468   2.972   6.994  0.3375 -0.2313  0.0681
  154DOPC   O1318435   6.497   3.117   6.989  0.0283  0.0361 -0.6831
  154DOPC   O1418436   6.412   2.916   7.123  0.1430 -0.0451 -0.5876
  154DOPC   O1218437   6.607   2.909   6.965 -0.3346  0.2142  0.2934
  154DOPC   O1118438   6.377   2.944   6.868  0.1607  0.0517 -0.2806
  154DOPC    C118439   6.243   3.001   6.864  0.2533  0.1543  0.3457
  154DOPC    HA18440   6.208   3.007   6.759 -2.6473  0.2242  1.2364
  154DOPC    HB18441   6.238   3.103   6.909 -3.5528  0.5203 -0.5633
  154DOPC    C218442   6.135   2.918   6.951 -0.3364  0.2574  0.0035
  154DOPC    HS18443   6.179   2.889   7.049  0.4500 -0.7237 -0.6215
  154DOPC   O2118444   6.088   2.806   6.879 -0.2749 -0.0367 -0.3992
  154DOPC   C2118445   6.168   2.696   6.896  0.0258 -0.0374  1.1366
  154DOPC   O2218446   6.255   2.684   6.977  0.2450  0.1683 -0.1422
  154DOPC   C2218447   6.129   2.585   6.797  0.0457 -0.4332 -0.6936
  154DOPC   H2R18448   6.019   2.586   6.779 -0.0939 -0.1740  0.1335
  154DOPC   H2S18449   6.155   2.489   6.848 -1.1598  0.6341  2.1846
  154DOPC    C318450   6.008   2.994   6.968 -0.7547 -0.0831 -0.1988
  154DOPC    HX18451   6.017   3.085   7.032 -0.3926 -0.7608  0.7250
  154DOPC    HY18452   5.946   2.922   7.026  2.6863 -2.8615  0.3553
  154DOPC   O3118453   5.946   3.044   6.844 -0.1761  0.3745 -0.6068
  154DOPC   C3118454   5.866   2.970   6.776  0.3450  0.2299  0.3760
  154DOPC   O3218455   5.821   2.860   6.811  0.0274  0.5532  0.1845
  154DOPC   C3218456   5.832   3.051   6.654 -0.1775  0.4247  0.3076
  154DOPC   H2X18457   5.721   3.058   6.650 -0.3021 -1.4790 -0.9604
  154DOPC   H2Y18458   5.873   3.154   6.658  2.3349 -0.5534  2.5418
  154DOPC   C2318459   6.213   2.591   6.665 -0.0285  0.4909  0.0682
  154DOPC   H3R18460   6.172   2.509   6.602  0.2126  0.0871  0.4285
  154DOPC   H3S18461   6.321   2.566   6.677 -0.4364 -2.6584 -1.6765
  154DOPC   C2418462   6.195   2.731   6.597 -0.7603 -0.4281  0.0727
  154DOPC   H4R18463   6.266   2.798   6.649 -1.0049 -1.4876  1.8710
  154DOPC   H4S18464   6.091   2.771   6.598 -0.5526  0.1081  0.0862
  154DOPC   C2518465   6.249   2.733   6.456 -0.0788 -0.2043  1.0698
  154DOPC   H5R18466   6.232   2.638   6.401  0.5410  0.5860 -0.5616
  154DOPC   H5S18467   6.360   2.736   6.456  0.0132 -1.2969 -1.0732
  154DOPC   C2618468   6.200   2.856   6.368 -0.4083  0.7687  0.0016
  154DOPC   H6R18469   6.208   2.949   6.426 -1.0860  0.0578  1.2766
  154DOPC   H6S18470   6.091   2.849   6.346 -0.8445  2.4761  1.4263
  154DOPC   C2718471   6.277   2.862   6.237 -0.1091 -0.8353  0.9895
  154DOPC   H7R18472   6.315   2.760   6.213  1.3369  0.0209 -0.6381
  154DOPC   H7S18473   6.365   2.929   6.246 -0.2341 -0.4922 -0.1338
  154DOPC   C2818474   6.186   2.911   6.120 -0.1210 -0.1843 -0.5975
  154DOPC   H8R18475   6.163   3.011   6.164 -1.9762 -0.7674 -0.1226
  154DOPC   H8S18476   6.097   2.845   6.127  0.1787 -0.3726  3.4391
  154DOPC   C2918477   6.243   2.908   5.981  0.2018 -0.2821 -0.1334
  154DOPC   H9R18478   6.229   2.814   5.926 -0.1610 -0.6545  0.5869
  154DOPC  C21018479   6.281   3.023   5.918 -1.0369 -0.0939  0.2823
  154DOPC  H10R18480   6.312   3.013   5.813  1.6742  0.4757  0.9392
  154DOPC  C21118481   6.279   3.168   5.968 -0.3366  0.3416  0.2583
  154DOPC  H11R18482   6.379   3.215   5.972  0.2191 -0.8829  2.2083
  154DOPC  H11S18483   6.258   3.167   6.077  1.7721 -0.0600  0.6876
  154DOPC  C21218484   6.184   3.269   5.896 -0.1380 -0.1060  0.3648
  154DOPC  H12R18485   6.192   3.374   5.932 -1.4409 -0.1752  0.9318
  154DOPC  H12S18486   6.079   3.237   5.914 -0.7871  1.3074 -0.6740
  154DOPC  C21318487   6.207   3.271   5.742  0.5097 -0.9122  0.5313
  154DOPC  H13R18488   6.183   3.170   5.703 -1.5676 -0.1372 -0.3301
  154DOPC  H13S18489   6.315   3.283   5.720  0.1195  2.2965 -0.1968
  154DOPC  C21418490   6.134   3.369   5.647 -0.1190 -0.3276 -0.2582
  154DOPC  H14R18491   6.167   3.367   5.541 -0.9701  0.5598 -0.5467
  154DOPC  H14S18492   6.156   3.466   5.697  1.0484 -1.7597  2.2480
  154DOPC  C21518493   5.980   3.342   5.638 -1.0172 -0.1355 -0.5882
  154DOPC  H15R18494   5.929   3.340   5.736 -0.2291 -0.8293 -0.1828
  154DOPC  H15S18495   5.977   3.242   5.589  0.5908 -0.2366 -0.5369
  154DOPC  C21618496   5.917   3.431   5.536 -0.6201 -0.7163  0.3278
  154DOPC  H16R18497   5.974   3.426   5.440  1.6104 -0.1486  1.5631
  154DOPC  H16S18498   5.915   3.537   5.570  0.0054 -0.9234  1.0415
  154DOPC  C21718499   5.772   3.398   5.504  0.1787  0.3408 -0.1989
  154DOPC  H17R18500   5.735   3.393   5.608 -0.2202 -0.1460 -0.3585
  154DOPC  H17S18501   5.772   3.296   5.460 -0.3784 -0.0242  0.6236
  154DOPC  C21818502   5.707   3.493   5.413  0.2030  0.4381  0.0464
  154DOPC  H18R18503   5.749   3.498   5.311  0.3917 -1.8008 -0.0238
  154DOPC  H18S18504   5.716   3.593   5.462  1.4157 -0.0101  0.7701
  154DOPC  H18T18505   5.602   3.460   5.398  0.7799 -0.8620 -1.3035
  154DOPC   C3318506   5.882   2.979   6.527  0.2521  0.4039  0.4425
  154DOPC   H3X18507   5.839   2.877   6.540  1.7283 -0.1613  1.1717
  154DOPC   H3Y18508   5.993   2.966   6.523  0.2671  0.4784  0.6484
  154DOPC   C3418509   5.836   3.051   6.401  0.1511  0.2425 -0.1651
  154DOPC   H4X18510   5.726   3.072   6.402 -0.1930 -1.2992 -1.6142
  154DOPC   H4Y18511   5.865   2.999   6.308  0.1673  2.6538 -1.5866
  154DOPC   C3518512   5.908   3.187   6.388 -0.1704  0.2779  0.4721
  154DOPC   H5X18513   6.019   3.176   6.383 -0.1010  1.1857 -0.2707
  154DOPC   H5Y18514   5.887   3.243   6.482 -0.6644 -0.6718  0.9466
  154DOPC   C3618515   5.845   3.258   6.270  0.3550 -0.2622  0.2494
  154DOPC   H6X18516   5.835   3.197   6.178  0.3823  1.1273 -0.7092
  154DOPC   H6Y18517   5.743   3.296   6.295 -1.1095 -1.1736 -3.5865
  154DOPC   C3718518   5.939   3.370   6.224  0.4724 -0.9287  0.1700
  154DOPC   H7X18519   5.974   3.414   6.320 -1.3082 -2.6968  1.7136
  154DOPC   H7Y18520   6.031   3.330   6.175  1.7840 -0.2483  1.9549
  154DOPC   C3818521   5.871   3.474   6.121  0.6043  0.6932  0.3052
  154DOPC   H8X18522   5.834   3.412   6.036 -1.8998  3.5693 -0.9137
  154DOPC   H8Y18523   5.954   3.528   6.071  0.8096 -1.7354 -2.2675
  154DOPC   C3918524   5.767   3.568   6.179  0.0604 -0.2347 -0.1141
  154DOPC   H9X18525   5.795   3.626   6.268 -0.4669  2.7205 -1.7451
  154DOPC  C31018526   5.649   3.599   6.123  0.6988  0.4956  0.3135
  154DOPC  H10X18527   5.588   3.682   6.161 -1.2300 -0.7500  0.0669
  154DOPC  C31118528   5.602   3.549   5.994  0.7791 -0.0826  0.2861
  154DOPC  H11X18529   5.599   3.438   6.005  2.5890 -0.4949 -2.4660
  154DOPC  H11Y18530   5.682   3.567   5.919  0.4145  0.9190  0.1265
  154DOPC  C31218531   5.463   3.587   5.935 -0.7607  0.4985 -0.7990
  154DOPC  H12X18532   5.457   3.698   5.940  1.8343  0.6714  0.0703
  154DOPC  H12Y18533   5.385   3.566   6.012  1.8672  1.2197  2.2880
  154DOPC  C31318534   5.444   3.534   5.797  0.4657  0.1925  0.4068
  154DOPC  H13X18535   5.534   3.545   5.733  0.4127  0.1477  0.3242
  154DOPC  H13Y18536   5.418   3.429   5.823 -1.4596  0.8286  1.2481
  154DOPC  C31418537   5.319   3.591   5.728  0.7247  0.4281 -0.1109
  154DOPC  H14X18538   5.238   3.556   5.796 -0.0783  0.1822 -1.1805
  154DOPC  H14Y18539   5.329   3.700   5.741 -0.1184  0.6849 -1.4235
  154DOPC  C31518540   5.314   3.559   5.575 -0.3297 -0.4603 -1.2249
  154DOPC  H15X18541   5.332   3.450   5.567  0.0649 -0.4428 -0.6310
  154DOPC  H15Y18542   5.405   3.604   5.530  0.5111 -1.1707 -0.2714
  154DOPC  C31618543   5.184   3.608   5.499 -0.3716  0.4491 -0.4971
  154DOPC  H16X18544   5.088   3.572   5.541  0.3164  1.1466  1.8538
  154DOPC  H16Y18545   5.178   3.719   5.511 -0.3203  0.6375 -1.9680
  154DOPC  C31718546   5.211   3.566   5.357 -0.1595  0.1305 -0.3119
  154DOPC  H17X18547   5.302   3.615   5.315 -0.4003 -0.0603 -1.0781
  154DOPC  H17Y18548   5.239   3.459   5.368 -0.1217  0.2968  1.4063
  154DOPC  C31818549   5.098   3.580   5.256 -0.2006  0.4617  0.0681
  154DOPC  H18X18550   5.141   3.579   5.153 -0.9920  0.1057 -0.2661
  154DOPC  H18Y18551   5.021   3.502   5.276  3.1478 -2.8703  1.1724
  154DOPC  H18Z18552   5.056   3.682   5.253  1.6556  1.2589  0.0308
  155DOPC     N18553   1.066   0.186   7.110 -0.3735  0.0657 -0.1772
  155DOPC   C1218554   1.059   0.229   6.962 -0.4361  0.6687 -0.2482
  155DOPC  H12A18555   0.957   0.245   6.932 -0.9542 -0.4418  0.8007
  155DOPC  H12B18556   1.090   0.147   6.898  0.6981 -0.8887  2.1355
  155DOPC   C1318557   1.199   0.224   7.179 -0.4780 -0.7412  0.7145
  155DOPC  H13A18558   1.206   0.194   7.283 -1.3449  0.7385  1.2221
  155DOPC  H13B18559   1.287   0.181   7.132 -0.4003  1.0156 -0.8614
  155DOPC  H13C18560   1.208   0.331   7.179  2.0387 -0.8489 -1.5604
  155DOPC   C1418561   1.051   0.036   7.128 -0.2884 -0.4292 -0.1919
  155DOPC  H14A18562   0.953   0.003   7.097 -0.7494  0.1344  0.6094
  155DOPC  H14B18563   1.125  -0.021   7.075 -2.1113 -0.8664 -2.4468
  155DOPC  H14C18564   1.039   0.009   7.232 -0.5260  1.2062  0.2335
  155DOPC   C1518565   0.967   0.256   7.189  0.7672  0.7983 -0.5124
  155DOPC  H15A18566   0.865   0.235   7.160  0.9251  2.2478 -2.2542
  155DOPC  H15B18567   0.982   0.362   7.177  0.3144  0.8695 -0.4388
  155DOPC  H15C18568   0.981   0.238   7.295  0.1440 -2.0882 -0.8442
  155DOPC   C1118569   1.133   0.352   6.919  0.0544 -0.1103 -0.4101
  155DOPC  H11A18570   1.237   0.329   6.949  0.8409  1.1155 -2.0000
  155DOPC  H11B18571   1.131   0.351   6.808 -0.0909 -0.8439 -0.4043
  155DOPC     P18572   1.144   0.603   7.010 -0.0462 -0.0713 -0.2068
  155DOPC   O1318573   1.212   0.588   7.142 -0.5027 -0.5168  0.0054
  155DOPC   O1418574   1.045   0.715   6.997 -0.3271  0.2688  0.3710
  155DOPC   O1218575   1.068   0.467   6.978 -0.2395 -0.6619 -0.0767
  155DOPC   O1118576   1.260   0.620   6.907 -0.2711  1.4783 -0.3116
  155DOPC    C118577   1.272   0.739   6.831  0.7276  0.6443 -0.2840
  155DOPC    HA18578   1.381   0.756   6.812  0.2475  2.8868 -1.4451
  155DOPC    HB18579   1.233   0.832   6.878 -0.1002 -0.0353  0.4021
  155DOPC    C218580   1.218   0.715   6.686 -0.0292  0.3064  0.0739
  155DOPC    HS18581   1.258   0.805   6.635 -0.0543  1.0168  1.2640
  155DOPC   O2118582   1.068   0.705   6.688 -0.3878  0.0508  0.0079
  155DOPC   C2118583   1.014   0.819   6.710 -0.2254 -0.2756  0.1769
  155DOPC   O2218584   1.072   0.925   6.727  0.1695 -0.0743 -0.2547
  155DOPC   C2218585   0.861   0.814   6.716 -0.3959  0.8150 -0.1328
  155DOPC   H2R18586   0.852   0.726   6.783  1.1567  1.6732  1.2704
  155DOPC   H2S18587   0.831   0.783   6.614  0.0533 -0.2114  0.0334
  155DOPC    C318588   1.274   0.580   6.620  0.8858 -0.0631  0.0549
  155DOPC    HX18589   1.227   0.500   6.681 -0.0198  1.3174  1.2439
  155DOPC    HY18590   1.382   0.587   6.644  1.0066  3.7427 -0.9631
  155DOPC   O3118591   1.253   0.571   6.478  0.1049 -0.2209 -0.0225
  155DOPC   C3118592   1.315   0.655   6.402  0.6240 -0.5052  0.3468
  155DOPC   O3218593   1.404   0.736   6.429  0.1973  0.6046  0.2510
  155DOPC   C3218594   1.238   0.649   6.261 -0.4078 -0.4065 -0.1658
  155DOPC   H2X18595   1.235   0.544   6.226 -0.0582 -1.3976  2.5176
  155DOPC   H2Y18596   1.137   0.688   6.282 -0.4087 -0.8250  0.6457
  155DOPC   C2318597   0.783   0.925   6.788  0.1049 -0.6062 -0.2256
  155DOPC   H3R18598   0.803   1.028   6.750 -4.5857  0.3094 -0.8522
  155DOPC   H3S18599   0.823   0.931   6.891 -0.8796  2.9807  0.0764
  155DOPC   C2418600   0.631   0.886   6.786  0.6901 -0.0132  0.9410
  155DOPC   H4R18601   0.586   0.964   6.850 -0.5452 -0.8559  1.1366
  155DOPC   H4S18602   0.617   0.781   6.821  1.7733 -0.6371 -0.3642
  155DOPC   C2518603   0.566   0.890   6.650  0.5894  0.0886  0.2701
  155DOPC   H5R18604   0.458   0.867   6.648  0.2454  1.5603  0.3216
  155DOPC   H5S18605   0.627   0.827   6.581 -0.1261  1.3357 -1.6077
  155DOPC   C2618606   0.566   1.034   6.590  0.4250  0.5056 -0.4310
  155DOPC   H6R18607   0.674   1.060   6.581  1.3286 -2.2840  0.9194
  155DOPC   H6S18608   0.518   1.085   6.676  1.7916 -0.1773  0.7935
  155DOPC   C2718609   0.496   1.064   6.458  0.0507 -0.0479  0.0621
  155DOPC   H7R18610   0.395   1.017   6.458 -0.0754  0.1702 -1.7198
  155DOPC   H7S18611   0.557   1.013   6.381 -2.1470 -2.6180 -0.1154
  155DOPC   C2818612   0.478   1.220   6.427  0.0782  0.2541  0.1000
  155DOPC   H8R18613   0.439   1.280   6.512  0.8244  0.3115  0.4103
  155DOPC   H8S18614   0.406   1.222   6.342  1.2250 -2.7407 -1.0982
  155DOPC   C2918615   0.612   1.295   6.407 -0.1640 -0.4469 -0.1706
  155DOPC   H9R18616   0.664   1.309   6.503 -1.3854 -1.8303  0.7364
  155DOPC  C21018617   0.665   1.336   6.290  0.5182  0.4935 -0.3387
  155DOPC  H10R18618   0.756   1.397   6.290 -0.6900  2.3877 -0.5627
  155DOPC  C21118619   0.606   1.310   6.152  0.0766  0.1029  0.4126
  155DOPC  H11R18620   0.582   1.408   6.104 -1.8804 -0.9995 -1.0114
  155DOPC  H11S18621   0.506   1.263   6.165  1.1715 -1.6191  3.4091
  155DOPC  C21218622   0.690   1.221   6.053 -0.2515  0.1322 -0.1781
  155DOPC  H12R18623   0.639   1.222   5.954 -0.9701  0.3849  0.1857
  155DOPC  H12S18624   0.689   1.116   6.089 -0.2037  0.4747  0.8423
  155DOPC  C21318625   0.848   1.258   6.033  0.1863 -0.5262  0.6984
  155DOPC  H13R18626   0.902   1.234   6.127 -1.8927 -0.0519  2.1114
  155DOPC  H13S18627   0.845   1.366   6.006 -1.5241 -0.9570 -1.0176
  155DOPC  C21418628   0.914   1.186   5.922 -0.8933 -0.4283 -0.0463
  155DOPC  H14R18629   0.881   1.223   5.822  1.0375 -1.8736 -1.2930
  155DOPC  H14S18630   0.890   1.078   5.927 -1.2586 -0.2939  1.8131
  155DOPC  C21518631   1.065   1.207   5.944  0.3649 -0.4825 -0.0681
  155DOPC  H15R18632   1.112   1.161   6.033  0.1579 -1.6483 -0.5463
  155DOPC  H15S18633   1.100   1.313   5.952 -1.6643  0.2710 -0.5096
  155DOPC  C21618634   1.148   1.139   5.831 -0.1545 -0.3639  0.1649
  155DOPC  H16R18635   1.127   1.196   5.738  0.1343  0.0175  0.3295
  155DOPC  H16S18636   1.111   1.037   5.813  0.8213 -1.0115  1.5909
  155DOPC  C21718637   1.298   1.132   5.858 -0.3175 -0.6058 -0.5354
  155DOPC  H17R18638   1.314   1.088   5.959  1.5146 -0.9014 -0.9250
  155DOPC  H17S18639   1.341   1.234   5.870  0.0840 -0.7291 -0.9373
  155DOPC  C21818640   1.372   1.059   5.747 -0.3422 -0.8082  0.4982
  155DOPC  H18R18641   1.477   1.094   5.750 -1.4751  3.0050  0.0906
  155DOPC  H18S18642   1.336   1.094   5.648  0.1320  0.6253  0.8134
  155DOPC  H18T18643   1.354   0.949   5.752 -2.6260 -0.4566  0.9607
  155DOPC   C3318644   1.289   0.756   6.154 -0.1695  0.3556 -0.4688
  155DOPC   H3X18645   1.303   0.851   6.209 -2.3393 -0.8865  2.5554
  155DOPC   H3Y18646   1.206   0.766   6.082 -2.2969 -1.5028  1.5584
  155DOPC   C3418647   1.409   0.703   6.084  0.0909  0.0566 -0.0249
  155DOPC   H4X18648   1.380   0.611   6.029  1.0226 -1.6020  2.1231
  155DOPC   H4Y18649   1.486   0.668   6.156  0.6880  0.4558 -0.4585
  155DOPC   C3518650   1.463   0.787   5.968 -0.4149  0.3259 -0.3836
  155DOPC   H5X18651   1.494   0.888   6.003  1.9442 -0.7878  1.0100
  155DOPC   H5Y18652   1.385   0.803   5.891 -1.1941  1.3019  0.5699
  155DOPC   C3618653   1.577   0.719   5.896 -0.1312  0.6380 -0.0813
  155DOPC   H6X18654   1.643   0.682   5.977 -1.1489 -2.0081 -0.3514
  155DOPC   H6Y18655   1.536   0.627   5.848  2.1514 -1.2980  1.4245
  155DOPC   C3718656   1.640   0.815   5.799  0.6185 -0.0037  1.0022
  155DOPC   H7X18657   1.578   0.820   5.707  1.2128  0.9890  0.6457
  155DOPC   H7Y18658   1.643   0.920   5.836 -1.0136  0.0734  0.9552
  155DOPC   C3818659   1.773   0.752   5.757 -0.2843 -0.4385  0.2944
  155DOPC   H8X18660   1.750   0.648   5.724 -0.7841 -0.0613 -0.5690
  155DOPC   H8Y18661   1.841   0.746   5.845 -3.0138  2.0574  2.8141
  155DOPC   C3918662   1.835   0.820   5.640 -0.0230 -0.3520  0.0382
  155DOPC   H9X18663   1.879   0.918   5.663 -2.0683  0.9776 -1.3387
  155DOPC  C31018664   1.831   0.794   5.511  0.0998  0.2461 -0.9984
  155DOPC  H10X18665   1.882   0.859   5.439  2.0261  1.4031  1.2842
  155DOPC  C31118666   1.761   0.680   5.442  0.7017  0.6906  0.3721
  155DOPC  H11X18667   1.696   0.714   5.359  0.4287 -3.5042 -1.3848
  155DOPC  H11Y18668   1.692   0.631   5.515  0.0769  0.3296 -0.4504
  155DOPC  C31218669   1.868   0.577   5.389  0.5557 -0.4124 -1.0096
  155DOPC  H12X18670   1.939   0.554   5.472 -0.7801 -2.2536 -0.3024
  155DOPC  H12Y18671   1.933   0.632   5.318  2.3409 -1.1010  0.0204
  155DOPC  C31318672   1.821   0.444   5.337 -0.5520  1.0478  0.3448
  155DOPC  H13X18673   1.732   0.401   5.389  0.7530 -0.9588  1.0555
  155DOPC  H13Y18674   1.792   0.465   5.232 -0.8602 -2.2995 -0.3367
  155DOPC  C31418675   1.933   0.335   5.322  1.1120 -0.0438 -0.6731
  155DOPC  H14X18676   1.892   0.256   5.255  1.0587  0.6273 -1.4459
  155DOPC  H14Y18677   2.026   0.385   5.287  1.7873  0.4993  1.7429
  155DOPC  C31518678   1.954   0.256   5.451 -0.0575 -0.1092 -0.1939
  155DOPC  H15X18679   1.976   0.328   5.532  0.4042  2.0790 -2.1456
  155DOPC  H15Y18680   2.053   0.209   5.432 -0.1381 -1.1993  1.8001
  155DOPC  C31618681   1.835   0.162   5.490 -0.6682  0.2386 -0.3754
  155DOPC  H16X18682   1.859   0.112   5.587 -0.1264 -0.7290 -0.9929
  155DOPC  H16Y18683   1.733   0.206   5.497 -0.2148  1.5411 -1.4201
  155DOPC  C31718684   1.827   0.049   5.379 -0.9168 -0.0100 -0.4576
  155DOPC  H17X18685   1.762   0.083   5.295 -3.0301 -2.8935 -0.1365
  155DOPC  H17Y18686   1.930   0.029   5.344  0.2774  3.0947  0.9299
  155DOPC  C31818687   1.779  -0.088   5.428 -0.5814  0.5771  0.3074
  155DOPC  H18X18688   1.860  -0.149   5.474 -0.1215 -0.7811 -2.1758
  155DOPC  H18Y18689   1.685  -0.085   5.488 -1.2334  1.8140 -0.7323
  155DOPC  H18Z18690   1.737  -0.139   5.339  1.5568  1.3911 -1.2333
  156DOPC     N18691   5.866   5.628   7.137  0.0967  0.2162 -0.2468
  156DOPC   C1218692   5.913   5.669   6.999 -0.8687  0.0148 -0.3423
  156DOPC  H12A18693   5.877   5.591   6.933 -1.1865 -1.4257  1.4429
  156DOPC  H12B18694   6.020   5.663   7.007 -0.9044  1.3662  2.1410
  156DOPC   C1318695   5.881   5.740   7.237  0.6257 -0.3581  0.2695
  156DOPC  H13A18696   5.851   5.708   7.335  1.6623 -0.3061  0.6138
  156DOPC  H13B18697   5.977   5.785   7.255  0.1195 -0.3420  3.4018
  156DOPC  H13C18698   5.808   5.818   7.217 -1.0577 -1.9938 -0.2160
  156DOPC   C1418699   5.929   5.502   7.197  0.1335  0.2528  0.3417
  156DOPC  H14A18700   5.879   5.468   7.286  1.5949 -0.1282  1.0572
  156DOPC  H14B18701   5.909   5.421   7.129 -3.0831  0.0897  1.3490
  156DOPC  H14C18702   6.032   5.526   7.219  0.2588  1.5689 -1.4082
  156DOPC   C1518703   5.717   5.603   7.133 -0.2733 -0.2937  0.3656
  156DOPC  H15A18704   5.663   5.692   7.104  0.4463 -0.4033 -1.3775
  156DOPC  H15B18705   5.683   5.570   7.230 -1.6527 -2.2531 -0.7176
  156DOPC  H15C18706   5.693   5.532   7.056  0.2532 -0.0826  0.0034
  156DOPC   C1118707   5.869   5.813   6.949  0.6881 -0.3971  0.3508
  156DOPC  H11A18708   5.888   5.816   6.839  1.3375  1.3577  0.4637
  156DOPC  H11B18709   5.761   5.817   6.972  0.4829  1.1335 -0.6949
  156DOPC     P18710   5.920   6.063   6.962  0.1329 -0.2442  0.8199
  156DOPC   O1318711   5.975   6.164   7.055  0.4037  0.0783  0.6123
  156DOPC   O1418712   5.777   6.086   6.917 -0.3628  0.3296 -0.3291
  156DOPC   O1218713   5.937   5.916   7.024  0.0630  0.0419 -0.0258
  156DOPC   O1118714   6.016   6.051   6.836  0.2952  0.2659 -0.0952
  156DOPC    C118715   6.005   6.149   6.738  0.2122  0.5184  0.0554
  156DOPC    HA18716   6.103   6.189   6.705  0.2426  1.5614  1.3202
  156DOPC    HB18717   5.947   6.240   6.763  0.1972  0.1427  1.4982
  156DOPC    C218718   5.928   6.095   6.620 -0.3099  0.7776  0.0360
  156DOPC    HS18719   5.839   6.035   6.649  1.2101 -0.6492  2.0662
  156DOPC   O2118720   6.027   6.012   6.551  0.4791 -0.0365  0.1990
  156DOPC   C2118721   5.979   5.902   6.502 -0.0149 -0.0198 -0.4490
  156DOPC   O2218722   5.859   5.873   6.504 -0.2853 -0.4295 -0.1583
  156DOPC   C2218723   6.095   5.829   6.428  0.9669  0.0381  0.5318
  156DOPC   H2R18724   6.101   5.724   6.464  0.4259  0.0243  0.5890
  156DOPC   H2S18725   6.197   5.872   6.443  1.6252 -0.7333 -1.3120
  156DOPC    C318726   5.875   6.212   6.536  0.5039 -0.4353  0.3351
  156DOPC    HX18727   5.785   6.257   6.584 -0.1605  0.7957 -1.8881
  156DOPC    HY18728   5.834   6.168   6.443 -1.3396 -1.7048  1.6725
  156DOPC   O3118729   5.975   6.316   6.519  0.1173  0.1887  0.0265
  156DOPC   C3118730   5.954   6.402   6.424  0.2702 -0.2897 -0.3160
  156DOPC   O3218731   5.858   6.404   6.346 -0.0197 -0.0171 -0.2269
  156DOPC   C3218732   6.072   6.498   6.424  0.2248 -0.1893 -0.2136
  156DOPC   H2X18733   6.118   6.495   6.525  0.3382  0.8917 -0.2184
  156DOPC   H2Y18734   6.142   6.466   6.344 -1.1273  0.9216 -1.9534
  156DOPC   C2318735   6.073   5.831   6.275 -0.4005  0.7137  0.0208
  156DOPC   H3R18736   5.963   5.844   6.263 -0.5969  0.5427  1.5033
  156DOPC   H3S18737   6.104   5.734   6.232  0.8804  0.7929  0.7353
  156DOPC   C2418738   6.147   5.947   6.205 -0.0723 -0.6824 -0.1173
  156DOPC   H4R18739   6.141   5.938   6.094  0.3583  0.2257 -0.2276
  156DOPC   H4S18740   6.251   5.919   6.233 -0.0331 -1.8723 -1.3179
  156DOPC   C2518741   6.101   6.087   6.248 -0.7206  0.1654  0.0933
  156DOPC   H5R18742   6.130   6.120   6.350  1.6455  0.8142 -0.7283
  156DOPC   H5S18743   5.991   6.070   6.246 -0.8998  1.2426 -2.1042
  156DOPC   C2618744   6.138   6.192   6.153  0.1742 -0.0952  0.4689
  156DOPC   H6R18745   6.073   6.279   6.178  2.5327  1.7905  0.4032
  156DOPC   H6S18746   6.108   6.166   6.049 -2.5028 -0.5139  1.2800
  156DOPC   C2718747   6.284   6.243   6.163 -0.1898  0.1321  0.2749
  156DOPC   H7R18748   6.343   6.151   6.143 -1.2536 -0.1398 -1.8887
  156DOPC   H7S18749   6.304   6.268   6.270  0.7348 -1.1842  0.4252
  156DOPC   C2818750   6.340   6.342   6.062 -0.3065 -0.5545  0.3576
  156DOPC   H8R18751   6.320   6.301   5.960  0.1113 -0.6569  0.3125
  156DOPC   H8S18752   6.451   6.339   6.061 -0.3068 -0.5477 -0.3702
  156DOPC   C2918753   6.281   6.473   6.091  0.7204 -0.0285 -0.2434
  156DOPC   H9R18754   6.338   6.525   6.169  0.7615 -1.7823  0.9598
  156DOPC  C21018755   6.171   6.530   6.039 -0.2960  0.4969 -0.0051
  156DOPC  H10R18756   6.136   6.622   6.089  1.3616 -0.2080  2.6136
  156DOPC  C21118757   6.079   6.469   5.940 -0.3389 -0.0211 -0.2612
  156DOPC  H11R18758   5.969   6.472   5.955 -0.3139  0.7972 -0.2430
  156DOPC  H11S18759   6.111   6.362   5.937  1.7818  0.3820  2.9447
  156DOPC  C21218760   6.107   6.530   5.790 -0.1037 -0.1218  0.4196
  156DOPC  H12R18761   6.205   6.492   5.753 -0.5704  0.1697 -1.2252
  156DOPC  H12S18762   6.118   6.640   5.799 -0.8018  0.0877 -1.0331
  156DOPC  C21318763   5.995   6.483   5.692 -0.4525  0.3630 -0.1635
  156DOPC  H13R18764   5.906   6.541   5.726  0.2971  1.2584  0.2909
  156DOPC  H13S18765   5.965   6.377   5.708 -1.0905  0.8039  1.8885
  156DOPC  C21418766   6.034   6.515   5.551 -0.2268  0.2205  0.2030
  156DOPC  H14R18767   6.119   6.452   5.517 -1.3817 -0.0531 -2.3533
  156DOPC  H14S18768   6.079   6.616   5.556  0.2836  0.0011  0.1051
  156DOPC  C21518769   5.921   6.501   5.450 -0.2384  0.9687  0.2240
  156DOPC  H15R18770   5.959   6.526   5.348  0.8735 -2.5187 -0.3646
  156DOPC  H15S18771   5.842   6.574   5.478 -1.2102  0.0021  0.0669
  156DOPC  C21618772   5.854   6.364   5.443 -0.0511  0.1439  0.6495
  156DOPC  H16R18773   5.848   6.327   5.548  1.9197  0.6282  0.9691
  156DOPC  H16S18774   5.913   6.283   5.395  0.8854  1.9155 -1.3681
  156DOPC  C21718775   5.716   6.364   5.378  0.0843 -0.0676  0.4785
  156DOPC  H17R18776   5.641   6.426   5.433 -0.7216  0.6406 -1.3357
  156DOPC  H17S18777   5.676   6.260   5.380 -0.6867  0.1866 -0.5382
  156DOPC  C21818778   5.715   6.400   5.230  0.1336  0.2283  0.4220
  156DOPC  H18R18779   5.744   6.507   5.228 -0.1916  0.3022 -0.4107
  156DOPC  H18S18780   5.611   6.395   5.191  1.6466 -0.7007 -4.0049
  156DOPC  H18T18781   5.776   6.340   5.160 -0.5092  0.2636 -0.1813
  156DOPC   C3318782   6.035   6.644   6.385  0.0075  0.0818 -0.0952
  156DOPC   H3X18783   5.943   6.681   6.436  0.5405 -1.2456  1.9423
  156DOPC   H3Y18784   6.007   6.635   6.278 -1.5366  0.4471  0.2478
  156DOPC   C3418785   6.152   6.746   6.389  0.0428 -0.1673 -1.0774
  156DOPC   H4X18786   6.117   6.841   6.345 -1.1012  0.1082  0.3581
  156DOPC   H4Y18787   6.228   6.704   6.319  0.8349  2.2203 -1.7423
  156DOPC   C3518788   6.210   6.756   6.534 -0.0208  0.1667 -0.1959
  156DOPC   H5X18789   6.241   6.659   6.579 -2.2510 -0.6224 -0.2244
  156DOPC   H5Y18790   6.138   6.807   6.601  0.2089  1.0857 -0.6399
  156DOPC   C3618791   6.329   6.843   6.526  0.9580 -0.7142 -0.7409
  156DOPC   H6X18792   6.292   6.946   6.507 -0.4817 -0.2513  3.3736
  156DOPC   H6Y18793   6.365   6.851   6.631 -1.1621 -0.5756  0.0283
  156DOPC   C3718794   6.444   6.788   6.446 -0.4845 -0.1939  0.0847
  156DOPC   H7X18795   6.461   6.679   6.465 -3.1441 -0.6131  0.4737
  156DOPC   H7Y18796   6.430   6.797   6.336 -0.8562  0.3291  0.1733
  156DOPC   C3818797   6.580   6.847   6.495  0.3838  0.3448  0.2608
  156DOPC   H8X18798   6.656   6.791   6.436  0.3624 -0.7809  1.2521
  156DOPC   H8Y18799   6.592   6.822   6.602 -0.8421  0.5818  0.4623
  156DOPC   C3918800   6.586   6.993   6.463  0.5169  0.3276  0.6532
  156DOPC   H9X18801   6.552   7.057   6.545 -2.7431 -1.2079  0.6299
  156DOPC  C31018802   6.640   7.049   6.351 -0.0049 -0.1517  0.5861
  156DOPC  H10X18803   6.648   7.157   6.338 -3.1201 -0.0854 -1.7220
  156DOPC  C31118804   6.713   6.970   6.244  0.4763  0.0265 -0.3860
  156DOPC  H11X18805   6.716   6.862   6.271  1.2087  0.4404  1.3392
  156DOPC  H11Y18806   6.817   7.007   6.244 -0.1977  2.1535  1.5437
  156DOPC  C31218807   6.662   6.991   6.105 -0.8734  0.0625  0.5198
  156DOPC  H12X18808   6.659   7.100   6.083 -0.6799 -0.2763 -1.4451
  156DOPC  H12Y18809   6.559   6.950   6.099 -0.6158 -1.1250  3.0060
  156DOPC  C31318810   6.760   6.929   5.997 -0.8882  0.1453 -0.2564
  156DOPC  H13X18811   6.851   6.990   6.014 -1.7546  1.7856 -1.3041
  156DOPC  H13Y18812   6.787   6.824   6.021 -0.3519  0.5646  1.1183
  156DOPC  C31418813   6.715   6.949   5.849  0.3872 -0.5463 -0.0277
  156DOPC  H14X18814   6.638   6.872   5.828  2.0900 -1.9963 -1.3541
  156DOPC  H14Y18815   6.678   7.054   5.850 -0.1194 -0.6835  3.0576
  156DOPC  C31518816   6.825   6.934   5.744 -0.6446 -0.3153  0.2899
  156DOPC  H15X18817   6.844   6.825   5.744 -1.8789 -0.5980 -2.1019
  156DOPC  H15Y18818   6.915   6.992   5.773  0.9453 -2.8493  0.7627
  156DOPC  C31618819   6.787   6.979   5.600  0.1155  1.0694  0.9951
  156DOPC  H16X18820   6.678   6.964   5.586 -0.0820  1.8025  1.6380
  156DOPC  H16Y18821   6.790   7.090   5.598 -0.4967  1.0842 -0.6309
  156DOPC  C31718822   6.864   6.907   5.488  0.1165 -0.2162  0.7124
  156DOPC  H17X18823   6.970   6.941   5.483  0.2807 -0.3190  2.8899
  156DOPC  H17Y18824   6.875   6.798   5.508 -1.4817 -0.0915  2.4768
  156DOPC  C31818825   6.804   6.938   5.346 -0.2519 -0.0015  0.0734
  156DOPC  H18X18826   6.872   6.911   5.263  0.1818  0.6144  0.2171
  156DOPC  H18Y18827   6.706   6.889   5.326 -1.4806  2.9720 -1.8193
  156DOPC  H18Z18828   6.785   7.047   5.338  1.9671  0.3538 -1.0665
  157DOPC     N18829   6.035   0.884   7.429  0.4006 -0.2984  0.2426
  157DOPC   C1218830   6.057   0.833   7.281 -0.2989 -0.7629 -0.6786
  157DOPC  H12A18831   6.060   0.726   7.282 -0.4857 -0.8128  1.8875
  157DOPC  H12B18832   6.153   0.875   7.256 -0.8849  1.9524  1.1053
  157DOPC   C1318833   6.082   1.030   7.448 -0.2836 -0.4556 -0.0909
  157DOPC  H13A18834   6.176   1.043   7.396  0.7532  0.8824  1.9856
  157DOPC  H13B18835   6.018   1.094   7.388  0.9163 -1.4765 -2.6138
  157DOPC  H13C18836   6.082   1.056   7.553  0.4611 -2.5463  0.4659
  157DOPC   C1418837   6.118   0.808   7.526  0.6046  0.8050  0.1175
  157DOPC  H14A18838   6.106   0.846   7.626 -2.8195  1.0677 -0.2822
  157DOPC  H14B18839   6.101   0.702   7.523 -3.5335  1.3087 -0.0178
  157DOPC  H14C18840   6.221   0.829   7.499  0.3753  1.7158 -0.1005
  157DOPC   C1518841   5.897   0.880   7.461  0.2764  0.2218  0.4583
  157DOPC  H15A18842   5.863   0.926   7.553  0.1202  4.4145 -1.4986
  157DOPC  H15B18843   5.856   0.780   7.456  0.2790  0.2810 -1.1493
  157DOPC  H15C18844   5.846   0.950   7.397  1.9981  1.4082  0.3126
  157DOPC   C1118845   5.953   0.874   7.169  0.1892 -0.3101 -0.5411
  157DOPC  H11A18846   5.973   0.810   7.081  1.6733 -0.7884  0.1176
  157DOPC  H11B18847   5.849   0.845   7.194  0.6819 -1.7891 -0.1509
  157DOPC     P18848   6.060   1.076   7.036  0.0139 -0.0985  0.2300
  157DOPC   O1318849   6.177   0.983   7.006  0.3755 -0.9939 -0.1141
  157DOPC   O1418850   6.107   1.212   7.088 -0.2174  0.6532 -0.5511
  157DOPC   O1218851   5.965   1.015   7.143  0.3306  0.2738 -0.2683
  157DOPC   O1118852   5.961   1.084   6.915 -0.0799 -0.9246  0.6055
  157DOPC    C118853   5.906   1.216   6.890 -0.1971 -0.4484  0.2042
  157DOPC    HA18854   5.972   1.299   6.923 -1.6469 -0.3252  3.0478
  157DOPC    HB18855   5.813   1.219   6.950  0.3931 -0.8467  1.1534
  157DOPC    C218856   5.864   1.253   6.741  0.6823  0.0679  0.3866
  157DOPC    HS18857   5.802   1.345   6.756  0.7402  0.4003 -1.2354
  157DOPC   O2118858   5.802   1.138   6.676 -0.8080 -0.0312  0.3623
  157DOPC   C2118859   5.670   1.139   6.692 -0.4513  0.0752  0.0956
  157DOPC   O2218860   5.611   1.222   6.758  0.0917 -0.1689  0.4844
  157DOPC   C2218861   5.609   1.035   6.598 -0.3901  0.1830 -0.1896
  157DOPC   H2R18862   5.617   0.935   6.647  0.9063 -1.0363 -2.6844
  157DOPC   H2S18863   5.673   1.020   6.508 -1.3239  0.8292 -0.9804
  157DOPC    C318864   5.989   1.296   6.658  0.0778  0.3313  0.1458
  157DOPC    HX18865   6.061   1.213   6.646  3.5442  3.2818 -1.0119
  157DOPC    HY18866   6.040   1.374   6.717 -0.7789  1.0459 -0.0397
  157DOPC   O3118867   5.946   1.351   6.537  0.3280  0.1395  0.0057
  157DOPC   C3118868   5.947   1.268   6.432 -0.1481 -0.0058  0.0538
  157DOPC   O3218869   6.010   1.160   6.428 -0.1782 -0.2047 -0.0446
  157DOPC   C3218870   5.873   1.330   6.317 -0.5231  0.8160 -0.5144
  157DOPC   H2X18871   5.766   1.298   6.326  0.4855 -3.2096 -0.8030
  157DOPC   H2Y18872   5.895   1.439   6.317 -0.3098  0.7784 -1.6350
  157DOPC   C2318873   5.468   1.080   6.549  0.0564 -1.4380 -0.1955
  157DOPC   H3R18874   5.408   1.120   6.634 -0.7113 -1.5100 -0.6972
  157DOPC   H3S18875   5.417   0.987   6.515 -0.6381 -1.1692  0.0915
  157DOPC   C2418876   5.460   1.196   6.437  0.2339  0.1815 -0.7225
  157DOPC   H4R18877   5.499   1.297   6.463  1.1235 -0.7311  1.7908
  157DOPC   H4S18878   5.350   1.206   6.421  0.3051  0.9089 -0.7734
  157DOPC   C2518879   5.526   1.154   6.306  0.0179  0.4799  0.0470
  157DOPC   H5R18880   5.637   1.156   6.303  0.1526 -0.8839  2.3383
  157DOPC   H5S18881   5.497   1.237   6.238 -0.8672 -0.4796 -0.7830
  157DOPC   C2618882   5.469   1.031   6.240 -0.1435 -0.1747 -0.0495
  157DOPC   H6R18883   5.492   0.947   6.310  1.4895  0.3206  0.0501
  157DOPC   H6S18884   5.534   1.028   6.150  0.6542  0.4562  0.4953
  157DOPC   C2718885   5.322   1.034   6.228 -0.1460  0.7169  0.5590
  157DOPC   H7R18886   5.280   1.125   6.180  0.0132  0.2144 -0.5657
  157DOPC   H7S18887   5.269   1.041   6.325 -1.3566 -1.4594  0.1168
  157DOPC   C2818888   5.258   0.916   6.160  0.6179  0.6994 -0.0876
  157DOPC   H8R18889   5.152   0.949   6.150  1.6983  4.3130 -1.0967
  157DOPC   H8S18890   5.259   0.832   6.233  1.3309  2.0966  1.5877
  157DOPC   C2918891   5.313   0.873   6.029 -0.2241  0.4468 -0.0326
  157DOPC   H9R18892   5.422   0.858   6.033  0.0231  2.2363  2.4519
  157DOPC  C21018893   5.251   0.853   5.916 -0.1325  0.6274  0.1916
  157DOPC  H10R18894   5.303   0.838   5.821 -0.4043 -0.8722  0.2543
  157DOPC  C21118895   5.101   0.873   5.892  0.3052  0.1428 -0.0407
  157DOPC  H11R18896   5.053   0.892   5.990 -2.5910 -0.7167 -1.1698
  157DOPC  H11S18897   5.055   0.776   5.861 -0.3853  0.0852  1.1306
  157DOPC  C21218898   5.059   0.979   5.797  0.2980  0.6055 -0.3796
  157DOPC  H12R18899   5.118   1.068   5.826  1.4310 -0.4012  0.5152
  157DOPC  H12S18900   4.953   1.003   5.820  0.4382  2.2108 -1.2854
  157DOPC  C21318901   5.091   0.952   5.648  0.1089  0.0918  0.4108
  157DOPC  H13R18902   5.033   0.866   5.609 -1.0128  0.7229  0.6212
  157DOPC  H13S18903   5.196   0.918   5.640 -0.0182 -0.1157 -0.6141
  157DOPC  C21418904   5.069   1.081   5.567 -0.5152 -0.8317 -0.4182
  157DOPC  H14R18905   5.128   1.164   5.613 -2.5051 -0.4080  1.4975
  157DOPC  H14S18906   4.963   1.107   5.584 -1.0090 -3.0929  0.2804
  157DOPC  C21518907   5.099   1.055   5.418 -0.3347  0.2445  0.1670
  157DOPC  H15R18908   5.065   0.951   5.397 -1.2291  0.1162  2.0184
  157DOPC  H15S18909   5.209   1.057   5.406 -0.1409  0.8794  1.8063
  157DOPC  C21618910   5.040   1.154   5.325  0.3961 -0.3158  0.7919
  157DOPC  H16R18911   5.064   1.251   5.373 -1.1482  0.7286 -0.4591
  157DOPC  H16S18912   4.930   1.140   5.316  0.1596  2.1241 -1.2425
  157DOPC  C21718913   5.114   1.170   5.190  0.0395 -0.4303 -0.4398
  157DOPC  H17R18914   5.095   1.072   5.140  1.0186 -1.9024  1.9098
  157DOPC  H17S18915   5.225   1.174   5.199  0.0708 -0.3241 -0.8195
  157DOPC  C21818916   5.089   1.304   5.112  0.3981 -0.2337  1.2526
  157DOPC  H18R18917   5.161   1.328   5.032 -2.0611 -0.5905 -1.2251
  157DOPC  H18S18918   5.094   1.388   5.184 -0.7522  0.0244  1.0612
  157DOPC  H18T18919   4.985   1.311   5.072 -0.2836  2.3126  3.1678
  157DOPC   C3318920   5.918   1.287   6.178  0.0360  0.7506  0.4507
  157DOPC   H3X18921   5.933   1.177   6.172 -0.6547  0.4294  3.3118
  157DOPC   H3Y18922   6.019   1.330   6.162 -0.3366  1.2679 -0.5713
  157DOPC   C3418923   5.826   1.329   6.062  0.4279  0.3489  0.6025
  157DOPC   H4X18924   5.820   1.440   6.061 -3.3764  0.2720  0.4357
  157DOPC   H4Y18925   5.723   1.289   6.070 -0.0648  1.7854  2.0968
  157DOPC   C3518926   5.877   1.308   5.921 -0.6088  0.3000  0.7304
  157DOPC   H5X18927   5.982   1.343   5.912  0.0086 -1.2242  1.5187
  157DOPC   H5Y18928   5.813   1.355   5.843  0.5097  0.9493  0.1745
  157DOPC   C3618929   5.878   1.157   5.874 -0.1352  0.3139 -0.5852
  157DOPC   H6X18930   5.938   1.093   5.942 -0.4253  0.7093  0.0470
  157DOPC   H6Y18931   5.776   1.117   5.893  1.1772 -2.8585  0.6483
  157DOPC   C3718932   5.918   1.139   5.730 -0.0832  0.1472 -0.4347
  157DOPC   H7X18933   5.862   1.199   5.655  3.2305 -0.5312 -3.7676
  157DOPC   H7Y18934   6.020   1.181   5.718  0.2363 -0.3891  0.3168
  157DOPC   C3818935   5.916   0.997   5.679 -0.0728 -0.8427  0.4114
  157DOPC   H8X18936   5.822   0.942   5.699  0.3722 -1.7543  0.0382
  157DOPC   H8Y18937   5.990   0.941   5.740 -0.4369 -0.8118  0.8887
  157DOPC   C3918938   5.971   0.980   5.535 -0.3526 -0.8546 -0.1426
  157DOPC   H9X18939   6.069   1.027   5.524  1.2488 -2.6800  3.9977
  157DOPC  C31018940   5.924   0.911   5.431  0.0460  0.1815 -0.1813
  157DOPC  H10X18941   5.978   0.904   5.335 -0.5985  0.1547 -0.5442
  157DOPC  C31118942   5.795   0.835   5.440 -0.4985  0.0687  0.9055
  157DOPC  H11X18943   5.714   0.909   5.459  1.7540  2.3237  2.1979
  157DOPC  H11Y18944   5.794   0.757   5.519  0.8970 -0.0341  0.8400
  157DOPC  C31218945   5.763   0.770   5.306 -0.4358  0.8217  0.1984
  157DOPC  H12X18946   5.840   0.693   5.284  0.1276  1.1662  0.9087
  157DOPC  H12Y18947   5.767   0.844   5.224  0.7490  0.7729  0.1963
  157DOPC  C31318948   5.621   0.711   5.303  0.0559 -0.3710 -0.6901
  157DOPC  H13X18949   5.554   0.795   5.333  0.0126 -1.4226  2.4326
  157DOPC  H13Y18950   5.611   0.677   5.197 -0.1121  1.4504 -1.3092
  157DOPC  C31418951   5.605   0.583   5.392  0.1760 -0.3672  0.6623
  157DOPC  H14X18952   5.693   0.519   5.372  0.3475 -0.5256  1.8336
  157DOPC  H14Y18953   5.606   0.610   5.500 -0.5429  0.5423  0.4615
  157DOPC  C31518954   5.479   0.503   5.359 -0.0456 -0.2043 -0.5956
  157DOPC  H15X18955   5.386   0.560   5.380 -1.6538 -3.4191  1.9257
  157DOPC  H15Y18956   5.478   0.406   5.413 -2.0182  0.8515  1.4016
  157DOPC  C31618957   5.473   0.444   5.222  0.7417  0.0593 -0.1181
  157DOPC  H16X18958   5.433   0.529   5.163 -1.6918 -0.6924  0.3266
  157DOPC  H16Y18959   5.577   0.433   5.186  1.1190  0.5749  0.7643
  157DOPC  C31718960   5.397   0.308   5.204 -0.3343 -0.3111 -1.1206
  157DOPC  H17X18961   5.438   0.226   5.268  1.3696 -0.8808 -2.8462
  157DOPC  H17Y18962   5.290   0.313   5.236  0.3303 -1.6683  1.6385
  157DOPC  C31818963   5.403   0.247   5.069  0.2443  0.2063 -0.3595
  157DOPC  H18X18964   5.500   0.256   5.015 -0.3590 -0.8628 -1.6693
  157DOPC  H18Y18965   5.380   0.139   5.068  1.8235 -0.1604 -1.0800
  157DOPC  H18Z18966   5.317   0.287   5.011 -1.2463  0.3540  1.8295
  158DOPC     N18967   3.823   6.785   7.091 -0.3698 -0.0245 -0.5304
  158DOPC   C1218968   3.740   6.891   7.014 -0.5467  0.0559 -0.3844
  158DOPC  H12A18969   3.741   6.980   7.074  2.2827  1.6415 -2.5469
  158DOPC  H12B18970   3.640   6.854   6.995 -0.2342 -0.4507 -1.1033
  158DOPC   C1318971   3.858   6.664   7.010  0.3917 -0.4306  0.4910
  158DOPC  H13A18972   3.906   6.687   6.916 -0.6830 -1.1573 -0.2558
  158DOPC  H13B18973   3.921   6.592   7.061  1.6212 -2.3318 -3.2990
  158DOPC  H13C18974   3.767   6.619   6.973  0.3330  1.3278 -1.7355
  158DOPC   C1418975   3.743   6.729   7.200 -0.3783  0.0179  0.1901
  158DOPC  H14A18976   3.700   6.808   7.258  1.6290  1.1601  0.2336
  158DOPC  H14B18977   3.669   6.660   7.162  1.8008 -1.6426 -1.3660
  158DOPC  H14C18978   3.809   6.675   7.267  0.5888  0.1917 -0.5973
  158DOPC   C1518979   3.953   6.847   7.144 -0.0591  0.2322  0.2326
  158DOPC  H15A18980   4.011   6.773   7.198  0.4293 -0.6598 -1.4283
  158DOPC  H15B18981   3.919   6.932   7.200 -2.2799  0.1714 -0.9081
  158DOPC  H15C18982   4.014   6.879   7.060 -0.5395 -0.3951 -0.3701
  158DOPC   C1118983   3.795   6.939   6.874 -0.1078  0.4824 -0.0650
  158DOPC  H11A18984   3.802   6.845   6.815 -0.8221 -1.0182  2.1421
  158DOPC  H11B18985   3.712   6.995   6.827 -0.3695 -1.3263 -1.8928
  158DOPC     P18986   3.951   7.143   6.926  0.2847 -0.0919 -0.4907
  158DOPC   O1318987   4.082   7.192   6.891 -0.5696 -0.4916  0.0965
  158DOPC   O1418988   3.915   7.153   7.069  0.2270 -0.2012  0.0157
  158DOPC   O1218989   3.926   6.994   6.880 -0.2401 -0.0532  0.0396
  158DOPC   O1118990   3.844   7.221   6.846 -0.3545  0.0730  0.7261
  158DOPC    C118991   3.838   7.253   6.708 -0.2817  0.3589 -0.2979
  158DOPC    HA18992   3.814   7.162   6.649 -3.2033  0.5350  0.4411
  158DOPC    HB18993   3.934   7.294   6.669  0.5021  0.4511  1.6511
  158DOPC    C218994   3.725   7.362   6.689  0.0106  0.6097  0.1028
  158DOPC    HS18995   3.630   7.318   6.727 -0.1708  1.6039  0.8299
  158DOPC   O2118996   3.714   7.379   6.548  0.4138 -0.3864 -0.6532
  158DOPC   C2118997   3.603   7.452   6.519  0.0459  0.5227  0.5250
  158DOPC   O2218998   3.523   7.487   6.602 -0.4110  0.1812  0.3739
  158DOPC   C2218999   3.606   7.502   6.371 -0.0147  0.0529 -0.1241
  158DOPC   H2R19000   3.701   7.472   6.320 -1.7569 -2.8005 -1.9821
  158DOPC   H2S19001   3.593   7.612   6.381 -1.9343  0.0404 -1.9152
  158DOPC    C319002   3.759   7.493   6.767 -0.0626 -0.2687  0.0394
  158DOPC    HX19003   3.770   7.455   6.871  1.8809  0.1779  0.0407
  158DOPC    HY19004   3.681   7.572   6.770  0.5258  0.3236  0.0031
  158DOPC   O3119005   3.880   7.549   6.725 -0.2294 -0.4165  0.3570
  158DOPC   C3119006   3.874   7.645   6.630 -0.2784  0.1076 -0.2014
  158DOPC   O3219007   3.769   7.688   6.581 -0.4308 -0.3335 -0.5830
  158DOPC   C3219008   4.021   7.696   6.598 -0.3881 -0.5800  0.1317
  158DOPC   H2X19009   4.079   7.712   6.691 -0.5925  0.0615  0.1538
  158DOPC   H2Y19010   4.064   7.604   6.553 -0.8707 -0.1775 -1.2243
  158DOPC   C2319011   3.492   7.464   6.268  0.4445 -1.1405 -0.5658
  158DOPC   H3R19012   3.515   7.527   6.180 -0.5401  1.3916  0.8575
  158DOPC   H3S19013   3.398   7.501   6.315  0.7751 -2.1304  0.9795
  158DOPC   C2419014   3.478   7.314   6.245  0.1326  0.1748  0.3026
  158DOPC   H4R19015   3.456   7.272   6.345  2.2221 -1.2163  0.2413
  158DOPC   H4S19016   3.576   7.271   6.214 -1.0950 -1.4568 -1.5589
  158DOPC   C2519017   3.370   7.280   6.137  1.4329  0.1354  0.0061
  158DOPC   H5R19018   3.398   7.303   6.032 -0.9048  0.0570 -0.7084
  158DOPC   H5S19019   3.280   7.337   6.171  2.9884  1.5603  1.9610
  158DOPC   C2619020   3.326   7.136   6.144 -0.3568  0.2482  0.7280
  158DOPC   H6R19021   3.344   7.107   6.250  0.3081  1.2187  0.8888
  158DOPC   H6S19022   3.387   7.070   6.079 -1.9661 -0.5034 -0.0684
  158DOPC   C2719023   3.172   7.117   6.122  0.1264  0.6477  0.0709
  158DOPC   H7R19024   3.115   7.200   6.169  0.2236  0.6838  0.1244
  158DOPC   H7S19025   3.138   7.024   6.173  2.2219  0.6220  1.5293
  158DOPC   C2819026   3.135   7.096   5.975  0.6815  0.6143  0.0262
  158DOPC   H8R19027   3.169   6.997   5.938  1.3719  0.6684  0.5036
  158DOPC   H8S19028   3.195   7.178   5.928  2.3737 -0.3766  0.3719
  158DOPC   C2919029   2.990   7.114   5.947 -0.4769  0.5691 -0.3875
  158DOPC   H9R19030   2.922   7.061   6.015  0.3895 -1.0018 -0.6981
  158DOPC  C21019031   2.936   7.180   5.845  0.0030 -0.5040  0.3705
  158DOPC  H10R19032   2.827   7.185   5.840  0.0501  1.2612  0.4192
  158DOPC  C21119033   3.004   7.249   5.729  0.1519  0.0280 -0.1559
  158DOPC  H11R19034   3.115   7.257   5.734  0.1424  1.1244 -1.2272
  158DOPC  H11S19035   2.974   7.356   5.717 -1.2212 -0.2740  0.3720
  158DOPC  C21219036   2.966   7.185   5.600  0.5435 -0.1044  0.3124
  158DOPC  H12R19037   2.975   7.262   5.520  0.0819  0.6777  1.0026
  158DOPC  H12S19038   2.859   7.154   5.599  0.1515  1.1476 -1.4213
  158DOPC  C21319039   3.053   7.061   5.564  0.0996 -0.5902 -0.2379
  158DOPC  H13R19040   3.036   6.971   5.627  0.9617 -2.6232 -2.6972
  158DOPC  H13S19041   3.159   7.090   5.584  0.4371  0.1184 -2.7062
  158DOPC  C21419042   3.045   7.015   5.424 -0.5047  0.1869 -0.3670
  158DOPC  H14R19043   3.139   6.957   5.408  1.5231  2.9343  0.8195
  158DOPC  H14S19044   3.048   7.102   5.354  2.7944  0.7161  0.2604
  158DOPC  C21519045   2.918   6.928   5.402  1.3401 -0.4182  0.1967
  158DOPC  H15R19046   2.824   6.982   5.428 -0.4074 -2.6851 -1.0906
  158DOPC  H15S19047   2.938   6.837   5.462  1.5116 -1.9355 -2.0697
  158DOPC  C21619048   2.887   6.878   5.259 -0.6660 -0.7883  0.1823
  158DOPC  H16R19049   2.978   6.846   5.205  0.7643  0.8975  1.4682
  158DOPC  H16S19050   2.844   6.965   5.204 -2.0782 -2.3226 -1.2575
  158DOPC  C21719051   2.788   6.761   5.260  0.3993 -0.2098 -0.0144
  158DOPC  H17R19052   2.700   6.790   5.321 -1.5085 -0.0302 -2.6608
  158DOPC  H17S19053   2.838   6.673   5.307 -0.2293 -0.0828  0.9190
  158DOPC  C21819054   2.741   6.724   5.116  0.0473  0.6595 -0.3688
  158DOPC  H18R19055   2.674   6.637   5.132  0.4280  0.8461  2.6686
  158DOPC  H18S19056   2.830   6.701   5.053  0.7114  1.7267  0.1604
  158DOPC  H18T19057   2.675   6.801   5.069  0.2518  1.2776  0.3512
  158DOPC   C3319058   4.020   7.808   6.493  0.3276  0.0155 -0.1394
  158DOPC   H3X19059   3.986   7.902   6.542  3.6534  1.4551 -0.3121
  158DOPC   H3Y19060   3.965   7.780   6.401  2.1684  0.9816 -1.6083
  158DOPC   C3419061   4.173   7.834   6.445  0.4185 -0.5779 -0.4679
  158DOPC   H4X19062   4.215   7.739   6.405 -1.2537 -1.2004 -0.8016
  158DOPC   H4Y19063   4.235   7.863   6.533 -1.0623  2.4051 -0.2652
  158DOPC   C3519064   4.179   7.935   6.329 -0.1932  0.3811  0.0111
  158DOPC   H5X19065   4.286   7.959   6.319  0.0909 -0.9013 -0.1813
  158DOPC   H5Y19066   4.119   8.024   6.360  1.3814  0.7680  2.1407
  158DOPC   C3619067   4.137   7.880   6.199 -0.1115  0.9539  1.0669
  158DOPC   H6X19068   4.187   7.781   6.187 -0.0181  0.7919  2.5624
  158DOPC   H6Y19069   4.034   7.846   6.176  1.0041 -0.4782 -2.3313
  158DOPC   C3719070   4.174   7.987   6.090 -0.2571  0.2459  0.8004
  158DOPC   H7X19071   4.135   8.087   6.120  0.7182  1.1677 -0.9142
  158DOPC   H7Y19072   4.284   7.979   6.081 -0.3881 -0.1567 -0.8506
  158DOPC   C3819073   4.115   7.953   5.947 -0.9639 -0.4485  0.0617
  158DOPC   H8X19074   4.006   7.937   5.960 -1.2249  1.4663  0.4853
  158DOPC   H8Y19075   4.142   7.849   5.917 -0.6584 -0.3491 -0.0134
  158DOPC   C3919076   4.135   8.062   5.847  0.8161 -0.0945 -0.0538
  158DOPC   H9X19077   4.232   8.112   5.856  0.7023  0.3521 -1.2171
  158DOPC  C31019078   4.046   8.108   5.760  0.4250 -0.1259 -0.2477
  158DOPC  H10X19079   4.083   8.185   5.691 -2.1705 -0.0166 -1.6353
  158DOPC  C31119080   3.903   8.057   5.741  0.4300  0.1743  0.4264
  158DOPC  H11X19081   3.883   7.956   5.782 -0.1090  0.2001  0.2282
  158DOPC  H11Y19082   3.868   8.045   5.636 -0.3575 -1.3361  0.8362
  158DOPC  C31219083   3.810   8.169   5.803  0.1323  0.1140  0.8897
  158DOPC  H12X19084   3.841   8.273   5.779  1.0209 -0.3112  0.1205
  158DOPC  H12Y19085   3.805   8.157   5.913 -0.9908 -2.5224  0.6411
  158DOPC  C31319086   3.670   8.135   5.749  0.8510 -0.0651 -0.2611
  158DOPC  H13X19087   3.667   8.141   5.638  2.0437 -0.6467 -0.3347
  158DOPC  H13Y19088   3.651   8.028   5.776  0.0044 -0.1934 -1.2928
  158DOPC  C31419089   3.564   8.225   5.806 -0.4325  0.1380 -0.4297
  158DOPC  H14X19090   3.600   8.255   5.907 -2.2172  0.2279  0.2125
  158DOPC  H14Y19091   3.551   8.306   5.731 -2.0746  0.1092 -0.2082
  158DOPC  C31519092   3.431   8.155   5.821 -0.2100 -0.2909  0.6162
  158DOPC  H15X19093   3.418   8.074   5.746 -0.1031 -1.5478  1.9225
  158DOPC  H15Y19094   3.356   8.233   5.797  2.6671  3.1885  2.1045
  158DOPC  C31619095   3.404   8.092   5.953  0.5602 -0.2940 -0.0407
  158DOPC  H16X19096   3.469   8.011   5.993 -0.3422 -0.4251  1.2068
  158DOPC  H16Y19097   3.393   8.172   6.029  0.9330 -0.1453 -0.1389
  158DOPC  C31719098   3.271   8.011   5.946 -0.1954  0.2897  0.6544
  158DOPC  H17X19099   3.185   8.075   5.915  0.5498  2.4489  2.7458
  158DOPC  H17Y19100   3.277   7.924   5.877 -0.6343 -0.1376  1.1443
  158DOPC  C31819101   3.229   7.955   6.084 -0.1216 -0.0342  0.3727
  158DOPC  H18X19102   3.247   8.035   6.159 -2.0059  1.0580 -0.2730
  158DOPC  H18Y19103   3.120   7.935   6.088 -0.0864 -0.2145  0.4461
  158DOPC  H18Z19104   3.292   7.866   6.107  1.5164  0.6629 -1.2445
  159DOPC     N19105   5.826   1.569   7.118 -0.9488 -0.5324 -0.1833
  159DOPC   C1219106   5.871   1.681   7.031 -0.7591 -0.5045  0.0718
  159DOPC  H12A19107   5.965   1.727   7.056  0.1844 -0.7524 -2.6764
  159DOPC  H12B19108   5.792   1.753   7.024 -0.6139 -0.3006  0.4909
  159DOPC   C1319109   5.945   1.483   7.153  0.1474  0.8015 -0.1110
  159DOPC  H13A19110   5.909   1.399   7.211  0.5443  0.1218 -0.8280
  159DOPC  H13B19111   5.999   1.450   7.066 -0.8604  1.2786 -0.9437
  159DOPC  H13C19112   6.022   1.530   7.212 -0.0357  0.1749  0.6421
  159DOPC   C1419113   5.723   1.490   7.040  0.2495  0.3187 -0.0378
  159DOPC  H14A19114   5.644   1.556   7.009 -1.1578 -1.7131 -1.0644
  159DOPC  H14B19115   5.773   1.455   6.951 -1.9445 -0.1115 -1.1770
  159DOPC  H14C19116   5.689   1.404   7.097  0.2899  0.5182  0.2881
  159DOPC   C1519117   5.756   1.604   7.247  0.4820 -0.3755 -0.2260
  159DOPC  H15A19118   5.819   1.666   7.309  0.1518 -0.9226  0.6851
  159DOPC  H15B19119   5.724   1.519   7.305  1.7505  1.4806  3.5168
  159DOPC  H15C19120   5.669   1.661   7.219  0.7528  0.0590 -0.1938
  159DOPC   C1119121   5.892   1.646   6.884  0.2752  0.0212  0.4351
  159DOPC  H11A19122   5.801   1.621   6.826 -0.0390 -0.1270  0.9867
  159DOPC  H11B19123   5.912   1.739   6.827  3.3843 -0.6805  0.2439
  159DOPC     P19124   6.150   1.622   6.877  0.0353  0.2288  0.3349
  159DOPC   O1319125   6.253   1.512   6.867  0.1518 -0.2962  0.3945
  159DOPC   O1419126   6.166   1.718   6.992  0.6854 -0.4531  0.8826
  159DOPC   O1219127   6.002   1.562   6.862 -0.5027  0.1053 -0.2852
  159DOPC   O1119128   6.171   1.711   6.746 -0.2981  0.0428 -0.2958
  159DOPC    C119129   6.107   1.686   6.621  0.2215  0.0056 -0.6533
  159DOPC    HA19130   6.018   1.752   6.615 -1.3587 -2.0286 -0.7624
  159DOPC    HB19131   6.079   1.580   6.604 -0.1719  0.5507 -4.0125
  159DOPC    C219132   6.203   1.724   6.494  0.1028 -0.0084 -0.2561
  159DOPC    HS19133   6.226   1.832   6.503  1.0581 -0.1275 -1.1762
  159DOPC   O2119134   6.129   1.698   6.372  0.0967 -0.0158 -0.6167
  159DOPC   C2119135   6.182   1.717   6.253  0.5133 -0.4301  0.3894
  159DOPC   O2219136   6.292   1.762   6.236 -0.2041 -0.3614 -0.0557
  159DOPC   C2219137   6.077   1.673   6.143 -0.0764 -0.0108  1.0481
  159DOPC   H2R19138   5.987   1.738   6.148 -0.5199 -0.2150 -2.0567
  159DOPC   H2S19139   6.044   1.568   6.156  0.5183 -0.2883  0.4063
  159DOPC    C319140   6.335   1.643   6.486  0.2571  1.2214 -0.2635
  159DOPC    HX19141   6.384   1.646   6.586 -0.0364  0.6868 -0.0987
  159DOPC    HY19142   6.403   1.691   6.413  1.8962 -2.9254 -1.7960
  159DOPC   O3119143   6.301   1.510   6.444  0.2412 -0.0970 -0.0514
  159DOPC   C3119144   6.396   1.446   6.376  0.6185  0.4618 -0.2473
  159DOPC   O3219145   6.514   1.477   6.373 -0.4570 -0.2848  0.3386
  159DOPC   C3219146   6.317   1.327   6.312 -0.6198  0.4345  0.3855
  159DOPC   H2X19147   6.237   1.295   6.382 -0.4171 -1.3237 -0.1481
  159DOPC   H2Y19148   6.279   1.361   6.213  1.3736 -1.2991 -1.0772
  159DOPC   C2319149   6.140   1.700   5.996  0.3153  0.4115  0.1568
  159DOPC   H3R19150   6.230   1.635   5.986 -1.0128 -1.2384 -1.7755
  159DOPC   H3S19151   6.161   1.810   5.991  0.5431  0.3779  0.3705
  159DOPC   C2419152   6.041   1.663   5.880  0.0253 -0.6006  0.1264
  159DOPC   H4R19153   5.941   1.706   5.900 -0.1781 -1.5875  1.3758
  159DOPC   H4S19154   6.021   1.553   5.881 -1.0349 -0.4231 -0.6217
  159DOPC   C2519155   6.094   1.714   5.740 -0.2314  0.3367 -0.1833
  159DOPC   H5R19156   6.195   1.668   5.738  0.0769  0.9465  0.9499
  159DOPC   H5S19157   6.105   1.825   5.746 -1.3959  0.3641  2.9100
  159DOPC   C2619158   6.012   1.676   5.620  0.0835 -0.3365  0.5141
  159DOPC   H6R19159   5.972   1.574   5.640  1.5195 -1.0750 -0.2327
  159DOPC   H6S19160   6.074   1.667   5.528  2.7554 -0.9109  2.2768
  159DOPC   C2719161   5.905   1.775   5.594  0.0144  0.4614 -0.2355
  159DOPC   H7R19162   5.939   1.842   5.512  0.2642 -0.9966 -1.3762
  159DOPC   H7S19163   5.864   1.828   5.683  0.4699 -0.4220  0.5285
  159DOPC   C2819164   5.782   1.705   5.539  0.1792  0.1877  0.6619
  159DOPC   H8R19165   5.705   1.785   5.533  0.7777  0.6632 -1.5033
  159DOPC   H8S19166   5.732   1.640   5.613 -1.0654 -1.1737 -1.2831
  159DOPC   C2919167   5.799   1.638   5.403 -0.1356  0.7620 -0.4869
  159DOPC   H9R19168   5.846   1.702   5.326 -1.2196 -0.6767 -2.4319
  159DOPC  C21019169   5.773   1.508   5.373 -0.5074  0.9155  0.1325
  159DOPC  H10R19170   5.797   1.478   5.270 -1.1917  0.3661  0.1276
  159DOPC  C21119171   5.722   1.399   5.472 -0.4152 -0.2376  0.9123
  159DOPC  H11R19172   5.627   1.429   5.520  0.3795  0.1214  2.2945
  159DOPC  H11S19173   5.790   1.385   5.559 -0.8680 -0.9286  1.1603
  159DOPC  C21219174   5.692   1.265   5.409 -0.1714  0.5612  0.3491
  159DOPC  H12R19175   5.693   1.183   5.484 -0.2124 -0.3723 -0.6583
  159DOPC  H12S19176   5.767   1.237   5.332 -1.6821 -2.4461 -0.1592
  159DOPC  C21319177   5.559   1.266   5.331  0.1649 -0.7424 -0.2415
  159DOPC  H13R19178   5.548   1.360   5.273 -0.2170  0.4121  1.6371
  159DOPC  H13S19179   5.484   1.279   5.412  0.0282 -1.6826 -0.2025
  159DOPC  C21419180   5.534   1.136   5.262 -0.0007 -0.5159  0.1993
  159DOPC  H14R19181   5.428   1.102   5.267 -0.4546  0.4228 -1.9774
  159DOPC  H14S19182   5.599   1.059   5.310 -0.2422 -1.1920 -0.5268
  159DOPC  C21519183   5.571   1.160   5.122  0.8298 -0.4230 -0.3014
  159DOPC  H15R19184   5.659   1.223   5.102  0.5240 -0.2397 -1.1226
  159DOPC  H15S19185   5.482   1.208   5.075 -0.2117 -1.9212  0.0349
  159DOPC  C21619186   5.581   1.025   5.040 -0.1402  0.6732 -0.8830
  159DOPC  H16R19187   5.494   0.960   5.065  1.4390 -1.1094  0.1927
  159DOPC  H16S19188   5.670   0.971   5.076  0.6400  0.5403 -2.8918
  159DOPC  C21719189   5.604   1.042   4.888 -0.7139 -0.0908 -0.9534
  159DOPC  H17R19190   5.689   1.112   4.873 -0.7152  0.4250  1.0864
  159DOPC  H17S19191   5.512   1.083   4.843 -1.4228 -0.2960  0.2389
  159DOPC  C21819192   5.631   0.899   4.832  0.0654  0.0190  0.0634
  159DOPC  H18R19193   5.728   0.860   4.869  0.1049 -0.4291 -0.4939
  159DOPC  H18S19194   5.628   0.903   4.721 -1.2740 -0.0797  0.0780
  159DOPC  H18T19195   5.559   0.824   4.873  0.3491  0.3605  1.2121
  159DOPC   C3319196   6.418   1.212   6.282  0.0232  0.8027 -0.0571
  159DOPC   H3X19197   6.481   1.189   6.371  0.9552  1.2453 -0.5859
  159DOPC   H3Y19198   6.489   1.241   6.202  2.4975 -0.3615  1.5711
  159DOPC   C3419199   6.344   1.074   6.254 -0.8694 -0.3825 -0.3091
  159DOPC   H4X19200   6.296   1.054   6.353 -0.4330  0.9097  0.1814
  159DOPC   H4Y19201   6.412   0.986   6.256  0.6752  0.7530 -1.1032
  159DOPC   C3519202   6.253   1.050   6.131  0.5993  0.1629 -0.5409
  159DOPC   H5X19203   6.158   1.107   6.132 -0.9709 -2.2763  1.2539
  159DOPC   H5Y19204   6.197   0.954   6.135  0.6478  0.0206 -2.3298
  159DOPC   C3619205   6.333   1.045   6.001 -0.1003  0.1966  1.0914
  159DOPC   H6X19206   6.390   1.140   5.997  0.6331 -0.2822 -0.9587
  159DOPC   H6Y19207   6.401   0.958   6.012 -0.5211 -0.3419 -0.2977
  159DOPC   C3719208   6.262   1.028   5.863  0.6729  0.1026 -0.4533
  159DOPC   H7X19209   6.199   0.937   5.868  2.5670 -1.3151 -0.9713
  159DOPC   H7Y19210   6.192   1.113   5.853 -1.1748 -1.2590  0.2946
  159DOPC   C3819211   6.353   1.013   5.739  0.5231  0.1338 -1.0377
  159DOPC   H8X19212   6.423   1.098   5.728 -0.0983  0.6107 -1.3116
  159DOPC   H8Y19213   6.290   1.010   5.648  0.7065  0.4328 -1.1734
  159DOPC   C3919214   6.434   0.879   5.737  0.3450 -0.1073  0.0020
  159DOPC   H9X19215   6.372   0.789   5.724 -1.5252  1.2075 -0.5424
  159DOPC  C31019216   6.565   0.863   5.754 -0.0216 -0.0536 -0.5600
  159DOPC  H10X19217   6.612   0.767   5.727  1.6918  0.8027 -0.7656
  159DOPC  C31119218   6.668   0.977   5.789 -0.8078 -0.2817  0.2203
  159DOPC  H11X19219   6.739   0.936   5.864  0.9916  3.0474  0.5046
  159DOPC  H11Y19220   6.613   1.058   5.842  0.8115 -0.3964  2.1674
  159DOPC  C31219221   6.738   1.028   5.657  0.1233 -0.7802 -1.3304
  159DOPC  H12X19222   6.664   1.030   5.574 -0.9092 -2.7614 -0.5316
  159DOPC  H12Y19223   6.799   0.943   5.618  0.4285 -0.5928 -1.2654
  159DOPC  C31319224   6.833   1.151   5.681 -0.7648  0.4664 -0.4206
  159DOPC  H13X19225   6.764   1.236   5.698 -1.2125  0.1778 -0.7510
  159DOPC  H13Y19226   6.893   1.135   5.773 -2.3015 -2.1050  0.2460
  159DOPC  C31419227   6.914   1.173   5.554 -0.4075 -0.5672  0.4205
  159DOPC  H14X19228   6.988   1.090   5.551  1.4094  0.8930  2.1699
  159DOPC  H14Y19229   6.835   1.179   5.477  0.1579 -1.2193 -0.2203
  159DOPC  C31519230   7.006   1.295   5.570 -0.5207  0.0277  0.5004
  159DOPC  H15X19231   7.041   1.307   5.465  0.5031  1.8979  1.0000
  159DOPC  H15Y19232   7.084   1.282   5.648  0.0315  0.9847  0.1383
  159DOPC  C31619233   6.923   1.421   5.605 -0.5237  0.3145 -0.3778
  159DOPC  H16X19234   6.835   1.428   5.536 -0.6102 -1.8675 -0.5661
  159DOPC  H16Y19235   6.885   1.422   5.709 -3.3237  1.4313 -1.3142
  159DOPC  C31719236   7.002   1.550   5.584  0.2898 -0.2113  0.4482
  159DOPC  H17X19237   7.065   1.560   5.675  1.0235 -0.1545 -0.0577
  159DOPC  H17Y19238   7.082   1.518   5.514  1.0029 -1.6455  1.8424
  159DOPC  C31819239   6.923   1.677   5.540 -0.1558 -0.0469  0.1072
  159DOPC  H18X19240   6.987   1.767   5.551 -0.1184 -0.2562  1.8605
  159DOPC  H18Y19241   6.892   1.665   5.434  2.5367 -0.9692 -0.6413
  159DOPC  H18Z19242   6.837   1.709   5.603 -0.2493 -1.0565  0.5156
  160DOPC     N19243   1.545   6.438   7.184  0.0124  0.2568 -0.4328
  160DOPC   C1219244   1.512   6.561   7.103  0.2860  0.8436 -0.2798
  160DOPC  H12A19245   1.415   6.597   7.133  0.3828 -1.1814  2.8196
  160DOPC  H12B19246   1.514   6.543   6.996  0.7813  0.6410 -0.2380
  160DOPC   C1319247   1.537   6.461   7.332 -0.3869  0.0940  0.4118
  160DOPC  H13A19248   1.526   6.370   7.388 -0.8192 -1.8731 -2.6115
  160DOPC  H13B19249   1.612   6.530   7.366 -0.3605  0.6329 -0.6842
  160DOPC  H13C19250   1.442   6.505   7.359 -1.4887 -2.1332  0.4139
  160DOPC   C1419251   1.684   6.397   7.157 -0.0476  0.0220  0.2887
  160DOPC  H14A19252   1.702   6.380   7.052  0.4990 -0.1681  0.4093
  160DOPC  H14B19253   1.754   6.475   7.182  0.1875 -0.0178 -0.2367
  160DOPC  H14C19254   1.710   6.307   7.210  1.3597 -1.4813 -2.7215
  160DOPC   C1519255   1.451   6.328   7.145 -0.4082 -0.0028 -0.5539
  160DOPC  H15A19256   1.485   6.305   7.046 -0.6289 -0.4108 -0.5388
  160DOPC  H15B19257   1.346   6.348   7.160 -0.6364 -2.1459  1.2283
  160DOPC  H15C19258   1.463   6.238   7.205 -2.1321  1.1973  1.7733
  160DOPC   C1119259   1.607   6.685   7.125  0.2091 -0.0247 -0.2277
  160DOPC  H11A19260   1.571   6.779   7.078 -0.1176 -0.0751 -0.0745
  160DOPC  H11B19261   1.593   6.705   7.233 -2.9834 -1.1981 -0.3235
  160DOPC     P19262   1.808   6.740   6.959  0.1613 -0.2952  0.0847
  160DOPC   O1319263   1.849   6.635   6.864 -0.8721 -0.1820  0.3411
  160DOPC   O1419264   1.916   6.825   7.023 -0.5155  0.5279  0.2807
  160DOPC   O1219265   1.739   6.664   7.083  0.0475 -0.7364 -0.5013
  160DOPC   O1119266   1.699   6.834   6.893 -0.3513 -0.4497  0.7994
  160DOPC    C119267   1.588   6.789   6.806 -0.0679  0.1224 -0.1772
  160DOPC    HA19268   1.509   6.864   6.825  0.1935  0.6241 -1.0501
  160DOPC    HB19269   1.548   6.692   6.843 -3.0710  1.3585  0.0917
  160DOPC    C219270   1.612   6.791   6.651  0.8176 -0.2908  0.1233
  160DOPC    HS19271   1.699   6.727   6.627  4.6029  4.4860 -0.5524
  160DOPC   O2119272   1.632   6.925   6.609  0.0499 -0.0072 -0.4473
  160DOPC   C2119273   1.719   6.943   6.508  0.7511 -0.2124  0.8138
  160DOPC   O2219274   1.789   6.862   6.451 -0.3432  0.6201 -0.1838
  160DOPC   C2219275   1.713   7.090   6.483  0.0345  0.4863  0.2126
  160DOPC   H2R19276   1.732   7.144   6.579  0.9505 -0.2321  0.4404
  160DOPC   H2S19277   1.609   7.110   6.451 -0.5329 -1.9128  0.3805
  160DOPC    C319278   1.483   6.729   6.581 -0.1419 -0.1574  0.4482
  160DOPC    HX19279   1.400   6.802   6.593  0.3357  0.6158 -0.7959
  160DOPC    HY19280   1.454   6.637   6.638  1.2075 -1.1230 -0.3686
  160DOPC   O3119281   1.513   6.709   6.445 -0.2102  0.4185 -0.1752
  160DOPC   C3119282   1.589   6.602   6.411 -0.1516  0.6471  0.2493
  160DOPC   O3219283   1.637   6.524   6.491 -0.4410 -0.0534  0.6352
  160DOPC   C3219284   1.604   6.607   6.253 -0.4240 -0.0627 -1.2068
  160DOPC   H2X19285   1.504   6.578   6.213 -0.8031 -0.4548 -0.0329
  160DOPC   H2Y19286   1.632   6.712   6.231 -1.1443  0.4700  0.2607
  160DOPC   C2319287   1.808   7.139   6.371 -0.3347 -0.7970  0.5596
  160DOPC   H3R19288   1.906   7.098   6.402  0.3872 -0.4651 -1.1765
  160DOPC   H3S19289   1.818   7.250   6.377  2.4209 -0.8977 -0.7621
  160DOPC   C2419290   1.760   7.092   6.235  0.2859  0.2113 -0.2951
  160DOPC   H4R19291   1.772   6.982   6.232  2.3880  0.4018 -2.7210
  160DOPC   H4S19292   1.831   7.128   6.157 -0.0970 -0.4391 -0.9578
  160DOPC   C2519293   1.625   7.140   6.184  0.0352 -0.4196  0.2180
  160DOPC   H5R19294   1.624   7.251   6.188  0.2860 -0.3980 -0.2663
  160DOPC   H5S19295   1.535   7.101   6.235  0.5989 -0.4537  1.1985
  160DOPC   C2619296   1.595   7.100   6.037 -0.1788 -0.7390  0.2601
  160DOPC   H6R19297   1.672   7.156   5.979  0.7254 -1.1997  0.9809
  160DOPC   H6S19298   1.495   7.140   6.009 -0.0165 -1.1216 -0.9660
  160DOPC   C2719299   1.615   6.956   6.008 -0.2221  0.2143 -0.7756
  160DOPC   H7R19300   1.569   6.895   6.089  0.2003  1.9614  0.8497
  160DOPC   H7S19301   1.723   6.932   6.023 -0.1352  2.2219  2.8592
  160DOPC   C2819302   1.574   6.929   5.862 -0.3747 -0.6381 -0.3353
  160DOPC   H8R19303   1.618   7.009   5.799  0.5117 -0.6993  0.1903
  160DOPC   H8S19304   1.465   6.951   5.867  0.2597  3.1294  0.0867
  160DOPC   C2919305   1.603   6.797   5.803  0.0296 -0.4339 -0.0353
  160DOPC   H9R19306   1.579   6.708   5.863  0.8546 -1.6257 -1.4176
  160DOPC  C21019307   1.643   6.779   5.668  0.5231 -0.0333 -0.4075
  160DOPC  H10R19308   1.656   6.679   5.623 -1.4622  0.2481 -1.7417
  160DOPC  C21119309   1.667   6.894   5.575 -0.4235 -0.6260  0.1630
  160DOPC  H11R19310   1.627   6.991   5.611  3.8273  1.3632  0.2385
  160DOPC  H11S19311   1.642   6.872   5.469  0.9627  0.0723 -0.3349
  160DOPC  C21219312   1.812   6.926   5.568  0.0339  0.5137  0.3955
  160DOPC  H12R19313   1.860   6.909   5.667  3.1158 -2.2302 -1.3325
  160DOPC  H12S19314   1.825   7.029   5.529 -0.8886  0.1663 -0.8943
  160DOPC  C21319315   1.887   6.836   5.468  0.1174 -0.4228 -0.4869
  160DOPC  H13R19316   1.832   6.806   5.376  2.3877 -2.3434 -1.3158
  160DOPC  H13S19317   1.906   6.749   5.535 -0.0404  1.4142  2.0942
  160DOPC  C21419318   2.028   6.896   5.427  0.1851 -0.3720  0.0577
  160DOPC  H14R19319   2.104   6.820   5.397  1.2923  0.9505 -0.5974
  160DOPC  H14S19320   2.079   6.936   5.517  1.7114 -3.1871  0.5748
  160DOPC  C21519321   2.017   7.012   5.332  0.1510  0.1710 -0.4044
  160DOPC  H15R19322   2.116   7.061   5.323  0.3979 -0.5087 -1.6872
  160DOPC  H15S19323   1.941   7.082   5.372 -0.0630 -1.8808  3.2264
  160DOPC  C21619324   1.971   6.977   5.182 -0.5371 -0.0627 -0.0987
  160DOPC  H16R19325   1.860   6.972   5.177 -0.5638  1.5477 -3.7693
  160DOPC  H16S19326   2.024   6.883   5.157  0.3059  0.4805 -0.3977
  160DOPC  C21719327   2.026   7.071   5.084  0.2815  0.2686  0.1387
  160DOPC  H17R19328   2.001   7.053   4.977 -2.7385  0.9247  0.6313
  160DOPC  H17S19329   2.135   7.052   5.084 -0.1619 -3.1087  2.4391
  160DOPC  C21819330   2.005   7.215   5.121  0.9672 -0.6824 -0.0015
  160DOPC  H18R19331   1.995   7.281   5.032  1.1839 -0.3099  0.2495
  160DOPC  H18S19332   2.092   7.254   5.178  1.0401 -0.8041 -0.0294
  160DOPC  H18T19333   1.915   7.223   5.186  0.6909 -3.3854  0.0677
  160DOPC   C3319334   1.711   6.511   6.206 -0.5605  0.4481 -0.5456
  160DOPC   H3X19335   1.695   6.409   6.245  2.0039  0.7158  1.5276
  160DOPC   H3Y19336   1.802   6.547   6.260 -0.6239  1.5229 -1.1147
  160DOPC   C3419337   1.748   6.506   6.056 -0.2252  0.0909  0.1979
  160DOPC   H4X19338   1.848   6.470   6.025 -1.1834 -2.3716 -0.2512
  160DOPC   H4Y19339   1.758   6.609   6.015  0.2242 -0.6456 -1.6325
  160DOPC   C3519340   1.645   6.421   5.984 -0.2805 -0.6625 -0.4455
  160DOPC   H5X19341   1.553   6.482   5.999 -1.0163 -1.6006 -1.0559
  160DOPC   H5Y19342   1.617   6.319   6.017 -2.4930  0.0905  0.2076
  160DOPC   C3619343   1.673   6.427   5.838 -0.4543  0.1589 -0.1693
  160DOPC   H6X19344   1.708   6.529   5.813  1.2037 -0.1007  0.9125
  160DOPC   H6Y19345   1.764   6.367   5.816 -0.1427  0.8485 -0.8100
  160DOPC   C3719346   1.560   6.361   5.757 -0.6562  0.2147 -0.6689
  160DOPC   H7X19347   1.529   6.265   5.802  1.8599 -0.2676  0.1752
  160DOPC   H7Y19348   1.473   6.431   5.762  0.3332  1.5952 -1.8646
  160DOPC   C3819349   1.595   6.351   5.611 -0.0032  0.0269  0.2995
  160DOPC   H8X19350   1.689   6.297   5.584 -0.5626 -1.7463  1.7032
  160DOPC   H8Y19351   1.608   6.456   5.580 -0.6883  0.9990  3.0489
  160DOPC   C3919352   1.482   6.284   5.533  0.4064 -0.1336  0.3843
  160DOPC   H9X19353   1.388   6.339   5.544 -0.0117 -1.0840  1.8703
  160DOPC  C31019354   1.498   6.176   5.452  0.4540  0.4894 -0.5082
  160DOPC  H10X19355   1.418   6.134   5.389 -0.7416 -0.2807  1.4497
  160DOPC  C31119356   1.630   6.100   5.429  0.5468 -0.1215 -0.0614
  160DOPC  H11X19357   1.652   6.064   5.532  1.6643 -0.6600 -0.4680
  160DOPC  H11Y19358   1.718   6.153   5.386 -0.7537  0.1735 -2.5528
  160DOPC  C31219359   1.617   5.983   5.332  0.7086 -0.2908  0.7852
  160DOPC  H12X19360   1.553   5.899   5.368 -0.6482  0.7808  0.9584
  160DOPC  H12Y19361   1.725   5.955   5.333  0.4580 -1.6938 -2.1216
  160DOPC  C31319362   1.574   6.019   5.189 -0.0526 -0.1122  0.1459
  160DOPC  H13X19363   1.466   6.036   5.171  0.1719  0.2739 -0.8938
  160DOPC  H13Y19364   1.628   6.114   5.169 -1.1960  0.6323  0.5409
  160DOPC  C31419365   1.624   5.907   5.100 -0.0737  0.7514 -0.8932
  160DOPC  H14X19366   1.732   5.891   5.120 -0.5699 -2.3066 -0.1680
  160DOPC  H14Y19367   1.574   5.810   5.123 -0.3460  1.1454  0.2382
  160DOPC  C31519368   1.595   5.920   4.954 -0.1197  0.3845  0.7599
  160DOPC  H15X19369   1.489   5.923   4.919  0.5416  1.9199 -1.3481
  160DOPC  H15Y19370   1.634   5.825   4.913 -1.0336  0.6514 -0.8218
  160DOPC  C31619371   1.658   6.044   4.891 -0.1924 -0.4011 -0.0609
  160DOPC  H16X19372   1.588   6.129   4.906 -0.1825  0.0641 -2.2261
  160DOPC  H16Y19373   1.753   6.077   4.939  0.5254 -1.3831 -0.7438
  160DOPC  C31719374   1.656   6.033   4.733 -0.9402  0.2992  0.3332
  160DOPC  H17X19375   1.719   6.114   4.691  1.0860 -2.4404 -2.4465
  160DOPC  H17Y19376   1.700   5.937   4.698 -2.4730 -0.0199 -0.8498
  160DOPC  C31819377   1.516   6.045   4.677  0.0898  0.0400  0.1583
  160DOPC  H18X19378   1.534   6.015   4.571  0.9964 -2.2802  0.9062
  160DOPC  H18Y19379   1.449   5.965   4.716 -1.1409  0.9447 -0.0369
  160DOPC  H18Z19380   1.451   6.133   4.696  0.9374  1.1524 -1.7577
  161DOPC     N19381   3.343   0.179   6.794 -0.3794  0.4229  0.1982
  161DOPC   C1219382   3.359   0.328   6.830  0.0100 -0.1810 -0.4326
  161DOPC  H12A19383   3.350   0.393   6.744  0.7006  0.8636  0.2649
  161DOPC  H12B19384   3.458   0.347   6.867 -0.5514  0.9464  0.5747
  161DOPC   C1319385   3.232   0.160   6.703 -0.7486 -0.6037 -0.1218
  161DOPC  H13A19386   3.201   0.062   6.670 -1.2190  1.0782 -5.8950
  161DOPC  H13B19387   3.139   0.194   6.746 -0.0721  0.0501  0.8400
  161DOPC  H13C19388   3.257   0.218   6.615 -1.6199  1.0486  0.6816
  161DOPC   C1419389   3.333   0.089   6.910  0.6626  0.0183  0.0174
  161DOPC  H14A19390   3.432   0.078   6.951  0.7813  0.7985 -0.0431
  161DOPC  H14B19391   3.270   0.123   6.991 -1.5013 -1.6152 -0.8670
  161DOPC  H14C19392   3.303  -0.011   6.882 -1.0000  1.0935 -2.3949
  161DOPC   C1519393   3.473   0.147   6.721  0.4876 -0.3009  0.5743
  161DOPC  H15A19394   3.475   0.200   6.627  1.9577 -0.0333  0.7446
  161DOPC  H15B19395   3.481   0.042   6.700  0.2333 -0.1969 -0.0646
  161DOPC  H15C19396   3.558   0.181   6.778  0.2343  3.5472 -1.0042
  161DOPC   C1119397   3.267   0.391   6.937 -0.1279  0.1923  0.0315
  161DOPC  H11A19398   3.281   0.343   7.036 -0.1025  0.9607  0.4054
  161DOPC  H11B19399   3.290   0.499   6.953  2.0177 -0.2217  0.0111
  161DOPC     P19400   3.045   0.495   6.835 -0.0950 -0.3659  0.1915
  161DOPC   O1319401   3.084   0.625   6.899  0.3001  0.6573  0.0263
  161DOPC   O1419402   2.901   0.463   6.847  0.0837 -0.4884  0.2820
  161DOPC   O1219403   3.127   0.376   6.901 -0.0758 -0.2219 -0.0593
  161DOPC   O1119404   3.079   0.489   6.681 -0.0324 -0.3278  0.4558
  161DOPC    C119405   3.187   0.556   6.617  0.4688  0.3481 -0.4137
  161DOPC    HA19406   3.256   0.486   6.564 -0.2566  1.0119 -2.3262
  161DOPC    HB19407   3.252   0.612   6.687  2.9281 -0.2925 -2.0571
  161DOPC    C219408   3.123   0.646   6.510 -0.1947  0.5706  0.7595
  161DOPC    HS19409   3.210   0.701   6.467  0.1764 -1.0154 -0.6301
  161DOPC   O2119410   3.033   0.740   6.573 -0.3477  0.1843  0.6537
  161DOPC   C2119411   3.083   0.833   6.646  0.0163  0.2071  0.1195
  161DOPC   O2219412   3.202   0.863   6.652  0.0264  0.0602  0.2483
  161DOPC   C2219413   2.967   0.905   6.726  0.2169 -0.0519 -0.2577
  161DOPC   H2R19414   2.905   0.830   6.780  0.1545  0.3666  0.2628
  161DOPC   H2S19415   2.901   0.950   6.648 -0.2743 -1.2461 -0.5474
  161DOPC    C319416   3.049   0.570   6.396  0.1855  0.2960 -0.1652
  161DOPC    HX19417   2.954   0.543   6.446  1.2004 -2.3310  0.4806
  161DOPC    HY19418   3.092   0.469   6.379 -1.8048 -0.5455 -0.5728
  161DOPC   O3119419   3.037   0.650   6.276 -0.0771 -0.2640 -0.1054
  161DOPC   C3119420   3.141   0.649   6.197  0.4881 -0.5519 -0.2273
  161DOPC   O3219421   3.250   0.594   6.220 -0.0038  0.5214  0.3903
  161DOPC   C3219422   3.110   0.729   6.077  0.5012  0.0883 -0.0638
  161DOPC   H2X19423   3.028   0.672   6.027  1.1940 -1.6033  0.6644
  161DOPC   H2Y19424   3.074   0.830   6.107 -0.9227 -0.9435  1.9358
  161DOPC   C2319425   3.006   1.017   6.823 -0.0653  0.3476 -0.5917
  161DOPC   H3R19426   3.093   1.073   6.784  0.9464  1.3192  2.6848
  161DOPC   H3S19427   3.030   0.968   6.920 -0.0657  0.4490 -0.5406
  161DOPC   C2419428   2.894   1.123   6.834 -0.0483  0.7322  0.1270
  161DOPC   H4R19429   2.800   1.072   6.866 -0.7004  0.0259 -2.6330
  161DOPC   H4S19430   2.871   1.167   6.735 -0.1853 -1.8671 -1.0678
  161DOPC   C2519431   2.925   1.239   6.931  0.0518  0.7175 -0.3678
  161DOPC   H5R19432   3.024   1.284   6.906  0.4629 -0.0227 -0.0926
  161DOPC   H5S19433   2.938   1.204   7.036 -1.1778  1.8661  0.1950
  161DOPC   C2619434   2.834   1.353   6.929 -0.3010 -0.5265  0.2174
  161DOPC   H6R19435   2.767   1.346   7.017 -0.7947  3.4953  0.3394
  161DOPC   H6S19436   2.756   1.322   6.856 -1.4158 -0.4192  1.3320
  161DOPC   C2719437   2.885   1.494   6.892 -0.4114  0.1351 -1.3495
  161DOPC   H7R19438   2.986   1.492   6.939 -1.3998  1.3613  0.9879
  161DOPC   H7S19439   2.841   1.573   6.957  0.0264  0.1423 -1.0559
  161DOPC   C2819440   2.894   1.529   6.742  0.3348  0.4714  0.0061
  161DOPC   H8R19441   2.930   1.634   6.739  0.3610  0.5682  2.1482
  161DOPC   H8S19442   2.790   1.535   6.703  0.8624  3.2981 -1.1800
  161DOPC   C2919443   2.984   1.443   6.653  0.4451 -0.3457 -0.6664
  161DOPC   H9R19444   3.059   1.385   6.709 -0.9065 -2.1888 -0.6869
  161DOPC  C21019445   2.981   1.441   6.519 -0.7346  0.2772 -0.6384
  161DOPC  H10R19446   3.072   1.402   6.470 -0.3220  0.6651 -0.2032
  161DOPC  C21119447   2.886   1.515   6.433  0.4138  0.4176 -0.2079
  161DOPC  H11R19448   2.941   1.607   6.404 -0.3413  0.6515 -0.9385
  161DOPC  H11S19449   2.786   1.536   6.477 -0.2103 -2.6191 -0.0193
  161DOPC  C21219450   2.878   1.442   6.298 -0.1641  0.2224 -0.6401
  161DOPC  H12R19451   2.811   1.354   6.305 -2.9665  2.3371  1.3252
  161DOPC  H12S19452   2.973   1.402   6.256 -0.1575 -2.9529  2.0006
  161DOPC  C21319453   2.820   1.542   6.192 -0.3510  0.1032  0.3393
  161DOPC  H13R19454   2.882   1.634   6.191  0.0613 -0.1638  0.9032
  161DOPC  H13S19455   2.725   1.586   6.228  0.0088  1.4277 -0.2521
  161DOPC  C21419456   2.820   1.471   6.055 -0.7449 -0.5766  0.1493
  161DOPC  H14R19457   2.772   1.371   6.066 -0.3182 -0.6965  0.9734
  161DOPC  H14S19458   2.925   1.458   6.022 -0.8273  0.2997 -0.4993
  161DOPC  C21519459   2.747   1.545   5.937 -0.8994  1.0790 -0.2054
  161DOPC  H15R19460   2.745   1.656   5.938 -2.4948  1.1443 -2.4724
  161DOPC  H15S19461   2.642   1.512   5.928 -0.4498 -0.0636 -1.8926
  161DOPC  C21619462   2.809   1.524   5.794  0.3535  0.5411  0.7356
  161DOPC  H16R19463   2.841   1.418   5.785  0.2874  0.5504  0.3623
  161DOPC  H16S19464   2.901   1.587   5.796  0.4907  0.3488  0.5920
  161DOPC  C21719465   2.712   1.570   5.691 -0.2303 -0.0962 -0.1670
  161DOPC  H17R19466   2.702   1.681   5.694 -0.2594  0.2231 -4.5685
  161DOPC  H17S19467   2.615   1.523   5.716 -0.3789  0.6201  0.6696
  161DOPC  C21819468   2.745   1.517   5.552 -0.2444  0.0548 -0.3465
  161DOPC  H18R19469   2.658   1.535   5.485 -1.5808  1.2549  1.5827
  161DOPC  H18S19470   2.770   1.409   5.558  0.4246  0.2438  0.5947
  161DOPC  H18T19471   2.835   1.574   5.518 -0.8028  0.4338 -1.2308
  161DOPC   C3319472   3.228   0.746   5.981 -0.3619  0.0025 -0.1496
  161DOPC   H3X19473   3.260   0.642   5.961 -2.1736 -0.5560 -0.3330
  161DOPC   H3Y19474   3.316   0.792   6.030 -0.7464  0.2412  0.3244
  161DOPC   C3419475   3.183   0.791   5.839  0.0657 -0.5409  0.1738
  161DOPC   H4X19476   3.098   0.863   5.841 -1.2211 -1.9473 -1.4255
  161DOPC   H4Y19477   3.129   0.706   5.794  0.3775 -1.6917  1.8749
  161DOPC   C3519478   3.296   0.841   5.753  0.3824  0.0294  0.3981
  161DOPC   H5X19479   3.362   0.754   5.731  1.6965  0.4503  2.4526
  161DOPC   H5Y19480   3.354   0.906   5.821  2.8639 -1.0262 -0.5706
  161DOPC   C3619481   3.251   0.914   5.624  0.3772 -0.0513  0.1694
  161DOPC   H6X19482   3.176   0.991   5.650 -1.0386 -0.8327 -1.3635
  161DOPC   H6Y19483   3.334   0.971   5.577 -0.2072  0.2517 -0.5215
  161DOPC   C3719484   3.202   0.818   5.514  0.7196  0.3833  0.7008
  161DOPC   H7X19485   3.296   0.782   5.468  1.7497  2.7126  0.8308
  161DOPC   H7Y19486   3.146   0.730   5.554 -0.1455  1.0825  1.0732
  161DOPC   C3819487   3.125   0.885   5.399  0.2595 -0.1769 -0.0099
  161DOPC   H8X19488   3.114   0.809   5.319 -1.8623  0.8170 -0.7361
  161DOPC   H8Y19489   3.200   0.951   5.351 -1.4635 -0.2335 -3.0480
  161DOPC   C3919490   2.986   0.942   5.423  0.1205  0.1137  0.4187
  161DOPC   H9X19491   2.917   0.883   5.484  1.3227  0.5655  2.3086
  161DOPC  C31019492   2.942   1.062   5.379  0.1408 -0.2557 -0.8247
  161DOPC  H10X19493   2.840   1.085   5.412  0.6090  0.0013  0.5439
  161DOPC  C31119494   3.006   1.166   5.297 -0.4518 -0.6083  0.3747
  161DOPC  H11X19495   3.115   1.163   5.319 -0.1035  2.2765 -0.6068
  161DOPC  H11Y19496   2.986   1.271   5.326  1.1910  0.2085 -1.2630
  161DOPC  C31219497   2.984   1.135   5.145  0.0556  0.1650 -0.1581
  161DOPC  H12X19498   2.875   1.136   5.120  0.0999  0.5036 -0.3447
  161DOPC  H12Y19499   3.015   1.033   5.114 -0.7889 -0.7311  1.7602
  161DOPC  C31319500   3.057   1.230   5.047 -0.1427 -0.1794  0.0693
  161DOPC  H13X19501   3.166   1.207   5.035 -0.1003  0.9527 -2.3317
  161DOPC  H13Y19502   3.021   1.216   4.943 -1.2966 -0.4007  0.4810
  161DOPC  C31419503   3.037   1.381   5.081 -0.4173  0.2760 -0.2355
  161DOPC  H14X19504   2.931   1.404   5.101 -0.9296 -1.8288 -0.3049
  161DOPC  H14Y19505   3.092   1.401   5.175  1.3753  0.5870 -1.2924
  161DOPC  C31519506   3.084   1.471   4.970 -0.2468 -0.0732  0.1808
  161DOPC  H15X19507   3.019   1.446   4.883  0.5821 -2.4362  0.1688
  161DOPC  H15Y19508   3.184   1.435   4.940 -0.4483  0.7119 -1.5083
  161DOPC  C31619509   3.065   1.624   4.991 -0.4423  0.5758 -0.0328
  161DOPC  H16X19510   2.961   1.635   5.031 -0.4474  1.1117 -0.1760
  161DOPC  H16Y19511   3.123   1.688   5.061 -2.6580 -0.5029  3.0272
  161DOPC  C31719512   3.058   1.691   4.854  0.2277 -0.0260  0.0006
  161DOPC  H17X19513   3.153   1.672   4.800  0.0369  1.0989 -0.7644
  161DOPC  H17Y19514   2.969   1.658   4.795 -0.6988  2.7993 -0.3234
  161DOPC  C31819515   3.051   1.845   4.855 -0.5456  0.0760 -0.4854
  161DOPC  H18X19516   2.951   1.878   4.891 -0.2821  1.4687 -0.9465
  161DOPC  H18Y19517   3.118   1.887   4.933  1.5407 -0.0376 -2.1268
  161DOPC  H18Z19518   3.052   1.888   4.752 -0.0161 -3.3347 -2.0544
  162DOPC     N19519   1.873   5.639   7.100 -0.7526  0.0208  0.0380
  162DOPC   C1219520   2.008   5.590   7.038 -0.1488 -0.1007 -0.1577
  162DOPC  H12A19521   1.980   5.517   6.963 -2.4500 -0.0413  0.5740
  162DOPC  H12B19522   2.073   5.542   7.108  0.2172  0.7574  0.1118
  162DOPC   C1319523   1.787   5.522   7.129 -0.1138  0.0369 -0.6695
  162DOPC  H13A19524   1.690   5.552   7.165 -0.0505 -1.8962  1.3006
  162DOPC  H13B19525   1.769   5.455   7.046 -0.1050  0.2278 -0.8273
  162DOPC  H13C19526   1.826   5.462   7.209 -1.7973  0.6240  0.6635
  162DOPC   C1419527   1.797   5.719   7.002 -0.1990 -0.0681 -0.1558
  162DOPC  H14A19528   1.855   5.803   6.965 -1.8421  1.4475  0.5629
  162DOPC  H14B19529   1.758   5.652   6.927  0.1132 -0.4497  0.0201
  162DOPC  H14C19530   1.706   5.763   7.039 -0.8778 -1.0515 -0.6122
  162DOPC   C1519531   1.908   5.723   7.222  0.1478  0.3885 -0.2509
  162DOPC  H15A19532   1.830   5.778   7.272  0.1316 -0.5660  0.8077
  162DOPC  H15B19533   1.981   5.799   7.199 -0.1804  0.4966 -0.9501
  162DOPC  H15C19534   1.950   5.654   7.294 -1.0431 -0.7341 -0.5847
  162DOPC   C1119535   2.101   5.693   6.965  0.1890  0.0096 -0.2497
  162DOPC  H11A19536   2.179   5.636   6.911 -1.5168 -1.0522 -1.6989
  162DOPC  H11B19537   2.047   5.744   6.883  1.1874 -0.6197 -1.3248
  162DOPC     P19538   2.162   5.934   7.046  0.2136 -0.0970 -0.0889
  162DOPC   O1319539   2.258   5.982   7.140 -0.1883  0.4111  0.7630
  162DOPC   O1419540   2.024   5.999   7.049 -0.4033  0.6254 -0.2568
  162DOPC   O1219541   2.152   5.776   7.064  0.0671  0.5269 -0.8509
  162DOPC   O1119542   2.216   5.945   6.896  0.4338  0.3363  0.1371
  162DOPC    C119543   2.349   5.959   6.850  0.1881  0.4484 -0.5494
  162DOPC    HA19544   2.385   5.869   6.795  0.0439  0.8680 -1.3398
  162DOPC    HB19545   2.427   5.957   6.930  1.5439  1.2000 -1.7901
  162DOPC    C219546   2.373   6.086   6.766 -0.1464 -0.2312  0.2219
  162DOPC    HS19547   2.313   6.159   6.824 -0.5693 -1.4217  1.3395
  162DOPC   O2119548   2.328   6.061   6.630  0.0601 -0.6472  0.4345
  162DOPC   C2119549   2.294   6.180   6.570  0.1389  0.3071 -0.3526
  162DOPC   O2219550   2.284   6.286   6.623 -0.6757 -0.8946 -0.1779
  162DOPC   C2219551   2.274   6.149   6.421 -0.4857  0.1121 -0.0714
  162DOPC   H2R19552   2.193   6.073   6.421 -0.4949  0.1218  0.5283
  162DOPC   H2S19553   2.366   6.103   6.378 -0.4208  0.1755  0.0005
  162DOPC    C319554   2.523   6.122   6.762  0.2186  0.4864 -1.2321
  162DOPC    HX19555   2.546   6.106   6.870 -2.5599 -1.7932 -0.8432
  162DOPC    HY19556   2.529   6.227   6.728  0.9965  0.7694 -0.2581
  162DOPC   O3119557   2.600   6.029   6.672  0.0283 -0.3019 -0.5951
  162DOPC   C3119558   2.716   6.079   6.627 -0.1372  0.6339 -0.8002
  162DOPC   O3219559   2.772   6.177   6.672 -0.0651 -0.0682 -0.0181
  162DOPC   C3219560   2.757   6.000   6.504  0.2249  0.1202 -0.4229
  162DOPC   H2X19561   2.741   5.891   6.523  0.9030 -0.0519 -0.7996
  162DOPC   H2Y19562   2.680   6.033   6.431  0.0133  0.8940  0.1465
  162DOPC   C2319563   2.234   6.267   6.330  0.5538 -0.3068 -0.4286
  162DOPC   H3R19564   2.294   6.360   6.340 -0.2198  0.4353 -2.1723
  162DOPC   H3S19565   2.133   6.311   6.346  2.1114  2.5303  2.7759
  162DOPC   C2419566   2.238   6.220   6.190 -0.7423 -0.7681  0.9584
  162DOPC   H4R19567   2.172   6.132   6.173 -0.6393 -1.1907  2.6259
  162DOPC   H4S19568   2.341   6.183   6.173  0.1486  1.3762  1.3691
  162DOPC   C2519569   2.197   6.341   6.091 -0.3149  0.0775  0.0239
  162DOPC   H5R19570   2.260   6.432   6.100 -2.4289  1.6517 -0.2919
  162DOPC   H5S19571   2.094   6.368   6.120 -0.8587  1.4818 -2.8005
  162DOPC   C2619572   2.189   6.283   5.950 -0.0238 -0.7849 -0.6887
  162DOPC   H6R19573   2.143   6.181   5.954 -0.0627 -0.8094 -1.5381
  162DOPC   H6S19574   2.296   6.267   5.923  0.4282 -0.8127  1.0119
  162DOPC   C2719575   2.121   6.382   5.852 -0.3643  0.0975  0.7131
  162DOPC   H7R19576   2.183   6.474   5.853 -2.2093  1.3746  1.5541
  162DOPC   H7S19577   2.019   6.407   5.887 -1.5865 -0.7082 -2.0089
  162DOPC   C2819578   2.121   6.328   5.707 -0.1296 -0.3684  0.0118
  162DOPC   H8R19579   2.069   6.230   5.700  1.4108 -1.4797  2.6020
  162DOPC   H8S19580   2.229   6.314   5.682 -0.4583 -0.3272 -1.5113
  162DOPC   C2919581   2.063   6.428   5.617  0.1183 -0.4334 -0.0595
  162DOPC   H9R19582   1.953   6.432   5.621  0.1990  1.3366  2.1575
  162DOPC  C21019583   2.134   6.518   5.544  0.4467  0.5606  0.0006
  162DOPC  H10R19584   2.085   6.589   5.476 -0.1655  0.1643  0.0122
  162DOPC  C21119585   2.282   6.531   5.544 -0.8906  0.0355 -0.0764
  162DOPC  H11R19586   2.343   6.467   5.609  0.2792 -1.0917 -2.1712
  162DOPC  H11S19587   2.312   6.634   5.574  2.6519 -1.0238  0.3991
  162DOPC  C21219588   2.344   6.521   5.407  0.2827  0.3784 -0.3828
  162DOPC  H12R19589   2.320   6.419   5.370 -1.3881  0.0176  1.5219
  162DOPC  H12S19590   2.455   6.517   5.405  0.2635 -1.0793 -3.4414
  162DOPC  C21319591   2.302   6.629   5.308  0.0877 -0.1388 -0.1559
  162DOPC  H13R19592   2.297   6.731   5.352  1.4566 -0.0304 -0.2014
  162DOPC  H13S19593   2.197   6.618   5.275  0.1181  1.5929 -0.9399
  162DOPC  C21419594   2.383   6.628   5.179  0.2727 -0.1445 -0.6668
  162DOPC  H14R19595   2.484   6.663   5.207 -0.1542  0.2628  0.4231
  162DOPC  H14S19596   2.331   6.703   5.116  0.6711 -0.1653 -1.0198
  162DOPC  C21519597   2.391   6.485   5.115 -0.4150 -0.8038  0.7025
  162DOPC  H15R19598   2.285   6.452   5.118 -0.9808  0.9250  1.9890
  162DOPC  H15S19599   2.448   6.421   5.186 -2.3839 -0.0911  3.0475
  162DOPC  C21619600   2.456   6.489   4.979  0.5455 -0.5980 -0.0928
  162DOPC  H16R19601   2.554   6.541   4.983  0.5153 -0.5475 -0.0279
  162DOPC  H16S19602   2.387   6.533   4.904  1.0706 -1.3862 -1.0778
  162DOPC  C21719603   2.476   6.344   4.921  0.1453  0.6638 -0.0587
  162DOPC  H17R19604   2.484   6.343   4.811  1.5068 -0.3114  0.0304
  162DOPC  H17S19605   2.382   6.286   4.940 -0.5930  1.5007 -1.0429
  162DOPC  C21819606   2.594   6.274   4.989  0.6061 -0.1865 -0.0899
  162DOPC  H18R19607   2.581   6.262   5.098 -0.6738 -0.8789 -0.2942
  162DOPC  H18S19608   2.685   6.328   4.956  0.4573 -0.9920 -1.9524
  162DOPC  H18T19609   2.600   6.170   4.950  2.2520  0.5310 -1.9019
  162DOPC   C3319610   2.898   6.020   6.446  0.0529 -0.9572  0.2019
  162DOPC   H3X19611   2.975   5.977   6.514 -0.7754 -1.2890  0.9579
  162DOPC   H3Y19612   2.913   6.130   6.444  2.8134 -1.2602 -3.0756
  162DOPC   C3419613   2.911   5.969   6.303  0.0075 -0.1764  0.4005
  162DOPC   H4X19614   2.826   6.014   6.248  1.8514  3.0207 -0.1091
  162DOPC   H4Y19615   2.910   5.859   6.291 -0.1178  0.0082 -1.6549
  162DOPC   C3519616   3.034   6.025   6.233  0.0163  0.0121 -0.1054
  162DOPC   H5X19617   3.119   5.975   6.285 -0.5425 -1.4430 -0.5488
  162DOPC   H5Y19618   3.038   6.136   6.224 -1.4630  0.1097  0.2146
  162DOPC   C3619619   3.037   5.974   6.089  0.2239 -0.2523 -0.0692
  162DOPC   H6X19620   2.992   5.873   6.084 -0.6917  0.1769 -0.8148
  162DOPC   H6Y19621   2.972   6.049   6.039  0.4737  0.4833  0.6709
  162DOPC   C3719622   3.166   5.977   6.013  0.1174  0.3345  0.7848
  162DOPC   H7X19623   3.198   6.083   6.019  0.2377  0.5898 -2.4744
  162DOPC   H7Y19624   3.247   5.919   6.062 -0.3820 -2.0529 -0.9760
  162DOPC   C3819625   3.164   5.924   5.867  0.0038  0.1409  0.6675
  162DOPC   H8X19626   3.138   5.816   5.866  1.8179 -0.3291  1.4719
  162DOPC   H8Y19627   3.268   5.919   5.830  0.2528 -1.1235  1.4626
  162DOPC   C3919628   3.069   6.008   5.786  0.2522  0.7297 -0.8390
  162DOPC   H9X19629   3.019   6.090   5.841 -0.2013 -0.2452  0.2663
  162DOPC  C31019630   3.040   5.994   5.660  0.2179 -0.2611 -0.1354
  162DOPC  H10X19631   2.952   6.045   5.618  0.6296 -0.7816 -1.6975
  162DOPC  C31119632   3.103   5.885   5.570  0.4075  0.0777  0.5967
  162DOPC  H11X19633   3.179   5.829   5.629  0.4676  0.3042  0.7362
  162DOPC  H11Y19634   3.144   5.945   5.486 -0.6140  3.1222  2.1049
  162DOPC  C31219635   2.994   5.785   5.527  0.1847 -0.5363 -0.2851
  162DOPC  H12X19636   2.927   5.849   5.465  0.9444 -0.1125 -0.6873
  162DOPC  H12Y19637   2.944   5.755   5.622 -0.2245 -0.4484 -0.4708
  162DOPC  C31319638   3.053   5.672   5.435  0.5699  0.1202 -1.3503
  162DOPC  H13X19639   3.105   5.592   5.492  0.1837 -0.1809 -1.4078
  162DOPC  H13Y19640   2.971   5.611   5.389 -0.5215 -0.0686  0.7165
  162DOPC  C31419641   3.142   5.719   5.315 -0.5430  0.3474 -0.1249
  162DOPC  H14X19642   3.097   5.792   5.244 -1.2952 -1.6474 -1.8324
  162DOPC  H14Y19643   3.243   5.752   5.347 -0.3614  0.8629 -1.1732
  162DOPC  C31519644   3.178   5.597   5.233 -0.6677 -0.4988  0.0459
  162DOPC  H15X19645   3.089   5.560   5.179 -1.1921 -0.8710  1.1281
  162DOPC  H15Y19646   3.220   5.514   5.294  0.8547  0.4002  0.2745
  162DOPC  C31619647   3.286   5.628   5.127  0.0799  0.5850 -0.0927
  162DOPC  H16X19648   3.242   5.714   5.071 -4.1360 -1.7261 -0.7206
  162DOPC  H16Y19649   3.382   5.660   5.172  0.4858  1.9408 -1.7968
  162DOPC  C31719650   3.307   5.514   5.024  0.2462  0.9656 -0.2051
  162DOPC  H17X19651   3.217   5.478   4.971 -0.9784 -0.6681  2.7257
  162DOPC  H17Y19652   3.383   5.562   4.958  1.1732  0.6227  0.5772
  162DOPC  C31819653   3.370   5.388   5.078 -0.3543 -0.2418 -0.5006
  162DOPC  H18X19654   3.397   5.317   4.996  0.6866 -0.8029  0.3006
  162DOPC  H18Y19655   3.473   5.409   5.115 -0.6006 -2.0972  1.4319
  162DOPC  H18Z19656   3.301   5.335   5.146 -0.3262  0.7012  0.2765
  163DOPC     N19657   0.618   2.768   7.016  0.2568 -0.0059  1.0677
  163DOPC   C1219658   0.531   2.670   7.099  0.2156  0.0185  0.6540
  163DOPC  H12A19659   0.460   2.727   7.156 -0.3791 -0.3935  0.3483
  163DOPC  H12B19660   0.593   2.619   7.171  1.6012  1.8779  0.8577
  163DOPC   C1319661   0.539   2.849   6.919  0.1079  0.3871  0.1925
  163DOPC  H13A19662   0.460   2.793   6.873  0.2370  0.7298 -0.4634
  163DOPC  H13B19663   0.501   2.934   6.974  0.4547  0.4366  0.3541
  163DOPC  H13C19664   0.600   2.879   6.835  0.3135  1.9099  0.8428
  163DOPC   C1419665   0.727   2.687   6.941 -0.0733  0.5802 -0.0471
  163DOPC  H14A19666   0.805   2.642   6.999  0.5284  1.8113  0.1374
  163DOPC  H14B19667   0.676   2.611   6.884 -1.5184  1.0411  0.5522
  163DOPC  H14C19668   0.776   2.755   6.873 -1.4605 -0.7081 -2.4645
  163DOPC   C1519669   0.683   2.866   7.107  0.4868 -0.5081 -0.1019
  163DOPC  H15A19670   0.616   2.934   7.157  1.4870  0.3015  0.1678
  163DOPC  H15B19671   0.756   2.923   7.051 -1.0966  0.0959 -1.6415
  163DOPC  H15C19672   0.741   2.820   7.186 -0.4662  1.3955  1.8047
  163DOPC   C1119673   0.453   2.560   7.026  0.3894 -0.0523 -0.1521
  163DOPC  H11A19674   0.512   2.498   6.954 -3.3275 -2.0807 -1.6971
  163DOPC  H11B19675   0.406   2.486   7.094  0.2801 -2.0131 -2.2420
  163DOPC     P19676   0.220   2.681   7.007 -0.1480 -0.0125  0.1532
  163DOPC   O1319677   0.160   2.778   6.911 -0.4916  0.1505 -0.3193
  163DOPC   O1419678   0.253   2.736   7.141  0.4936 -0.4656 -0.2424
  163DOPC   O1219679   0.352   2.620   6.939  0.0230  1.0458 -0.3077
  163DOPC   O1119680   0.119   2.564   7.010 -0.6016 -0.5934 -0.6969
  163DOPC    C119681   0.124   2.443   6.940 -0.6150  0.6704  0.6297
  163DOPC    HA19682   0.135   2.357   7.010  0.8520  0.5217  0.2518
  163DOPC    HB19683   0.220   2.432   6.886 -0.8977 -1.4720  0.4584
  163DOPC    C219684   0.009   2.418   6.838  0.0692  0.3911 -0.2098
  163DOPC    HS19685   0.028   2.319   6.790  1.9120  0.4338  0.3577
  163DOPC   O2119686  -0.003   2.525   6.748  0.3790 -0.6701  0.4715
  163DOPC   C2119687   0.091   2.545   6.661 -0.2776 -0.5993  0.7519
  163DOPC   O2219688   0.196   2.481   6.643  0.1351  0.0175  0.3195
  163DOPC   C2219689   0.048   2.665   6.576  0.2627  0.1565 -0.4565
  163DOPC   H2R19690   0.136   2.728   6.601  0.5823 -0.4469 -0.0434
  163DOPC   H2S19691  -0.044   2.707   6.621 -1.3388 -1.0593 -2.4380
  163DOPC    C319692  -0.129   2.402   6.911 -0.7627 -0.7753 -0.1565
  163DOPC    HX19693  -0.155   2.490   6.973 -2.6606  1.2395 -3.4770
  163DOPC    HY19694  -0.098   2.319   6.978  1.4043 -0.4121 -0.6123
  163DOPC   O3119695  -0.227   2.363   6.818 -0.2654  0.0990 -0.0909
  163DOPC   C3119696  -0.291   2.456   6.741  0.1472 -0.2165 -0.4483
  163DOPC   O3219697  -0.276   2.579   6.753 -0.2531  0.6951 -0.2397
  163DOPC   C3219698  -0.387   2.399   6.640  0.3065  0.0150  0.4170
  163DOPC   H2X19699  -0.475   2.360   6.695  1.4835 -2.6972  0.5790
  163DOPC   H2Y19700  -0.422   2.472   6.564 -1.2403  0.0355  1.1139
  163DOPC   C2319701   0.032   2.634   6.427  0.2836 -0.3950  0.2026
  163DOPC   H3R19702  -0.051   2.562   6.410 -0.4183  0.0875  1.5079
  163DOPC   H3S19703   0.127   2.585   6.396 -0.2588 -0.6717 -1.1053
  163DOPC   C2419704   0.020   2.768   6.343  0.0365 -0.3340 -0.6809
  163DOPC   H4R19705   0.095   2.841   6.379  1.7849 -1.8633 -1.1022
  163DOPC   H4S19706  -0.082   2.808   6.363 -0.1498 -0.3282 -1.6008
  163DOPC   C2519707   0.007   2.734   6.198  0.1353 -0.5098  0.3938
  163DOPC   H5R19708  -0.076   2.662   6.184 -0.6970  0.0743  2.1430
  163DOPC   H5S19709   0.098   2.681   6.160  0.1113  0.2287 -0.7518
  163DOPC   C2619710  -0.010   2.852   6.103  0.0773  0.1549 -0.1748
  163DOPC   H6R19711   0.073   2.925   6.118  0.1832 -0.1582  0.8512
  163DOPC   H6S19712  -0.106   2.904   6.126  0.4059  0.7858 -0.2113
  163DOPC   C2719713  -0.021   2.800   5.963 -0.1560  0.1610  0.0949
  163DOPC   H7R19714  -0.100   2.722   5.962 -0.8919  0.8041 -2.8563
  163DOPC   H7S19715   0.079   2.761   5.934  0.7724  1.7069  1.0902
  163DOPC   C2819716  -0.045   2.906   5.857  0.0676  0.1815  0.1967
  163DOPC   H8R19717   0.045   2.971   5.866  0.8869 -0.7907 -0.7265
  163DOPC   H8S19718  -0.128   2.974   5.885  1.9216  2.0555  1.4872
  163DOPC   C2919719  -0.056   2.822   5.732  0.0326 -0.2500 -1.3344
  163DOPC   H9R19720  -0.147   2.761   5.726 -1.2355  1.2930  0.9998
  163DOPC  C21019721   0.040   2.812   5.638  0.5920  0.1790 -1.1765
  163DOPC  H10R19722   0.007   2.781   5.538  0.3417 -0.8917 -0.7808
  163DOPC  C21119723   0.175   2.878   5.644  0.0665  0.3656  0.3922
  163DOPC  H11R19724   0.190   2.923   5.744 -0.0424  3.5440 -0.8840
  163DOPC  H11S19725   0.173   2.957   5.566 -0.5077  0.3107  0.3465
  163DOPC  C21219726   0.293   2.786   5.610  0.0368 -0.5885  0.8717
  163DOPC  H12R19727   0.376   2.860   5.604 -1.7798  1.4953 -0.0117
  163DOPC  H12S19728   0.299   2.749   5.505  1.8739  0.2116  0.6500
  163DOPC  C21319729   0.304   2.673   5.707 -0.7783  0.3290 -0.0343
  163DOPC  H13R19730   0.261   2.579   5.667 -0.8326 -0.4635  1.7925
  163DOPC  H13S19731   0.246   2.689   5.801 -1.8672 -1.5167 -0.3486
  163DOPC  C21419732   0.447   2.657   5.763  0.4301  0.8387 -0.1126
  163DOPC  H14R19733   0.485   2.756   5.795 -0.9968  1.4129 -0.1207
  163DOPC  H14S19734   0.514   2.622   5.682 -1.4196 -2.0497 -0.5744
  163DOPC  C21519735   0.458   2.552   5.884  0.5082 -0.0097  0.0021
  163DOPC  H15R19736   0.559   2.515   5.911 -0.3629 -1.3623  1.5825
  163DOPC  H15S19737   0.418   2.456   5.847  0.0604 -0.1296  0.7697
  163DOPC  C21619738   0.371   2.594   6.008  0.6116 -0.0800  1.0263
  163DOPC  H16R19739   0.285   2.528   6.031  0.1502 -1.2987 -3.2362
  163DOPC  H16S19740   0.340   2.699   5.989  1.8554 -0.0430 -1.2042
  163DOPC  C21719741   0.458   2.616   6.127 -0.6439  0.1633  0.2055
  163DOPC  H17R19742   0.531   2.697   6.103 -0.8630  0.7153  1.3076
  163DOPC  H17S19743   0.513   2.524   6.156 -0.6387  0.3616  0.8534
  163DOPC  C21819744   0.389   2.664   6.257 -0.1767  0.6454  0.2835
  163DOPC  H18R19745   0.301   2.598   6.269 -0.3151  1.1089  2.2085
  163DOPC  H18S19746   0.347   2.767   6.248  0.5467  1.0656  1.3916
  163DOPC  H18T19747   0.458   2.649   6.344 -0.3044  0.6707  0.3899
  163DOPC   C3319748  -0.332   2.271   6.567  0.3188 -0.4347  0.3365
  163DOPC   H3X19749  -0.405   2.230   6.494  3.0637 -2.7670 -1.3222
  163DOPC   H3Y19750  -0.310   2.183   6.631 -0.8396 -0.7941  0.2589
  163DOPC   C3419751  -0.202   2.301   6.481 -0.5841 -0.3634 -0.7291
  163DOPC   H4X19752  -0.118   2.318   6.552 -1.0774 -0.6359 -0.0681
  163DOPC   H4Y19753  -0.219   2.397   6.428  3.0529 -0.6089 -2.6127
  163DOPC   C3519754  -0.160   2.192   6.378 -0.3402 -0.3925  0.3622
  163DOPC   H5X19755  -0.254   2.162   6.326  0.5247 -2.0400 -0.3245
  163DOPC   H5Y19756  -0.124   2.102   6.433  2.0891  0.6832  0.6606
  163DOPC   C3619757  -0.049   2.226   6.280  0.9018  0.4331  1.1175
  163DOPC   H6X19758   0.042   2.273   6.323  1.7850 -1.6383  1.6296
  163DOPC   H6Y19759  -0.017   2.126   6.243  1.4734  1.2228 -0.6467
  163DOPC   C3719760  -0.095   2.308   6.152 -0.3468 -0.2541  0.3077
  163DOPC   H7X19761  -0.165   2.256   6.083 -1.9957 -0.3439  1.9703
  163DOPC   H7Y19762  -0.146   2.400   6.186  0.3317 -0.0763  0.8532
  163DOPC   C3819763   0.024   2.349   6.057  0.1930  0.0464  0.0747
  163DOPC   H8X19764   0.103   2.401   6.116 -0.3802  2.3338 -1.0583
  163DOPC   H8Y19765  -0.028   2.408   5.978 -1.0209 -0.6358  0.3383
  163DOPC   C3919766   0.094   2.223   5.999 -0.1212 -0.1563 -0.7678
  163DOPC   H9X19767   0.109   2.144   6.075  2.4084  1.1644  0.2117
  163DOPC  C31019768   0.137   2.209   5.875 -0.2495 -0.2098  0.4626
  163DOPC  H10X19769   0.184   2.112   5.855  0.0009 -0.0880  0.4651
  163DOPC  C31119770   0.128   2.310   5.768 -0.2254 -0.4944 -0.3783
  163DOPC  H11X19771   0.225   2.308   5.714 -0.3291  0.5705 -0.6207
  163DOPC  H11Y19772   0.111   2.412   5.809 -0.1389 -0.4903 -0.3527
  163DOPC  C31219773   0.001   2.297   5.673  0.0220  0.5180 -0.0229
  163DOPC  H12X19774  -0.098   2.302   5.724 -0.9038  1.5123 -1.8332
  163DOPC  H12Y19775   0.010   2.202   5.616  0.0495  0.3750  0.2140
  163DOPC  C31319776  -0.013   2.411   5.574  0.0852 -0.0439  0.3184
  163DOPC  H13X19777  -0.107   2.396   5.517 -0.2351 -0.5310  0.9595
  163DOPC  H13Y19778  -0.016   2.508   5.627  0.8639  0.1876 -0.0390
  163DOPC  C31419779   0.109   2.421   5.483  0.2376  0.8597 -0.3758
  163DOPC  H14X19780   0.201   2.434   5.544  0.3106  0.5820 -0.4247
  163DOPC  H14Y19781   0.123   2.329   5.423  0.5810  0.3436  0.4824
  163DOPC  C31519782   0.113   2.527   5.373  0.3289 -0.4566 -0.1774
  163DOPC  H15X19783   0.217   2.520   5.336  0.5223  0.2905  0.1884
  163DOPC  H15Y19784   0.088   2.621   5.428 -2.8667 -2.1158  1.4974
  163DOPC  C31619785   0.005   2.488   5.275 -0.0512  0.2403 -0.0204
  163DOPC  H16X19786   0.008   2.380   5.251  1.4630  0.5293 -1.2729
  163DOPC  H16Y19787  -0.093   2.511   5.324 -0.4676 -3.3907  1.1054
  163DOPC  C31719788   0.021   2.558   5.138  0.1703 -0.2784  0.1285
  163DOPC  H17X19789   0.014   2.668   5.147  1.1495  0.0526 -2.3070
  163DOPC  H17Y19790   0.125   2.536   5.106  0.2444 -0.5575  0.5449
  163DOPC  C31819791  -0.085   2.494   5.041 -0.1572  0.4019 -0.7458
  163DOPC  H18X19792  -0.078   2.571   4.961 -0.8506  2.8440  1.4047
  163DOPC  H18Y19793  -0.048   2.394   5.011  1.4072  0.6120  0.3491
  163DOPC  H18Z19794  -0.190   2.487   5.078 -0.5587 -3.8278 -2.0853
  164DOPC     N19795   0.363   0.254   7.056 -0.4002 -0.4094  0.2366
  164DOPC   C1219796   0.398   0.109   7.069  0.0418 -0.1441 -0.2092
  164DOPC  H12A19797   0.310   0.064   7.111  0.4498 -1.2530 -0.5170
  164DOPC  H12B19798   0.483   0.101   7.135  0.3143  0.4496 -0.4811
  164DOPC   C1319799   0.271   0.266   6.943 -0.5932 -0.3585  0.1562
  164DOPC  H13A19800   0.168   0.249   6.970 -0.8937  0.9092 -0.1340
  164DOPC  H13B19801   0.274   0.367   6.903  1.4475  0.4948  2.2329
  164DOPC  H13C19802   0.291   0.202   6.858 -0.2073 -1.9434  1.3975
  164DOPC   C1419803   0.488   0.341   7.031 -0.7137 -0.3501  0.1789
  164DOPC  H14A19804   0.554   0.340   7.117  1.2818  2.8365 -1.1389
  164DOPC  H14B19805   0.553   0.317   6.947 -1.8090 -0.4773 -0.6522
  164DOPC  H14C19806   0.464   0.444   7.010  1.9935  0.4196  0.4169
  164DOPC   C1519807   0.286   0.320   7.172 -0.5184  0.6326 -0.0859
  164DOPC  H15A19808   0.350   0.333   7.259  1.4376 -0.8908 -1.2289
  164DOPC  H15B19809   0.201   0.260   7.199 -1.3212  1.8407  0.1557
  164DOPC  H15C19810   0.250   0.419   7.151  2.6059  1.5594 -1.7472
  164DOPC   C1119811   0.442   0.029   6.939  0.0304 -0.1528  0.1844
  164DOPC  H11A19812   0.460  -0.075   6.974  1.5346  0.1974  0.5213
  164DOPC  H11B19813   0.358   0.027   6.865  0.3030 -1.5028 -0.1207
  164DOPC     P19814   0.705   0.079   6.922 -0.1141 -0.2521 -0.0357
  164DOPC   O1319815   0.714   0.002   7.047  0.4045 -0.3038  0.2684
  164DOPC   O1419816   0.749   0.218   6.925  0.2627 -0.2415  0.1068
  164DOPC   O1219817   0.558   0.085   6.870  0.6947 -0.0541  0.6136
  164DOPC   O1119818   0.786   0.006   6.808  0.0463 -0.3154 -0.0469
  164DOPC    C119819   0.738  -0.033   6.680 -0.0122 -0.3401 -0.6605
  164DOPC    HA19820   0.627  -0.028   6.680 -0.0685 -1.2856  0.6552
  164DOPC    HB19821   0.742  -0.143   6.672 -1.3589 -0.5184  0.6319
  164DOPC    C219822   0.800   0.045   6.562 -0.3581 -0.1718 -0.6731
  164DOPC    HS19823   0.909   0.022   6.554 -0.3711 -1.4229  1.7884
  164DOPC   O2119824   0.774   0.188   6.581  0.2802  0.7694  0.5908
  164DOPC   C2119825   0.874   0.259   6.636 -0.0883 -0.8835 -0.0807
  164DOPC   O2219826   0.983   0.213   6.670 -0.5537 -0.6003  0.1888
  164DOPC   C2219827   0.830   0.405   6.650 -0.2520 -0.1618  0.4208
  164DOPC   H2R19828   0.901   0.472   6.702 -0.7011  1.6416 -1.1805
  164DOPC   H2S19829   0.747   0.398   6.723 -1.9426 -0.6114 -1.4575
  164DOPC    C319830   0.737  -0.004   6.432  0.4152 -0.8601  0.7546
  164DOPC    HX19831   0.632   0.031   6.431  1.2561  1.9473  1.2402
  164DOPC    HY19832   0.738  -0.115   6.428  0.4767 -0.8369 -0.6320
  164DOPC   O3119833   0.791   0.048   6.308 -0.6220 -0.0760 -0.5134
  164DOPC   C3119834   0.907  -0.001   6.268 -0.1211  0.4408 -1.0534
  164DOPC   O3219835   0.965  -0.095   6.318 -0.1392  0.8976 -0.0155
  164DOPC   C3219836   0.961   0.076   6.144 -0.1247  0.8132  0.1201
  164DOPC   H2X19837   0.961   0.185   6.166 -0.6307  0.9625 -0.5598
  164DOPC   H2Y19838   1.065   0.039   6.134 -0.5435 -0.3818  0.0327
  164DOPC   C2319839   0.784   0.467   6.518  0.3432  0.6981 -0.1892
  164DOPC   H3R19840   0.740   0.568   6.535 -2.1462 -0.5137  1.1715
  164DOPC   H3S19841   0.713   0.405   6.459  0.3417 -0.2981  0.8363
  164DOPC   C2419842   0.879   0.475   6.395 -0.1416 -0.1079 -0.6004
  164DOPC   H4R19843   0.915   0.373   6.368 -0.0717 -1.0014  2.4663
  164DOPC   H4S19844   0.969   0.530   6.427 -0.4355 -1.5806  3.2921
  164DOPC   C2519845   0.816   0.541   6.273  1.2059 -0.9737  0.0561
  164DOPC   H5R19846   0.823   0.652   6.281  1.2929 -1.0295  0.8432
  164DOPC   H5S19847   0.709   0.512   6.273  1.1992 -1.0130  1.4773
  164DOPC   C2619848   0.880   0.496   6.141 -0.5811  0.0578  0.7664
  164DOPC   H6R19849   0.827   0.407   6.101 -0.8312  0.8698 -0.7951
  164DOPC   H6S19850   0.980   0.457   6.166 -1.0611 -0.6930  1.5455
  164DOPC   C2719851   0.894   0.607   6.033 -0.1907 -0.3741  0.4410
  164DOPC   H7R19852   0.965   0.680   6.078  0.5446 -0.8146  0.0196
  164DOPC   H7S19853   0.796   0.656   6.018 -0.7292 -1.3115  0.8054
  164DOPC   C2819854   0.951   0.555   5.900  0.6821  0.4756  0.1200
  164DOPC   H8R19855   1.050   0.505   5.910  2.3165  3.7175  2.1738
  164DOPC   H8S19856   0.969   0.646   5.838 -0.0693 -0.2142 -1.1522
  164DOPC   C2919857   0.852   0.474   5.823 -0.0721 -0.1626  0.5491
  164DOPC   H9R19858   0.748   0.504   5.840  0.2836  1.6453 -0.2563
  164DOPC  C21019859   0.878   0.369   5.742 -0.1259  0.4158 -0.2421
  164DOPC  H10R19860   0.789   0.315   5.706 -0.3817  0.5630  0.1688
  164DOPC  C21119861   1.010   0.306   5.709 -0.0602  0.4361  0.1911
  164DOPC  H11R19862   1.073   0.305   5.801 -3.5052  1.2464  2.7983
  164DOPC  H11S19863   1.065   0.364   5.632  0.2735 -1.9242 -1.4557
  164DOPC  C21219864   1.003   0.149   5.657  0.4569 -0.1413 -0.4991
  164DOPC  H12R19865   0.937   0.151   5.568  1.0857  1.2154 -0.9724
  164DOPC  H12S19866   0.963   0.077   5.731  2.7928 -0.8247  0.1769
  164DOPC  C21319867   1.128   0.102   5.594  0.3323  1.0271 -0.0470
  164DOPC  H13R19868   1.211   0.080   5.664 -0.7019 -3.2817  0.1362
  164DOPC  H13S19869   1.172   0.181   5.529  1.5292 -0.3990 -1.0516
  164DOPC  C21419870   1.128  -0.024   5.504 -0.8850 -0.1662  0.1170
  164DOPC  H14R19871   1.048  -0.027   5.427 -2.0066 -1.5573  1.2685
  164DOPC  H14S19872   1.108  -0.109   5.573 -1.5124 -0.1532 -0.0446
  164DOPC  C21519873   1.261  -0.043   5.433 -0.6122 -0.3974  0.8281
  164DOPC  H15R19874   1.348  -0.050   5.502  1.9927  2.5305 -1.8024
  164DOPC  H15S19875   1.274   0.042   5.362 -2.3622 -0.5423  0.2768
  164DOPC  C21619876   1.262  -0.174   5.356 -0.5010  0.1180 -0.2365
  164DOPC  H16R19877   1.195  -0.162   5.268 -0.1154 -1.8344 -0.8507
  164DOPC  H16S19878   1.215  -0.242   5.430 -0.9159 -1.1033 -1.5810
  164DOPC  C21719879   1.398  -0.227   5.311  0.0533  0.4896  0.2544
  164DOPC  H17R19880   1.444  -0.159   5.237 -0.5215 -1.7430 -2.3323
  164DOPC  H17S19881   1.366  -0.319   5.257 -0.8943 -0.7394  2.7273
  164DOPC  C21819882   1.483  -0.289   5.424 -0.0800 -0.5958  0.5794
  164DOPC  H18R19883   1.421  -0.366   5.474 -0.6498 -0.4408  0.1210
  164DOPC  H18S19884   1.512  -0.214   5.501  2.0112 -0.9529  0.1917
  164DOPC  H18T19885   1.580  -0.329   5.390 -0.1482 -0.4841  0.2515
  164DOPC   C3319886   0.873   0.042   6.018 -0.2353 -0.3834 -0.3735
  164DOPC   H3X19887   0.861   0.125   5.945 -1.6961 -1.4970 -1.4663
  164DOPC   H3Y19888   0.772   0.014   6.055 -0.0568 -1.0755 -0.3949
  164DOPC   C3419889   0.912  -0.085   5.938  0.5850  0.3862 -0.0055
  164DOPC   H4X19890   0.938  -0.172   6.003 -0.0190 -1.3105 -1.9186
  164DOPC   H4Y19891   1.011  -0.067   5.890  1.0696 -0.6179  0.5809
  164DOPC   C3519892   0.800  -0.119   5.834 -0.1343 -0.1505  0.2835
  164DOPC   H5X19893   0.795  -0.025   5.776 -0.8233 -0.1658  0.3178
  164DOPC   H5Y19894   0.702  -0.146   5.878  0.4103 -1.7919  0.5880
  164DOPC   C3619895   0.820  -0.236   5.740 -0.9007  0.8028 -0.4903
  164DOPC   H6X19896   0.925  -0.241   5.705 -0.6174 -0.1608  0.4502
  164DOPC   H6Y19897   0.810  -0.328   5.802  1.4730  0.7800 -0.0293
  164DOPC   C3719898   0.725  -0.230   5.625  0.0883 -0.2747 -0.2391
  164DOPC   H7X19899   0.626  -0.249   5.672  0.8946 -0.9536  1.2663
  164DOPC   H7Y19900   0.741  -0.126   5.588 -2.6572 -0.3490 -1.8748
  164DOPC   C3819901   0.768  -0.323   5.513 -0.0696 -0.0919 -0.0029
  164DOPC   H8X19902   0.756  -0.430   5.541 -1.5029 -0.0387 -0.3255
  164DOPC   H8Y19903   0.877  -0.313   5.491  0.4546 -1.1506  1.8748
  164DOPC   C3919904   0.679  -0.317   5.392 -0.2032  0.0249 -0.3150
  164DOPC   H9X19905   0.589  -0.379   5.399 -0.6188  0.6965  0.4732
  164DOPC  C31019906   0.680  -0.232   5.292 -0.3729  0.4539  0.8060
  164DOPC  H10X19907   0.593  -0.229   5.225  0.6833 -2.6249 -0.8967
  164DOPC  C31119908   0.778  -0.116   5.275  0.3945  0.3412  0.5252
  164DOPC  H11X19909   0.875  -0.168   5.285  0.6606  0.3232 -1.7953
  164DOPC  H11Y19910   0.769  -0.036   5.352  0.9546  0.3827  0.5468
  164DOPC  C31219911   0.774  -0.050   5.133  0.7622 -0.2622  0.5040
  164DOPC  H12X19912   0.672  -0.033   5.094  1.4719 -0.8777 -1.7859
  164DOPC  H12Y19913   0.806  -0.121   5.054  2.0284  0.7543  0.0603
  164DOPC  C31319914   0.862   0.068   5.127 -0.1174 -0.7397  0.0203
  164DOPC  H13X19915   0.947   0.060   5.198  0.1739  0.6566 -0.1397
  164DOPC  H13Y19916   0.909   0.101   5.032 -0.4236  1.2898  0.5226
  164DOPC  C31419917   0.782   0.193   5.154  0.3069 -0.7972  0.2063
  164DOPC  H14X19918   0.718   0.179   5.244  0.4040 -1.1738  0.2166
  164DOPC  H14Y19919   0.707   0.204   5.073  0.7498 -2.6706 -0.5072
  164DOPC  C31519920   0.861   0.326   5.168 -0.3009  0.4501  0.0079
  164DOPC  H15X19921   0.785   0.406   5.167 -2.9405 -1.8169  2.0431
  164DOPC  H15Y19922   0.939   0.340   5.090 -0.8510 -0.3320 -0.6951
  164DOPC  C31619923   0.929   0.320   5.308 -0.6167 -0.5676 -0.6711
  164DOPC  H16X19924   0.855   0.284   5.382 -0.8657 -0.0324 -0.6591
  164DOPC  H16Y19925   1.017   0.255   5.287 -0.2193 -0.2940  0.1150
  164DOPC  C31719926   0.981   0.460   5.357  0.4552 -0.6357  0.5049
  164DOPC  H17X19927   1.041   0.437   5.448  0.0874  0.3918  1.0201
  164DOPC  H17Y19928   1.041   0.496   5.271  0.4103  0.1115  0.7702
  164DOPC  C31819929   0.869   0.558   5.402 -0.1070  0.2581  0.4508
  164DOPC  H18X19930   0.835   0.527   5.503  0.1822  0.5939  0.6502
  164DOPC  H18Y19931   0.909   0.661   5.408  0.6561 -0.0805  1.4651
  164DOPC  H18Z19932   0.778   0.558   5.338 -0.2293  0.5083  0.6204
  165DOPC     N19933   5.263   0.365   7.013 -0.4657 -0.1458  0.1367
  165DOPC   C1219934   5.236   0.367   6.864 -0.0588  0.8150  0.8113
  165DOPC  H12A19935   5.137   0.409   6.854 -1.2295 -1.5584  1.4743
  165DOPC  H12B19936   5.237   0.264   6.831 -0.5565  0.2521  2.4273
  165DOPC   C1319937   5.380   0.282   7.045 -0.6549  0.8095  0.1154
  165DOPC  H13A19938   5.467   0.301   6.984 -0.3739  0.5835  0.4419
  165DOPC  H13B19939   5.405   0.291   7.149  1.2079 -0.9817 -0.1136
  165DOPC  H13C19940   5.358   0.180   7.018 -0.4213  0.2141  2.0762
  165DOPC   C1419941   5.140   0.316   7.083  0.7255 -0.0849  0.0774
  165DOPC  H14A19942   5.059   0.386   7.072 -1.7928 -2.9035 -0.2907
  165DOPC  H14B19943   5.106   0.217   7.056 -2.3327  0.5360  1.2294
  165DOPC  H14C19944   5.167   0.306   7.188  1.5763  1.1158 -0.0044
  165DOPC   C1519945   5.282   0.504   7.066 -0.5226 -0.1796  0.0661
  165DOPC  H15A19946   5.375   0.541   7.026 -1.0228  1.1275  0.0499
  165DOPC  H15B19947   5.303   0.504   7.172  1.8949  0.7527 -0.3645
  165DOPC  H15C19948   5.207   0.573   7.031  0.0947 -0.1537 -1.2389
  165DOPC   C1119949   5.341   0.432   6.771 -0.6091 -0.0452  0.0837
  165DOPC  H11A19950   5.434   0.371   6.779 -1.7979 -1.8368  0.8454
  165DOPC  H11B19951   5.314   0.417   6.664 -0.8242 -1.7742  0.3569
  165DOPC     P19952   5.262   0.689   6.750 -0.1538  0.0302 -0.1620
  165DOPC   O1319953   5.324   0.815   6.799 -0.2682  0.3534  0.5145
  165DOPC   O1419954   5.131   0.664   6.804 -0.1134 -0.0631 -0.2640
  165DOPC   O1219955   5.368   0.572   6.797  0.2253  0.0620 -0.3788
  165DOPC   O1119956   5.261   0.679   6.592 -0.3483 -0.0497  0.1817
  165DOPC    C119957   5.375   0.647   6.510  0.0164  0.5623 -0.3889
  165DOPC    HA19958   5.445   0.574   6.557 -0.2401  1.7634  2.0041
  165DOPC    HB19959   5.434   0.737   6.480 -0.0954  0.3925 -1.1449
  165DOPC    C219960   5.336   0.586   6.377  0.0668 -0.7697  0.3632
  165DOPC    HS19961   5.249   0.649   6.350 -0.0136 -1.3160 -0.7076
  165DOPC   O2119962   5.305   0.449   6.392  0.0044 -0.1306  0.3970
  165DOPC   C2119963   5.244   0.388   6.293  0.8916 -0.6321  0.3663
  165DOPC   O2219964   5.202   0.447   6.194 -0.5315 -0.0223  0.4214
  165DOPC   C2219965   5.233   0.239   6.318  0.1799 -0.5840 -0.1032
  165DOPC   H2R19966   5.129   0.201   6.314  0.4228 -1.1746 -1.3707
  165DOPC   H2S19967   5.287   0.216   6.412  0.1857  1.7686  0.5418
  165DOPC    C319968   5.443   0.618   6.271 -0.1734  0.4989  0.2368
  165DOPC    HX19969   5.478   0.723   6.278  3.1607 -0.3562 -1.4026
  165DOPC    HY19970   5.409   0.608   6.166 -1.4294  2.5483  0.3980
  165DOPC   O3119971   5.556   0.533   6.283  0.2148  0.2330 -0.6514
  165DOPC   C3119972   5.649   0.557   6.372  0.5931  0.4505 -1.2409
  165DOPC   O3219973   5.670   0.665   6.429  0.4454 -0.0549 -0.2096
  165DOPC   C3219974   5.744   0.443   6.372  0.0524  0.0639  0.6159
  165DOPC   H2X19975   5.830   0.448   6.441  1.0852 -0.4976 -0.5909
  165DOPC   H2Y19976   5.694   0.344   6.386  2.3812 -1.3909 -0.7067
  165DOPC   C2319977   5.297   0.161   6.204 -0.4079  0.1121  0.6639
  165DOPC   H3R19978   5.252   0.190   6.106  0.3965 -1.2733 -0.1562
  165DOPC   H3S19979   5.283   0.051   6.207 -0.6728  0.1167 -0.1312
  165DOPC   C2419980   5.446   0.190   6.202 -0.3600 -0.1976  1.1456
  165DOPC   H4R19981   5.488   0.178   6.304  0.8511  0.5199  0.7480
  165DOPC   H4S19982   5.468   0.296   6.182  2.7910 -1.1262 -1.0987
  165DOPC   C2519983   5.528   0.098   6.112  0.1505 -0.2455 -0.2331
  165DOPC   H5R19984   5.520  -0.012   6.126  0.2047 -0.2150  0.0337
  165DOPC   H5S19985   5.631   0.130   6.138 -0.1212  0.6255 -0.1916
  165DOPC   C2619986   5.486   0.129   5.965 -0.2119  0.3994  0.3836
  165DOPC   H6R19987   5.507   0.233   5.932 -0.7613  0.2645 -0.4252
  165DOPC   H6S19988   5.375   0.119   5.961 -0.4040  2.4125 -0.4031
  165DOPC   C2719989   5.546   0.029   5.868 -0.3182  0.0045  0.5569
  165DOPC   H7R19990   5.488  -0.065   5.873  0.2460 -0.3957 -0.2535
  165DOPC   H7S19991   5.651   0.008   5.896  0.2044  1.4249 -0.2007
  165DOPC   C2819992   5.546   0.066   5.716  0.7691 -0.1786 -0.2725
  165DOPC   H8R19993   5.612   0.155   5.706  1.3014 -0.6696 -1.2216
  165DOPC   H8S19994   5.443   0.098   5.687  0.0263 -1.7338  0.5173
  165DOPC   C2919995   5.600  -0.041   5.625  0.8207  0.3710 -0.1644
  165DOPC   H9R19996   5.708  -0.059   5.634  0.6019  0.0577  2.7120
  165DOPC  C21019997   5.535  -0.082   5.511 -0.0150  0.6105  0.3511
  165DOPC  H10R19998   5.573  -0.171   5.459 -6.1663 -3.0556  1.1275
  165DOPC  C21119999   5.396  -0.033   5.457  0.2825 -0.3289  0.0640
  165DOPC  H11R20000   5.395   0.078   5.453  3.4914 -0.1837  0.5039
  165DOPC  H11S20001   5.302  -0.071   5.503 -1.5565  1.0288 -2.3123
  165DOPC  C21220002   5.391  -0.078   5.310  0.8638 -0.0046  0.3147
  165DOPC  H12R20003   5.493  -0.068   5.268  0.7581  0.0008  0.0564
  165DOPC  H12S20004   5.323  -0.011   5.253  1.1487  0.9278  1.0395
  165DOPC  C21320005   5.350  -0.223   5.274  0.4378 -0.2487  0.5923
  165DOPC  H13R20006   5.251  -0.246   5.318  1.4139 -3.1796  1.4614
  165DOPC  H13S20007   5.417  -0.289   5.334  0.0526  0.4728  1.8614
  165DOPC  C21420008   5.359  -0.247   5.129  0.4312 -0.1571 -0.1126
  165DOPC  H14R20009   5.463  -0.271   5.098  0.5649 -1.6794  1.3702
  165DOPC  H14S20010   5.329  -0.158   5.070 -0.5583 -0.9695 -0.8916
  165DOPC  C21520011   5.271  -0.363   5.098  0.0159 -0.3923  0.2564
  165DOPC  H15R20012   5.165  -0.340   5.119  0.5879  2.3795  0.5504
  165DOPC  H15S20013   5.287  -0.454   5.159 -0.1322  1.1246  2.7168
  165DOPC  C21620014   5.268  -0.394   4.946 -1.0173 -0.9272 -0.2647
  165DOPC  H16R20015   5.370  -0.423   4.914 -0.2564  0.8621  0.4162
  165DOPC  H16S20016   5.220  -0.315   4.883 -0.5684 -0.9603 -0.6530
  165DOPC  C21720017   5.184  -0.519   4.939 -0.9274 -0.2112  0.1549
  165DOPC  H17R20018   5.205  -0.585   5.026  5.2043 -0.8431 -1.3380
  165DOPC  H17S20019   5.213  -0.576   4.848 -1.1461  2.1272 -1.4881
  165DOPC  C21820020   5.036  -0.485   4.910  0.1688 -0.3265 -0.3589
  165DOPC  H18R20021   4.987  -0.438   4.998  1.9967 -1.5975  1.4422
  165DOPC  H18S20022   4.981  -0.577   4.880  1.1991 -0.7560 -0.9591
  165DOPC  H18T20023   5.039  -0.423   4.818  1.0551  0.5628  0.2499
  165DOPC   C3320024   5.812   0.442   6.236  0.7740  0.0903  0.3621
  165DOPC   H3X20025   5.881   0.525   6.209  1.3392 -0.5108 -0.0798
  165DOPC   H3Y20026   5.739   0.434   6.152  1.3772 -2.0612 -0.0280
  165DOPC   C3420027   5.901   0.311   6.227  0.2854 -0.2742 -0.7373
  165DOPC   H4X20028   5.839   0.220   6.242 -1.9816  1.2616 -0.1609
  165DOPC   H4Y20029   5.965   0.331   6.316 -0.1417 -1.0955 -0.2297
  165DOPC   C3520030   5.989   0.296   6.104  0.5375 -0.0095 -0.0527
  165DOPC   H5X20031   6.065   0.215   6.106  0.1162 -0.6743 -3.6835
  165DOPC   H5Y20032   6.051   0.384   6.078 -0.5656  0.5869 -0.7234
  165DOPC   C3620033   5.899   0.269   5.976  0.1909  0.2818 -0.3378
  165DOPC   H6X20034   5.830   0.185   5.995  1.0920 -0.4727 -0.3565
  165DOPC   H6Y20035   5.840   0.360   5.951  1.0067  0.5628 -1.3229
  165DOPC   C3720036   6.000   0.220   5.869  0.2729 -0.0437 -0.3035
  165DOPC   H7X20037   6.045   0.122   5.898  2.1437  0.5410 -1.0976
  165DOPC   H7Y20038   6.081   0.295   5.860  0.9072 -0.6612  0.1349
  165DOPC   C3820039   5.937   0.192   5.734 -0.4272 -0.1651 -0.0103
  165DOPC   H8X20040   5.882   0.283   5.701  1.1111  1.1214  0.7956
  165DOPC   H8Y20041   5.858   0.114   5.737  0.7142 -1.3701 -0.5241
  165DOPC   C3920042   6.045   0.165   5.633  0.1845  0.4192  0.2243
  165DOPC   H9X20043   6.107   0.250   5.600  1.6950 -1.3596 -1.8479
  165DOPC  C31020044   6.078   0.043   5.583  0.1910  0.4847  0.1505
  165DOPC  H10X20045   6.160   0.032   5.510  0.3649 -0.6894  0.5032
  165DOPC  C31120046   6.007  -0.087   5.615 -0.7211 -0.7948 -0.0940
  165DOPC  H11X20047   5.941  -0.078   5.704 -0.7717  0.6331 -0.2380
  165DOPC  H11Y20048   6.084  -0.163   5.640 -1.5351 -1.7650 -0.4839
  165DOPC  C31220049   5.940  -0.123   5.484 -0.1722 -0.9773 -0.5370
  165DOPC  H12X20050   6.020  -0.111   5.408 -0.3988  0.4221 -0.5714
  165DOPC  H12Y20051   5.864  -0.046   5.460  0.5709 -0.2521 -0.6277
  165DOPC  C31320052   5.877  -0.258   5.474 -0.1460  0.5275  0.2058
  165DOPC  H13X20053   5.952  -0.339   5.489 -1.2711 -0.2838  1.8681
  165DOPC  H13Y20054   5.805  -0.285   5.555  1.0621 -0.5615  0.9522
  165DOPC  C31420055   5.801  -0.302   5.347  0.2796  0.5753 -0.2414
  165DOPC  H14X20056   5.758  -0.404   5.351  0.6534  0.4338  0.3559
  165DOPC  H14Y20057   5.714  -0.234   5.333 -1.0217 -0.6854  1.3783
  165DOPC  C31520058   5.878  -0.287   5.212  0.7186 -0.6319 -0.1418
  165DOPC  H15X20059   5.965  -0.356   5.209  0.8438 -0.4885  0.1557
  165DOPC  H15Y20060   5.918  -0.184   5.212 -3.4147  1.2166  1.3232
  165DOPC  C31620061   5.784  -0.312   5.091  0.5824  0.8248  0.0265
  165DOPC  H16X20062   5.707  -0.232   5.090 -1.1337 -0.7524  0.7752
  165DOPC  H16Y20063   5.845  -0.303   4.998  2.0527 -1.8996  0.6069
  165DOPC  C31720064   5.709  -0.450   5.076  0.2295 -0.3409 -0.4361
  165DOPC  H17X20065   5.786  -0.529   5.093  0.6843  0.1825  0.0072
  165DOPC  H17Y20066   5.642  -0.454   5.165 -0.8223 -1.6204 -1.2492
  165DOPC  C31820067   5.646  -0.463   4.939 -0.3730 -0.0695  0.0497
  165DOPC  H18X20068   5.590  -0.558   4.924 -0.3100 -0.0830 -0.1021
  165DOPC  H18Y20069   5.575  -0.377   4.936 -0.7439 -0.3746  0.0587
  165DOPC  H18Z20070   5.711  -0.452   4.849 -0.6637 -1.6610 -0.3823
  166DOPC     N20071   6.572   1.729   7.018 -0.5803 -0.0335  0.1968
  166DOPC   C1220072   6.701   1.816   7.025  0.1904 -0.2986  0.4316
  166DOPC  H12A20073   6.701   1.886   6.944  2.0624  2.5782  2.7176
  166DOPC  H12B20074   6.783   1.751   7.000  1.2074  1.1788 -0.1964
  166DOPC   C1320075   6.549   1.660   6.891 -0.0083 -0.2872 -0.3984
  166DOPC  H13A20076   6.448   1.624   6.892  0.0661 -0.4908 -0.0311
  166DOPC  H13B20077   6.539   1.731   6.810 -1.8120 -1.3983 -1.1974
  166DOPC  H13C20078   6.625   1.587   6.868 -0.3180 -1.0256  0.8306
  166DOPC   C1420079   6.452   1.821   7.046  0.3871  0.0165 -0.1569
  166DOPC  H14A20080   6.448   1.901   6.974  0.2840 -0.3260 -0.5368
  166DOPC  H14B20081   6.363   1.761   7.039  0.5116 -0.3755  1.2445
  166DOPC  H14C20082   6.457   1.865   7.144  1.7146  1.3996 -0.8086
  166DOPC   C1520083   6.568   1.629   7.128 -0.3368  0.1107  0.5706
  166DOPC  H15A20084   6.475   1.576   7.132  0.4903 -1.4119  0.2660
  166DOPC  H15B20085   6.589   1.678   7.222  0.4886  1.3800 -0.2306
  166DOPC  H15C20086   6.646   1.556   7.113  1.0214  1.1748  2.0948
  166DOPC   C1120087   6.739   1.905   7.147  0.0037 -0.0068 -0.1979
  166DOPC  H11A20088   6.733   1.846   7.241  0.8190 -0.7603 -0.6094
  166DOPC  H11B20089   6.846   1.935   7.140  0.4157 -1.2932  0.3193
  166DOPC     P20090   6.628   2.134   7.074 -0.1556 -0.3565  0.1153
  166DOPC   O1320091   6.711   2.252   7.123  0.5187  0.0565 -0.1496
  166DOPC   O1420092   6.480   2.147   7.054  0.0134  0.0704 -0.3209
  166DOPC   O1220093   6.649   2.014   7.166  0.1076  0.1590  0.0410
  166DOPC   O1120094   6.689   2.085   6.941 -0.3652  0.1715 -0.5209
  166DOPC    C120095   6.824   2.106   6.893  0.0278 -0.4169 -0.3337
  166DOPC    HA20096   6.886   2.017   6.917 -3.0304 -2.7359 -0.4352
  166DOPC    HB20097   6.876   2.196   6.932 -0.6148 -0.0010 -0.4200
  166DOPC    C220098   6.821   2.125   6.743 -0.1090  0.8517 -0.4201
  166DOPC    HS20099   6.752   2.211   6.733 -1.2602  0.0277  0.1585
  166DOPC   O2120100   6.777   2.001   6.676 -0.0947  0.6960 -0.5342
  166DOPC   C2120101   6.704   2.019   6.568 -0.9413  0.1960 -0.3121
  166DOPC   O2220102   6.653   2.125   6.542  0.2640 -0.4046  0.2056
  166DOPC   C2220103   6.671   1.884   6.515  0.1120 -0.5776  0.1328
  166DOPC   H2R20104   6.577   1.842   6.558  0.8032 -2.5908 -0.2218
  166DOPC   H2S20105   6.749   1.807   6.533  0.1505 -0.6399 -0.2911
  166DOPC    C320106   6.958   2.171   6.675  0.4763 -0.8904 -0.8078
  166DOPC    HX20107   7.031   2.088   6.670  1.1372 -0.3577 -0.1570
  166DOPC    HY20108   7.001   2.242   6.749 -1.5263  0.3125 -0.7271
  166DOPC   O3120109   6.947   2.220   6.537  0.2709  0.2501  0.0375
  166DOPC   C3120110   6.904   2.344   6.528  0.1962  0.9831 -0.1159
  166DOPC   O3220111   6.881   2.413   6.624  0.0594 -0.2485 -0.2915
  166DOPC   C3220112   6.890   2.368   6.378 -0.4631  0.3513  0.1588
  166DOPC   H2X20113   6.807   2.310   6.332 -0.5379  2.1690 -2.2112
  166DOPC   H2Y20114   6.858   2.474   6.367 -1.2587  0.0655 -0.4081
  166DOPC   C2320115   6.671   1.877   6.361  0.0388  0.5926 -0.0014
  166DOPC   H3R20116   6.574   1.920   6.327 -1.2773  0.0311  2.7707
  166DOPC   H3S20117   6.664   1.768   6.343 -1.0064  0.5544  0.5350
  166DOPC   C2420118   6.800   1.938   6.297 -0.0064  0.0723 -0.3213
  166DOPC   H4R20119   6.890   1.885   6.336  0.0704  1.0043  0.8015
  166DOPC   H4S20120   6.815   2.044   6.325 -0.0584 -0.0768  0.2921
  166DOPC   C2520121   6.799   1.929   6.142  0.0489 -0.9318  1.0972
  166DOPC   H5R20122   6.697   1.955   6.107  0.3552 -2.0739 -0.7463
  166DOPC   H5S20123   6.826   1.823   6.122 -3.0445 -1.3906 -1.3064
  166DOPC   C2620124   6.900   2.019   6.073 -0.1229 -0.6852 -0.1725
  166DOPC   H6R20125   7.003   1.976   6.074  0.2300 -0.0357  3.2884
  166DOPC   H6S20126   6.911   2.108   6.139 -2.6384 -0.6395  0.2471
  166DOPC   C2720127   6.849   2.063   5.938  0.3326 -0.7178 -0.1205
  166DOPC   H7R20128   6.921   2.123   5.879 -1.0224  1.2313  0.0944
  166DOPC   H7S20129   6.761   2.130   5.956  1.2272  0.3518  0.3894
  166DOPC   C2820130   6.808   1.947   5.838  0.5764  0.1437 -0.0036
  166DOPC   H8R20131   6.721   1.902   5.892 -1.6744  0.7441 -2.8755
  166DOPC   H8S20132   6.885   1.868   5.822 -0.3700 -0.2767 -3.0258
  166DOPC   C2920133   6.751   1.990   5.708  0.0477  0.4212  0.5908
  166DOPC   H9R20134   6.832   2.036   5.649 -0.5398 -1.1754 -1.6117
  166DOPC  C21020135   6.629   1.973   5.655 -0.3232 -0.3841 -0.2332
  166DOPC  H10R20136   6.613   1.995   5.548 -1.6512 -2.1738 -0.4629
  166DOPC  C21120137   6.506   1.907   5.719 -0.1697 -0.1003 -0.1167
  166DOPC  H11R20138   6.525   1.873   5.823  0.4132  1.6317  0.3878
  166DOPC  H11S20139   6.473   1.817   5.663 -0.3581 -0.1613  0.0946
  166DOPC  C21220140   6.401   2.008   5.733 -0.1324  0.3625 -0.1254
  166DOPC  H12R20141   6.301   1.969   5.762 -0.9765  2.4844 -0.0083
  166DOPC  H12S20142   6.384   2.044   5.630 -0.5467  0.1704 -0.1247
  166DOPC  C21320143   6.430   2.124   5.831 -0.4081  0.4276 -0.5253
  166DOPC  H13R20144   6.351   2.201   5.818 -0.5006  0.9921  2.5332
  166DOPC  H13S20145   6.532   2.164   5.819 -0.0179 -0.1856  0.5721
  166DOPC  C21420146   6.409   2.075   5.977 -0.3833 -0.3793 -0.3005
  166DOPC  H14R20147   6.475   1.987   5.997 -1.6777 -1.4845 -0.7331
  166DOPC  H14S20148   6.305   2.042   5.998 -0.1623 -0.5260  0.6068
  166DOPC  C21520149   6.424   2.184   6.091 -0.1091 -0.0517 -0.4492
  166DOPC  H15R20150   6.531   2.211   6.078  1.5023 -4.5281  1.4250
  166DOPC  H15S20151   6.427   2.137   6.191  0.5059  1.3202  0.1915
  166DOPC  C21620152   6.328   2.304   6.094 -0.7603 -0.1921 -0.9217
  166DOPC  H16R20153   6.220   2.279   6.087 -0.5537 -0.8285 -2.2205
  166DOPC  H16S20154   6.345   2.367   6.005  0.4528  0.2629 -0.3864
  166DOPC  C21720155   6.356   2.390   6.220 -0.1170  0.1578 -0.4849
  166DOPC  H17R20156   6.302   2.345   6.306 -0.4524 -3.2324 -2.2935
  166DOPC  H17S20157   6.328   2.494   6.196  1.1593  0.5177 -0.4692
  166DOPC  C21820158   6.505   2.402   6.263  0.4580  0.1766 -0.2856
  166DOPC  H18R20159   6.540   2.314   6.320  1.1481 -2.5625 -4.5047
  166DOPC  H18S20160   6.521   2.493   6.325 -1.2401  0.3694 -0.0966
  166DOPC  H18T20161   6.570   2.407   6.172  1.5094 -0.8088  0.3849
  166DOPC   C3320162   7.020   2.347   6.304  0.3958  0.0073 -0.3236
  166DOPC   H3X20163   7.062   2.244   6.303  1.1687  0.2918  0.5178
  166DOPC   H3Y20164   7.100   2.412   6.345 -0.3911  1.5077 -1.0848
  166DOPC   C3420165   7.013   2.391   6.161  0.2095  0.0583  0.2114
  166DOPC   H4X20166   7.005   2.502   6.153 -1.7648  0.1430  2.3606
  166DOPC   H4Y20167   6.931   2.344   6.101 -0.2627  1.3000 -0.1476
  166DOPC   C3520168   7.139   2.352   6.092  0.4833  0.2049  0.7478
  166DOPC   H5X20169   7.157   2.243   6.083  0.4413  0.2388  0.2370
  166DOPC   H5Y20170   7.231   2.394   6.139  0.4010  0.1486  0.9586
  166DOPC   C3620171   7.146   2.406   5.945  0.4064  0.5078  0.0519
  166DOPC   H6X20172   7.053   2.389   5.886  0.0494 -1.5942  1.0939
  166DOPC   H6Y20173   7.165   2.515   5.942 -0.9984  0.7482 -1.4999
  166DOPC   C3720174   7.258   2.337   5.868 -0.6155 -0.0570  0.0339
  166DOPC   H7X20175   7.361   2.366   5.900 -0.8967  0.7108  0.2721
  166DOPC   H7Y20176   7.238   2.228   5.877 -0.0581 -0.3173 -1.5856
  166DOPC   C3820177   7.239   2.367   5.711 -0.1765 -0.0718  0.1083
  166DOPC   H8X20178   7.129   2.365   5.697 -0.3655  1.8571  0.9837
  166DOPC   H8Y20179   7.276   2.274   5.662  3.3365  0.2473  1.8119
  166DOPC   C3920180   7.317   2.486   5.659 -0.2434 -0.1201 -0.3262
  166DOPC   H9X20181   7.420   2.501   5.692  0.0731 -2.5889 -0.0031
  166DOPC  C31020182   7.280   2.586   5.582  0.2567  0.4744 -0.6374
  166DOPC  H10X20183   7.351   2.670   5.583 -1.0024  1.5716 -0.1540
  166DOPC  C31120184   7.150   2.629   5.517  0.1079  0.1161  0.7141
  166DOPC  H11X20185   7.154   2.739   5.504  1.1819  0.3126  2.4202
  166DOPC  H11Y20186   7.062   2.611   5.583  0.5182 -0.0935  1.2068
  166DOPC  C31220187   7.115   2.561   5.381  0.7413 -0.6469  0.0022
  166DOPC  H12X20188   7.011   2.586   5.352  1.5511  1.9623 -1.0175
  166DOPC  H12Y20189   7.122   2.451   5.391  1.2495 -0.4988  1.4499
  166DOPC  C31320190   7.194   2.609   5.263 -0.0916 -0.7513 -0.2975
  166DOPC  H13X20191   7.202   2.720   5.269 -1.9561 -0.6386  0.9825
  166DOPC  H13Y20192   7.301   2.580   5.271  0.9494  2.9382  2.2624
  166DOPC  C31420193   7.133   2.556   5.138 -0.0140  0.1910 -0.5752
  166DOPC  H14X20194   7.127   2.445   5.143  1.2235  0.1781  2.6783
  166DOPC  H14Y20195   7.030   2.598   5.129 -0.2156 -0.4106 -1.1927
  166DOPC  C31520196   7.197   2.603   5.007 -0.5493 -0.1343 -0.6108
  166DOPC  H15X20197   7.146   2.557   4.919 -0.2538 -0.5967 -0.5403
  166DOPC  H15Y20198   7.304   2.575   5.011 -0.1039  1.3326 -1.4623
  166DOPC  C31620199   7.180   2.756   4.996  0.1927 -0.1305  0.2989
  166DOPC  H16X20200   7.073   2.783   4.998 -0.1862 -1.5552  2.2893
  166DOPC  H16Y20201   7.240   2.806   5.075 -1.2996  0.4093  1.1078
  166DOPC  C31720202   7.241   2.805   4.864  0.7144 -0.5460 -0.1399
  166DOPC  H17X20203   7.190   2.739   4.791 -2.2032 -2.3120  3.1565
  166DOPC  H17Y20204   7.221   2.912   4.841 -3.7254 -0.7669  1.7382
  166DOPC  C31820205   7.389   2.783   4.843 -0.6359 -0.0842  0.2694
  166DOPC  H18X20206   7.427   2.842   4.757 -0.3142  0.2008  0.6019
  166DOPC  H18Y20207   7.449   2.820   4.929  0.3852 -0.6200 -0.1894
  166DOPC  H18Z20208   7.399   2.673   4.835  1.4363 -0.0395  1.5130
  167DOPC     N20209   6.743   0.907   7.106 -0.3783  0.1739  0.3974
  167DOPC   C1220210   6.742   0.778   7.023 -0.9480 -0.5229  0.1903
  167DOPC  H12A20211   6.810   0.799   6.942  0.6696  0.0588  1.6196
  167DOPC  H12B20212   6.642   0.770   6.986 -1.1116  2.9677 -0.4153
  167DOPC   C1320213   6.661   0.888   7.228 -0.4238  0.8329  0.0338
  167DOPC  H13A20214   6.688   0.801   7.286  2.6158  3.0779  2.2652
  167DOPC  H13B20215   6.662   0.976   7.290  0.3648 -0.1982  1.5459
  167DOPC  H13C20216   6.555   0.872   7.211 -0.1831  1.0229 -1.8683
  167DOPC   C1420217   6.673   1.021   7.030  0.3012  0.3376 -0.2992
  167DOPC  H14A20218   6.569   1.000   7.010  0.9056 -0.8679 -2.4450
  167DOPC  H14B20219   6.683   1.116   7.081 -0.6696 -0.1950  0.9175
  167DOPC  H14C20220   6.705   1.025   6.927  0.5081  0.3221 -0.2378
  167DOPC   C1520221   6.887   0.943   7.127 -0.1817  0.3439  0.3927
  167DOPC  H15A20222   6.937   0.861   7.176 -1.3562  0.4077  1.7706
  167DOPC  H15B20223   6.892   1.030   7.192  0.7779  1.3521 -0.9763
  167DOPC  H15C20224   6.935   0.969   7.034 -0.7526 -0.4632 -0.1351
  167DOPC   C1120225   6.767   0.643   7.095  0.3539  0.1739 -0.7674
  167DOPC  H11A20226   6.702   0.633   7.184  1.0726 -0.1784 -0.2680
  167DOPC  H11B20227   6.734   0.558   7.032  0.0653 -0.1721 -0.1592
  167DOPC     P20228   7.014   0.608   7.023  0.1505  0.0341 -0.0391
  167DOPC   O1320229   7.078   0.478   7.045  0.2335  0.3074 -0.0304
  167DOPC   O1420230   7.109   0.728   7.023  0.3526  0.4545 -0.2563
  167DOPC   O1220231   6.906   0.627   7.140  0.0884  0.3634  0.0643
  167DOPC   O1120232   6.918   0.601   6.896 -0.1753 -0.1253  0.0148
  167DOPC    C120233   6.975   0.604   6.771  0.7038  0.5840 -0.4244
  167DOPC    HA20234   7.024   0.506   6.755 -0.5925 -0.2572  0.5934
  167DOPC    HB20235   7.046   0.689   6.756  0.9357  0.3613 -0.6018
  167DOPC    C220236   6.867   0.619   6.663  0.2208  0.6117  0.1453
  167DOPC    HS20237   6.923   0.583   6.574 -1.4818  1.0748 -1.1852
  167DOPC   O2120238   6.814   0.751   6.657 -0.2947 -0.0424 -0.2754
  167DOPC   C2120239   6.844   0.814   6.546  0.5709 -0.4063  0.4093
  167DOPC   O2220240   6.910   0.770   6.453 -0.7555 -0.9734  0.5649
  167DOPC   C2220241   6.760   0.944   6.535  0.5431 -0.5552  0.5623
  167DOPC   H2R20242   6.764   0.988   6.637  3.4545  0.5400  0.0631
  167DOPC   H2S20243   6.651   0.931   6.517  0.3317  1.2562  0.2990
  167DOPC    C320244   6.741   0.524   6.688 -0.1017  0.1803  0.5189
  167DOPC    HX20245   6.675   0.571   6.764 -1.1297 -0.1741 -0.1529
  167DOPC    HY20246   6.784   0.424   6.713 -1.3771 -0.4406  0.2991
  167DOPC   O3120247   6.674   0.514   6.562  0.0416  0.0621  0.0463
  167DOPC   C3120248   6.574   0.597   6.536  0.1572 -0.2629  0.0510
  167DOPC   O3220249   6.524   0.677   6.611 -0.0677  0.2437  0.1807
  167DOPC   C3220250   6.538   0.576   6.391  0.2849  0.4332  0.2269
  167DOPC   H2X20251   6.632   0.590   6.335  1.2367 -0.4968  1.5202
  167DOPC   H2Y20252   6.497   0.473   6.380  3.4829 -1.4011  3.1947
  167DOPC   C2320253   6.817   1.050   6.439 -0.1480 -0.1574  0.0361
  167DOPC   H3R20254   6.927   1.050   6.459  0.0775 -0.7733 -1.0721
  167DOPC   H3S20255   6.786   1.150   6.474  0.8553  0.2870 -0.3075
  167DOPC   C2420256   6.792   1.028   6.291 -0.5411  0.3237  0.3499
  167DOPC   H4R20257   6.685   1.013   6.263 -0.1413 -1.2120 -0.4937
  167DOPC   H4S20258   6.841   0.930   6.273 -0.4833  0.0442  1.8823
  167DOPC   C2520259   6.858   1.131   6.199 -0.5449  0.6648 -0.1467
  167DOPC   H5R20260   6.841   1.106   6.092 -1.4041  1.0285 -0.0978
  167DOPC   H5S20261   6.969   1.141   6.208 -0.4279 -0.0818 -0.6102
  167DOPC   C2620262   6.794   1.270   6.207 -0.3197  0.0875  0.3417
  167DOPC   H6R20263   6.848   1.323   6.289  1.7412 -0.3192 -0.6779
  167DOPC   H6S20264   6.688   1.250   6.232 -0.2950  0.0538  0.4219
  167DOPC   C2720265   6.817   1.352   6.078  0.4951  0.3773 -0.0927
  167DOPC   H7R20266   6.787   1.296   5.987 -1.4181  0.2285  0.5706
  167DOPC   H7S20267   6.925   1.379   6.074  0.1833  2.1514  1.9092
  167DOPC   C2820268   6.737   1.480   6.082  0.5737  0.8657  0.3700
  167DOPC   H8R20269   6.764   1.534   6.175 -1.3222 -0.5409  1.8290
  167DOPC   H8S20270   6.636   1.445   6.112  0.5719  0.1143 -0.4752
  167DOPC   C2920271   6.745   1.573   5.960  0.4455  0.2620 -0.4905
  167DOPC   H9R20272   6.846   1.609   5.936  0.3776  1.7840  1.2745
  167DOPC  C21020273   6.634   1.615   5.897 -0.3074 -0.2566 -0.3291
  167DOPC  H10R20274   6.651   1.673   5.805  2.3202  2.4851  1.6919
  167DOPC  C21120275   6.493   1.588   5.933  0.1932  0.8094  0.5382
  167DOPC  H11R20276   6.426   1.652   5.872  0.5856  1.0220  0.3222
  167DOPC  H11S20277   6.474   1.610   6.040  0.1567  0.3510  0.6286
  167DOPC  C21220278   6.442   1.441   5.910  0.1136  0.0880  0.5440
  167DOPC  H12R20279   6.528   1.374   5.933 -0.5825 -0.5596  1.2842
  167DOPC  H12S20280   6.365   1.432   5.989  0.8519  2.2509  1.6201
  167DOPC  C21320281   6.393   1.424   5.765 -0.2491  0.0622 -0.0230
  167DOPC  H13R20282   6.339   1.513   5.726  0.8791  0.4684 -0.7281
  167DOPC  H13S20283   6.342   1.326   5.754  1.2452 -0.7034 -0.4477
  167DOPC  C21420284   6.497   1.404   5.659 -0.0950  0.2346 -0.9537
  167DOPC  H14R20285   6.558   1.314   5.683  0.0427  0.3961 -0.6880
  167DOPC  H14S20286   6.566   1.491   5.666  0.6474 -0.3487 -0.8012
  167DOPC  C21520287   6.424   1.377   5.530 -0.1553 -0.8940 -0.6684
  167DOPC  H15R20288   6.347   1.457   5.531  0.3898 -0.3504 -1.5406
  167DOPC  H15S20289   6.373   1.278   5.532 -3.1325  0.4278 -3.0638
  167DOPC  C21620290   6.521   1.400   5.410 -0.1737  0.8314 -0.0576
  167DOPC  H16R20291   6.581   1.307   5.403 -2.9659 -1.4309  2.8591
  167DOPC  H16S20292   6.588   1.486   5.435  3.5763 -1.9631  0.3713
  167DOPC  C21720293   6.447   1.423   5.276  0.0365  0.2709 -0.1408
  167DOPC  H17R20294   6.525   1.434   5.198 -1.0187 -0.8736 -1.3892
  167DOPC  H17S20295   6.392   1.519   5.270  0.8425  0.7099 -0.8098
  167DOPC  C21820296   6.352   1.309   5.241 -0.0781  0.2902 -0.5781
  167DOPC  H18R20297   6.268   1.296   5.313 -0.0248 -0.8842 -0.7114
  167DOPC  H18S20298   6.404   1.211   5.237 -1.5076 -0.5439  0.2651
  167DOPC  H18T20299   6.307   1.320   5.139  1.7345  0.7263 -1.3725
  167DOPC   C3320300   6.431   0.679   6.331 -0.0341 -0.0486 -0.3444
  167DOPC   H3X20301   6.461   0.785   6.349  0.2726 -0.1751 -0.0842
  167DOPC   H3Y20302   6.333   0.657   6.379 -0.1660 -1.3559 -1.1832
  167DOPC   C3420303   6.408   0.669   6.181  0.5348  0.1498 -0.2898
  167DOPC   H4X20304   6.500   0.647   6.123  0.0560 -0.9650 -0.6460
  167DOPC   H4Y20305   6.374   0.766   6.137  2.8630  1.1211 -0.0730
  167DOPC   C3520306   6.316   0.547   6.150  1.0810  0.5439 -0.8298
  167DOPC   H5X20307   6.214   0.577   6.183  0.7323 -1.4323 -0.0198
  167DOPC   H5Y20308   6.355   0.460   6.206  1.2558  0.4622 -1.0759
  167DOPC   C3620309   6.319   0.503   5.999  0.2795  0.0493  0.1178
  167DOPC   H6X20310   6.420   0.470   5.968  1.9796  3.7175  1.2017
  167DOPC   H6Y20311   6.243   0.422   5.999 -1.9633  2.0034 -0.9597
  167DOPC   C3720312   6.262   0.617   5.912 -0.1020  0.5878  0.2744
  167DOPC   H7X20313   6.161   0.639   5.952 -0.7220 -0.5491 -0.6159
  167DOPC   H7Y20314   6.327   0.707   5.921 -0.8087  0.8929  3.9315
  167DOPC   C3820315   6.242   0.549   5.777 -0.6089  0.2874  0.8181
  167DOPC   H8X20316   6.198   0.446   5.780 -0.5642  0.2595  0.5071
  167DOPC   H8Y20317   6.342   0.538   5.730 -1.2901  1.2164 -0.9345
  167DOPC   C3920318   6.149   0.623   5.688  0.2093  0.0719 -0.7663
  167DOPC   H9X20319   6.066   0.654   5.752  2.1977 -0.4269  2.2631
  167DOPC  C31020320   6.161   0.645   5.555 -0.4701 -0.5921  0.1878
  167DOPC  H10X20321   6.068   0.685   5.511 -1.1682  0.7272  2.6979
  167DOPC  C31120322   6.272   0.598   5.462  0.0290 -0.6068  0.0094
  167DOPC  H11X20323   6.376   0.625   5.493  0.0208  0.1947 -0.6153
  167DOPC  H11Y20324   6.263   0.628   5.355 -0.7491 -1.3393 -0.1334
  167DOPC  C31220325   6.268   0.442   5.459 -0.3062 -0.0411  0.3997
  167DOPC  H12X20326   6.167   0.396   5.468 -0.2610  0.1178  2.2947
  167DOPC  H12Y20327   6.306   0.407   5.557 -2.1086  1.0072  1.5545
  167DOPC  C31320328   6.341   0.391   5.337 -0.3199  0.0725 -0.2688
  167DOPC  H13X20329   6.267   0.393   5.255 -0.0004 -2.9913 -0.7564
  167DOPC  H13Y20330   6.423   0.462   5.312  0.0098 -1.0575 -2.7209
  167DOPC  C31420331   6.392   0.247   5.357 -0.7740  0.6191 -0.8830
  167DOPC  H14X20332   6.453   0.250   5.450  1.4755  0.8678 -2.2981
  167DOPC  H14Y20333   6.301   0.186   5.381 -0.3407  0.3841  0.2638
  167DOPC  C31520334   6.459   0.201   5.228 -0.6088 -0.1215  0.6554
  167DOPC  H15X20335   6.522   0.290   5.204 -1.2656  0.4715  1.0885
  167DOPC  H15Y20336   6.387   0.189   5.145  2.3436  0.8452 -2.2913
  167DOPC  C31620337   6.532   0.063   5.227 -0.2565 -0.9488  0.0758
  167DOPC  H16X20338   6.601   0.046   5.142  0.2673 -0.3182  0.3694
  167DOPC  H16Y20339   6.612   0.075   5.303  0.9577 -0.2743 -1.2796
  167DOPC  C31720340   6.449  -0.066   5.247  0.0154 -1.3312 -0.5232
  167DOPC  H17X20341   6.508  -0.157   5.222 -0.2318 -1.9239  0.9836
  167DOPC  H17Y20342   6.429  -0.081   5.355 -1.5810  0.4229 -0.5291
  167DOPC  C31820343   6.309  -0.075   5.185  0.6840  0.8150 -0.1644
  167DOPC  H18X20344   6.249   0.015   5.212 -0.6576 -0.4327  1.2453
  167DOPC  H18Y20345   6.315  -0.081   5.074 -2.2130  0.9742 -0.4108
  167DOPC  H18Z20346   6.243  -0.159   5.218 -1.5555  2.1469 -1.0263
  168DOPC     N20347   1.896   0.406   7.206  0.0212  0.0398  0.3046
  168DOPC   C1220348   1.978   0.297   7.145  0.5448 -0.6973 -1.0607
  168DOPC  H12A20349   1.994   0.218   7.217 -0.0145  1.5764  1.7355
  168DOPC  H12B20350   2.074   0.330   7.109  1.9623 -2.3851  0.9329
  168DOPC   C1320351   1.771   0.345   7.278 -0.0184 -0.7148  0.0795
  168DOPC  H13A20352   1.700   0.296   7.213 -0.5461  0.9397 -0.6482
  168DOPC  H13B20353   1.813   0.286   7.359 -1.9433 -3.2815 -0.6616
  168DOPC  H13C20354   1.710   0.425   7.317  0.9968  0.5793 -0.9206
  168DOPC   C1420355   1.848   0.495   7.091  0.4072  0.3464  0.0519
  168DOPC  H14A20356   1.804   0.590   7.115 -0.8776  0.3035 -1.9663
  168DOPC  H14B20357   1.928   0.521   7.024 -0.9341  0.3690 -1.6025
  168DOPC  H14C20358   1.779   0.441   7.028  0.9336 -0.9671  0.5648
  168DOPC   C1520359   1.969   0.487   7.306 -0.0140 -0.0917  0.2753
  168DOPC  H15A20360   2.006   0.431   7.391 -0.0314 -1.1595 -0.4005
  168DOPC  H15B20361   1.904   0.564   7.344 -0.0135 -0.7407  1.6509
  168DOPC  H15C20362   2.054   0.539   7.264  1.3792 -0.3455  2.6116
  168DOPC   C1120363   1.919   0.226   7.017 -0.3809 -0.6804 -0.5590
  168DOPC  H11A20364   1.810   0.209   7.031 -0.7875  1.4789 -0.8247
  168DOPC  H11B20365   1.919   0.280   6.920  2.4240  0.7051  0.1074
  168DOPC     P20366   2.122   0.087   6.940 -0.1864  0.0364  0.3267
  168DOPC   O1320367   2.190  -0.029   7.006 -0.0313  0.2124  0.0338
  168DOPC   O1420368   2.193   0.219   6.946 -0.3985  0.3017 -0.0758
  168DOPC   O1220369   1.984   0.097   7.009 -0.1743 -0.1976  0.0029
  168DOPC   O1120370   2.078   0.052   6.788  0.2093  0.1498  0.3394
  168DOPC    C120371   1.959  -0.000   6.746  0.1231  0.0190  0.2014
  168DOPC    HA20372   1.962  -0.003   6.635  0.7844 -0.4514  0.2247
  168DOPC    HB20373   1.881   0.074   6.773  0.0780 -0.7756  2.4768
  168DOPC    C220374   1.929  -0.144   6.796  0.3370  0.8936 -1.0449
  168DOPC    HS20375   1.939  -0.146   6.907 -0.4174 -0.9644 -0.9832
  168DOPC   O2120376   2.015  -0.227   6.725 -0.1329  0.1560  0.1106
  168DOPC   C2120377   2.048  -0.339   6.789  0.1661  0.6784  0.4509
  168DOPC   O2220378   2.000  -0.384   6.889  0.0902  0.0547 -0.6555
  168DOPC   C2220379   2.160  -0.416   6.705  0.4985  0.1683  0.2222
  168DOPC   H2R20380   2.247  -0.418   6.774  1.8540 -1.2365 -1.4255
  168DOPC   H2S20381   2.177  -0.359   6.611  0.0474  0.0761  0.0808
  168DOPC    C320382   1.784  -0.194   6.766 -0.5197  0.0483 -0.1590
  168DOPC    HX20383   1.721  -0.117   6.816 -1.9270 -0.0261 -1.7192
  168DOPC    HY20384   1.779  -0.292   6.818  0.1305  0.7414  1.2894
  168DOPC   O3120385   1.751  -0.197   6.628 -0.6120  0.0760 -0.2501
  168DOPC   C3120386   1.618  -0.217   6.613 -0.0808  0.5431  0.2775
  168DOPC   O3220387   1.542  -0.237   6.706 -0.7497  0.5159  0.5655
  168DOPC   C3220388   1.585  -0.222   6.469  0.1306  0.3178  0.3936
  168DOPC   H2X20389   1.624  -0.127   6.427 -0.6113 -0.5767 -2.5533
  168DOPC   H2Y20390   1.646  -0.300   6.418  1.0284  0.2063  1.6027
  168DOPC   C2320391   2.120  -0.561   6.681 -0.2704 -0.0835 -0.0803
  168DOPC   H3R20392   2.014  -0.576   6.650  0.0850 -1.6009 -0.6133
  168DOPC   H3S20393   2.127  -0.608   6.781  0.3726 -0.2574 -0.2029
  168DOPC   C2420394   2.221  -0.628   6.585  0.1794  0.2063 -0.1049
  168DOPC   H4R20395   2.321  -0.601   6.624  0.6571 -0.4829 -0.8323
  168DOPC   H4S20396   2.209  -0.594   6.480 -1.2904 -2.5185 -0.9176
  168DOPC   C2520397   2.220  -0.781   6.592  0.1019  0.1559 -0.2564
  168DOPC   H5R20398   2.122  -0.810   6.550  0.3614 -1.5857  0.2253
  168DOPC   H5S20399   2.210  -0.807   6.700 -1.6282  0.5441 -0.2891
  168DOPC   C2620400   2.349  -0.849   6.533  0.4388  0.1028 -0.2309
  168DOPC   H6R20401   2.354  -0.958   6.554 -0.6169  0.3179  1.2647
  168DOPC   H6S20402   2.432  -0.802   6.589  0.5687 -1.3046  0.8026
  168DOPC   C2720403   2.379  -0.830   6.383 -0.2968 -0.2974 -0.7676
  168DOPC   H7R20404   2.490  -0.826   6.377 -0.2020  0.6596  0.8022
  168DOPC   H7S20405   2.350  -0.733   6.336  1.9435  0.0284 -1.5909
  168DOPC   C2820406   2.338  -0.950   6.296  0.3409  0.3844 -0.1477
  168DOPC   H8R20407   2.374  -1.045   6.342 -0.2558  0.3610  0.2866
  168DOPC   H8S20408   2.396  -0.940   6.201 -1.5612 -0.0490 -1.4154
  168DOPC   C2920409   2.192  -0.963   6.265  0.3992  0.3631 -0.5657
  168DOPC   H9R20410   2.123  -0.967   6.351 -0.9701  2.3246 -1.4849
  168DOPC  C21020411   2.133  -0.953   6.148 -0.3723 -0.3306  0.2376
  168DOPC  H10R20412   2.023  -0.964   6.149 -0.4470  0.2806  1.4942
  168DOPC  C21120413   2.198  -0.929   6.016 -0.2123 -0.3009 -0.0769
  168DOPC  H11R20414   2.196  -1.024   5.959 -0.1736 -1.2706  1.4726
  168DOPC  H11S20415   2.306  -0.906   6.029 -0.4545  0.9584 -0.1725
  168DOPC  C21220416   2.137  -0.816   5.931  0.3234 -0.0233 -0.4893
  168DOPC  H12R20417   2.026  -0.819   5.926  0.3273  1.0206 -1.8772
  168DOPC  H12S20418   2.188  -0.836   5.834  1.1071  1.7446 -0.4808
  168DOPC  C21320419   2.174  -0.678   5.986  0.1669 -1.0337 -0.5714
  168DOPC  H13R20420   2.284  -0.658   5.984 -0.1941  1.6442  1.0011
  168DOPC  H13S20421   2.145  -0.659   6.092 -2.9971  0.8108 -1.6542
  168DOPC  C21420422   2.126  -0.562   5.908 -0.4236  0.2818  0.7450
  168DOPC  H14R20423   2.164  -0.472   5.960  2.0603 -0.8395  1.0562
  168DOPC  H14S20424   2.015  -0.561   5.914 -0.4191  1.7734  0.7663
  168DOPC  C21520425   2.179  -0.547   5.762  0.5811 -1.0193  0.3990
  168DOPC  H15R20426   2.132  -0.618   5.691 -0.9436 -0.4390  0.7781
  168DOPC  H15S20427   2.289  -0.562   5.759  0.9257  1.2228 -1.0679
  168DOPC  C21620428   2.150  -0.405   5.709  0.0938  0.2972 -0.1734
  168DOPC  H16R20429   2.184  -0.325   5.777  1.7862  0.1767 -0.8169
  168DOPC  H16S20430   2.041  -0.387   5.708  0.1034  0.3644 -1.3103
  168DOPC  C21720431   2.203  -0.383   5.561  0.4678 -0.7621 -0.1987
  168DOPC  H17R20432   2.147  -0.451   5.494 -2.2989  1.4882 -0.3482
  168DOPC  H17S20433   2.309  -0.414   5.580  0.8096  0.3712 -0.2230
  168DOPC  C21820434   2.192  -0.237   5.503  1.0307  0.8333 -0.0622
  168DOPC  H18R20435   2.260  -0.242   5.415  0.9780 -5.1584 -0.1528
  168DOPC  H18S20436   2.215  -0.154   5.573  0.9834  0.7535  0.0494
  168DOPC  H18T20437   2.088  -0.221   5.468  0.8662 -0.6751 -0.3318
  168DOPC   C3320438   1.438  -0.221   6.441  0.7687  0.3501  0.6033
  168DOPC   H3X20439   1.390  -0.130   6.482 -1.1252 -0.5630  0.4983
  168DOPC   H3Y20440   1.386  -0.303   6.493  0.4510 -0.3812 -0.8126
  168DOPC   C3420441   1.412  -0.222   6.294 -1.2716 -0.3232  0.0747
  168DOPC   H4X20442   1.449  -0.316   6.246  0.0929  1.0452 -1.7404
  168DOPC   H4Y20443   1.473  -0.141   6.247  1.0562 -1.3452  1.1608
  168DOPC   C3520444   1.271  -0.200   6.246  0.2863  0.1079  0.0743
  168DOPC   H5X20445   1.224  -0.122   6.310  0.7690 -0.0325  0.6030
  168DOPC   H5Y20446   1.213  -0.291   6.274  0.7622  0.0229  0.8054
  168DOPC   C3620447   1.252  -0.172   6.098  1.0191  0.1283  1.1546
  168DOPC   H6X20448   1.142  -0.172   6.082  1.0141  1.1446  1.1142
  168DOPC   H6Y20449   1.302  -0.076   6.071  2.1102 -1.0778 -1.4236
  168DOPC   C3720450   1.318  -0.287   6.009 -0.7464 -0.1007  0.2590
  168DOPC   H7X20451   1.417  -0.320   6.046  0.0383  0.4754 -1.2383
  168DOPC   H7Y20452   1.252  -0.375   6.023  1.4035 -2.0102 -1.1414
  168DOPC   C3820453   1.320  -0.257   5.860 -0.6527  0.3556  0.9024
  168DOPC   H8X20454   1.218  -0.226   5.828 -1.8190 -1.6912  2.4101
  168DOPC   H8Y20455   1.343  -0.355   5.812  1.2186  1.2870 -0.2257
  168DOPC   C3920456   1.418  -0.152   5.821  0.1353 -0.6558 -0.2684
  168DOPC   H9X20457   1.366  -0.055   5.816  0.1486 -0.6497 -0.2820
  168DOPC  C31020458   1.550  -0.162   5.805  0.2323 -0.9063  0.5084
  168DOPC  H10X20459   1.610  -0.070   5.799 -0.5122 -0.3790  0.9611
  168DOPC  C31120460   1.643  -0.283   5.809  0.3016  0.0287 -0.3630
  168DOPC  H11X20461   1.664  -0.330   5.710  0.5167 -1.2651  0.2805
  168DOPC  H11Y20462   1.588  -0.367   5.856  1.4745  0.0997  1.2302
  168DOPC  C31220463   1.762  -0.256   5.902 -0.4671 -0.3624 -0.0057
  168DOPC  H12X20464   1.819  -0.349   5.924  0.4466  0.4401  1.0612
  168DOPC  H12Y20465   1.714  -0.215   5.993 -0.3122 -0.6610  0.2122
  168DOPC  C31320466   1.864  -0.151   5.845 -0.0400 -0.7478  0.0876
  168DOPC  H13X20467   1.927  -0.213   5.778  1.4475 -0.2371  0.9588
  168DOPC  H13Y20468   1.813  -0.069   5.790 -1.5554 -1.0873  0.9204
  168DOPC  C31420469   1.961  -0.091   5.952 -0.1215  0.4029  0.2914
  168DOPC  H14X20470   2.031  -0.024   5.897  0.4207 -0.5327 -0.1968
  168DOPC  H14Y20471   1.897  -0.023   6.012  2.1976  1.9839  1.1482
  168DOPC  C31520472   2.050  -0.189   6.029  0.4359  0.0860 -0.1043
  168DOPC  H15X20473   2.135  -0.217   5.963 -0.0588  0.1246 -0.7606
  168DOPC  H15Y20474   1.995  -0.279   6.061  1.0974 -0.1737  0.3447
  168DOPC  C31620475   2.112  -0.108   6.149 -0.1063  0.5732 -0.2822
  168DOPC  H16X20476   2.221  -0.131   6.160 -0.4151 -0.7444  0.1940
  168DOPC  H16Y20477   2.099   0.001   6.132 -1.2026  0.5107  0.1006
  168DOPC  C31720478   2.034  -0.148   6.285 -0.6507  0.2420 -0.3953
  168DOPC  H17X20479   2.044  -0.070   6.364 -1.5781 -0.1668  0.1496
  168DOPC  H17Y20480   1.924  -0.141   6.271 -0.6128  2.9502  0.1497
  168DOPC  C31820481   2.061  -0.288   6.339  0.1344  0.5962 -0.0723
  168DOPC  H18X20482   2.014  -0.301   6.439 -0.7467  3.5255 -0.0356
  168DOPC  H18Y20483   2.016  -0.358   6.265 -1.9456  0.1082  1.5563
  168DOPC  H18Z20484   2.171  -0.304   6.343 -0.0051 -0.5376 -0.2438
  169DOPC     N20485   7.485   1.756   7.298  0.9978  0.0490 -0.6168
  169DOPC   C1220486   7.533   1.767   7.155 -0.9928 -0.5707 -0.4743
  169DOPC  H12A20487   7.640   1.759   7.141 -0.7733  1.2166 -0.0209
  169DOPC  H12B20488   7.525   1.870   7.124  2.5835 -0.6914 -2.3816
  169DOPC   C1320489   7.360   1.825   7.322 -0.1672  0.2128 -0.6528
  169DOPC  H13A20490   7.346   1.803   7.427  2.8505 -0.9716 -0.3810
  169DOPC  H13B20491   7.366   1.932   7.308 -1.5464  0.2238 -1.2975
  169DOPC  H13C20492   7.273   1.785   7.273  0.6012  0.3721 -2.2107
  169DOPC   C1420493   7.593   1.804   7.396  0.6342  0.1514  0.4615
  169DOPC  H14A20494   7.612   1.909   7.381  0.1444  0.3014  0.8770
  169DOPC  H14B20495   7.562   1.789   7.498 -2.0305 -1.8807 -0.5356
  169DOPC  H14C20496   7.676   1.734   7.391 -1.5732 -2.7234  1.3704
  169DOPC   C1520497   7.465   1.613   7.334 -0.2674 -0.2060 -1.0016
  169DOPC  H15A20498   7.416   1.559   7.254  1.2509 -0.8613 -1.5239
  169DOPC  H15B20499   7.404   1.609   7.423  0.0180 -0.8708 -0.8308
  169DOPC  H15C20500   7.560   1.562   7.337 -0.8247 -1.2415  1.9234
  169DOPC   C1120501   7.466   1.673   7.047  0.4270 -0.0768 -0.9089
  169DOPC  H11A20502   7.359   1.703   7.043 -0.2163 -2.2231 -0.8786
  169DOPC  H11B20503   7.502   1.696   6.945 -1.8268  0.0889 -1.7196
  169DOPC     P20504   7.627   1.454   7.054  0.6557  0.2984  0.1437
  169DOPC   O1320505   7.616   1.347   7.155 -0.7461 -0.0622 -0.7232
  169DOPC   O1420506   7.742   1.550   7.062 -0.2195  0.3327  0.1343
  169DOPC   O1220507   7.486   1.533   7.068 -0.1503 -0.5964 -0.3248
  169DOPC   O1120508   7.617   1.402   6.910  0.3271 -0.4803 -0.3289
  169DOPC    C120509   7.504   1.399   6.829  0.1405  0.7339  0.2545
  169DOPC    HA20510   7.534   1.394   6.722  1.3153  0.3327  0.5876
  169DOPC    HB20511   7.438   1.487   6.839  0.3210  0.7331  1.6151
  169DOPC    C220512   7.417   1.275   6.867 -0.4899 -0.3894 -0.2226
  169DOPC    HS20513   7.375   1.296   6.967  0.3342 -0.2521  0.1041
  169DOPC   O2120514   7.504   1.160   6.865 -0.2618 -0.3216 -0.3355
  169DOPC   C2120515   7.468   1.055   6.942  0.0726 -0.1839  0.3874
  169DOPC   O2220516   7.365   1.045   7.002 -0.0954 -0.4911  0.7085
  169DOPC   C2220517   7.575   0.942   6.934 -0.0205 -0.0237 -0.3930
  169DOPC   H2R20518   7.513   0.855   6.906 -1.1820  0.2593  1.1353
  169DOPC   H2S20519   7.616   0.929   7.037  2.0410  1.5123 -0.9753
  169DOPC    C320520   7.296   1.252   6.764 -0.5215  0.2352  0.0688
  169DOPC    HX20521   7.223   1.335   6.779 -0.5607  0.4191 -1.0376
  169DOPC    HY20522   7.249   1.155   6.789  1.5708 -0.5133  1.3003
  169DOPC   O3120523   7.357   1.250   6.631 -0.4667  0.1250  0.1769
  169DOPC   C3120524   7.295   1.169   6.540  0.1279 -0.3238 -0.3731
  169DOPC   O3220525   7.191   1.106   6.561 -0.5671  0.1013  0.0276
  169DOPC   C3220526   7.367   1.181   6.405 -0.0630 -0.2399  0.2229
  169DOPC   H2X20527   7.446   1.259   6.399  0.6775 -1.0600 -3.4766
  169DOPC   H2Y20528   7.400   1.077   6.382 -1.1785 -0.3545 -0.9962
  169DOPC   C2320529   7.698   0.961   6.842 -0.4333 -0.3137 -0.4184
  169DOPC   H3R20530   7.776   0.891   6.879 -1.1218 -1.4270 -1.0323
  169DOPC   H3S20531   7.731   1.065   6.865 -0.0429 -0.9119  2.0427
  169DOPC   C2420532   7.679   0.947   6.693 -0.2556 -0.1763  0.2901
  169DOPC   H4R20533   7.605   1.014   6.645 -0.6277 -0.5525  0.3377
  169DOPC   H4S20534   7.635   0.847   6.675  0.4531 -0.4041 -0.2062
  169DOPC   C2520535   7.811   0.951   6.606  0.4194 -0.4167  0.0422
  169DOPC   H5R20536   7.874   0.867   6.642  1.7367 -0.3804 -2.0377
  169DOPC   H5S20537   7.855   1.048   6.635 -0.3719 -0.0334 -0.0139
  169DOPC   C2620538   7.789   0.939   6.456 -0.0349  0.7363  0.3435
  169DOPC   H6R20539   7.695   0.883   6.437 -1.2321  2.0620  2.0777
  169DOPC   H6S20540   7.871   0.874   6.417 -1.4883 -2.2163  1.8892
  169DOPC   C2720541   7.755   1.068   6.382 -0.9062 -0.4502  0.1140
  169DOPC   H7R20542   7.808   1.158   6.419  2.2878 -2.1722  0.1552
  169DOPC   H7S20543   7.647   1.092   6.388 -0.4686  1.6582  0.2468
  169DOPC   C2820544   7.780   1.061   6.237  0.0465  0.0258  0.8682
  169DOPC   H8R20545   7.748   1.154   6.186 -0.2975 -0.8177 -0.4755
  169DOPC   H8S20546   7.736   0.975   6.183  0.1149  0.3607  0.2698
  169DOPC   C2920547   7.930   1.028   6.199 -0.2293  0.0620 -0.3979
  169DOPC   H9R20548   7.988   0.987   6.283  0.1215  1.3143 -0.0065
  169DOPC  C21020549   7.982   1.028   6.075 -0.0353 -0.0871  0.2052
  169DOPC  H10R20550   8.089   1.004   6.065 -0.1218 -0.9475  1.1839
  169DOPC  C21120551   7.902   1.066   5.953  0.5374  0.1014  0.0968
  169DOPC  H11R20552   7.800   1.024   5.969  0.3251  0.6094  0.0902
  169DOPC  H11S20553   7.933   1.011   5.861  2.4972  1.2429  0.0217
  169DOPC  C21220554   7.881   1.217   5.916  0.0903 -0.9336 -0.0932
  169DOPC  H12R20555   7.815   1.278   5.981 -0.8084 -0.2564 -1.6067
  169DOPC  H12S20556   7.830   1.218   5.817  0.4438 -0.0986 -0.2738
  169DOPC  C21320557   8.018   1.284   5.899 -0.2499  0.2199  0.1196
  169DOPC  H13R20558   8.081   1.193   5.888 -2.1855 -1.2126  0.1444
  169DOPC  H13S20559   8.042   1.347   5.987 -3.2582  0.5248  0.8206
  169DOPC  C21420560   8.031   1.373   5.778  0.4509  0.2084 -0.0104
  169DOPC  H14R20561   7.955   1.453   5.765  0.6065  0.3263 -0.2029
  169DOPC  H14S20562   8.016   1.315   5.685 -1.2067  0.1934  0.2384
  169DOPC  C21520563   8.171   1.429   5.771  0.9784 -0.0157 -0.2213
  169DOPC  H15R20564   8.250   1.352   5.758  1.9941  0.5010  2.3910
  169DOPC  H15S20565   8.196   1.481   5.866  0.0835  0.4734 -0.2378
  169DOPC  C21620566   8.178   1.543   5.666  0.6336  0.2451 -0.1870
  169DOPC  H16R20567   8.111   1.630   5.680  0.5640  0.5928 -2.3208
  169DOPC  H16S20568   8.135   1.497   5.575  2.9109 -2.2308 -0.1284
  169DOPC  C21720569   8.316   1.586   5.632  0.0484  0.1455 -0.4200
  169DOPC  H17R20570   8.371   1.611   5.725 -1.5324 -0.9719  0.8704
  169DOPC  H17S20571   8.324   1.662   5.550 -1.2713  0.2854 -0.4453
  169DOPC  C21820572   8.401   1.465   5.586  0.6635  0.0539  0.4234
  169DOPC  H18R20573   8.496   1.494   5.536  0.0555 -0.0129 -0.8186
  169DOPC  H18S20574   8.342   1.412   5.508  1.0701 -0.4933  0.4830
  169DOPC  H18T20575   8.414   1.388   5.665 -3.5637 -1.7801 -0.3876
  169DOPC   C3320576   7.266   1.214   6.292  0.4453 -0.1306  0.9600
  169DOPC   H3X20577   7.181   1.275   6.331  0.4527  1.2802 -1.0695
  169DOPC   H3Y20578   7.223   1.117   6.258 -1.5962  0.3902  1.9035
  169DOPC   C3420579   7.325   1.290   6.172  0.0554  0.9013 -0.2394
  169DOPC   H4X20580   7.343   1.391   6.214 -0.7778  1.6900 -1.6841
  169DOPC   H4Y20581   7.241   1.301   6.100 -0.3057  2.2975  0.3503
  169DOPC   C3520582   7.454   1.233   6.108 -0.1165 -0.0151 -0.4381
  169DOPC   H5X20583   7.428   1.137   6.058 -0.2185 -0.8370  1.1309
  169DOPC   H5Y20584   7.529   1.222   6.189  1.4594  0.5226 -1.7699
  169DOPC   C3620585   7.512   1.330   5.994  0.7300  0.7221  0.6311
  169DOPC   H6X20586   7.552   1.426   6.032  0.3538  0.7176  1.0493
  169DOPC   H6Y20587   7.591   1.267   5.946 -0.3523  0.8518 -1.4479
  169DOPC   C3720588   7.416   1.377   5.891  0.5084  0.2649  0.3378
  169DOPC   H7X20589   7.366   1.290   5.843  1.9791 -0.4650  0.0542
  169DOPC   H7Y20590   7.334   1.430   5.943  1.4958  0.4936  1.7240
  169DOPC   C3820591   7.482   1.465   5.790  0.0461 -0.3332 -0.5046
  169DOPC   H8X20592   7.535   1.552   5.835 -1.4339 -0.0809  0.8440
  169DOPC   H8Y20593   7.405   1.518   5.731  0.8575 -1.1514 -2.3836
  169DOPC   C3920594   7.575   1.395   5.695 -0.2780  0.1350 -0.4754
  169DOPC   H9X20595   7.678   1.383   5.732 -0.9651 -0.6409  1.3062
  169DOPC  C31020596   7.535   1.367   5.567 -0.1721  0.3426  0.3861
  169DOPC  H10X20597   7.599   1.303   5.504 -0.2572  1.1794 -0.5784
  169DOPC  C31120598   7.403   1.398   5.497  0.6145 -0.2015  0.4802
  169DOPC  H11X20599   7.406   1.488   5.433  2.7177 -0.2070  0.4983
  169DOPC  H11Y20600   7.323   1.414   5.573  1.1784  1.3322  0.8006
  169DOPC  C31220601   7.378   1.289   5.394  0.1173  1.1117 -0.2098
  169DOPC  H12X20602   7.456   1.296   5.315  2.1489  1.0172  1.6845
  169DOPC  H12Y20603   7.283   1.317   5.343 -0.4431  2.7404  1.5553
  169DOPC  C31320604   7.375   1.139   5.446 -0.1597 -0.0817 -0.2214
  169DOPC  H13X20605   7.459   1.119   5.515 -1.0886 -2.8518  0.2399
  169DOPC  H13Y20606   7.282   1.103   5.494 -1.2551 -0.5773 -2.5423
  169DOPC  C31420607   7.382   1.049   5.324 -0.8902  0.6208  0.3352
  169DOPC  H14X20608   7.278   1.050   5.284 -0.6678 -4.0539 -0.8789
  169DOPC  H14Y20609   7.456   1.084   5.248  0.5268 -0.0189  1.3892
  169DOPC  C31520610   7.427   0.908   5.356  0.5919  0.3859 -0.2799
  169DOPC  H15X20611   7.537   0.897   5.374  0.4116 -1.7016 -0.1146
  169DOPC  H15Y20612   7.409   0.856   5.260 -0.6642 -0.4524  0.3764
  169DOPC  C31620613   7.343   0.837   5.472 -0.1388 -0.1135  0.7223
  169DOPC  H16X20614   7.359   0.870   5.577  1.6658  1.3903  0.0538
  169DOPC  H16Y20615   7.235   0.855   5.456 -0.2001 -0.8418  0.2586
  169DOPC  C31720616   7.359   0.683   5.461 -0.1593 -0.1920 -0.1345
  169DOPC  H17X20617   7.342   0.667   5.352  0.2630  0.7530 -0.3543
  169DOPC  H17Y20618   7.461   0.650   5.487 -1.0369 -1.7512  1.5373
  169DOPC  C31820619   7.261   0.608   5.545 -0.6231 -0.0399 -0.5684
  169DOPC  H18X20620   7.152   0.617   5.526 -1.2951  1.1408  3.0210
  169DOPC  H18Y20621   7.284   0.501   5.521  3.2801  0.6844 -0.8187
  169DOPC  H18Z20622   7.283   0.614   5.654  2.0625 -0.2275 -1.0249
  170DOPC     N20623   6.688   6.562   7.514  0.2267  0.0737  0.0198
  170DOPC   C1220624   6.646   6.508   7.378 -0.1034 -0.1879  0.2899
  170DOPC  H12A20625   6.539   6.511   7.367  0.1398  1.6208 -2.8007
  170DOPC  H12B20626   6.659   6.401   7.372  1.3014 -0.2428  3.0375
  170DOPC   C1320627   6.838   6.562   7.522 -0.7214 -0.0675 -0.1236
  170DOPC  H13A20628   6.888   6.467   7.510  2.0765  1.1540  0.8789
  170DOPC  H13B20629   6.881   6.626   7.447  0.4635  0.5603  1.0495
  170DOPC  H13C20630   6.861   6.602   7.620 -1.7993  0.2882 -0.0012
  170DOPC   C1420631   6.627   6.476   7.622  0.1398  0.1135 -0.5802
  170DOPC  H14A20632   6.636   6.526   7.717 -2.6718 -0.2198 -0.0574
  170DOPC  H14B20633   6.521   6.470   7.607  0.1579 -0.0474 -0.6467
  170DOPC  H14C20634   6.662   6.374   7.621 -0.9997 -0.2969  0.3858
  170DOPC   C1520635   6.643   6.706   7.538  1.0030 -0.3538 -0.4698
  170DOPC  H15A20636   6.683   6.768   7.459  1.0429 -0.9334 -0.9102
  170DOPC  H15B20637   6.667   6.733   7.640 -0.3515 -2.0226  0.3435
  170DOPC  H15C20638   6.538   6.719   7.519  1.1684 -1.0122 -1.9645
  170DOPC   C1120639   6.714   6.565   7.242  0.3086 -0.4228 -0.2600
  170DOPC  H11A20640   6.822   6.540   7.245 -0.0204 -1.8615  0.6752
  170DOPC  H11B20641   6.672   6.504   7.158  0.6388 -0.6300 -0.2752
  170DOPC     P20642   6.743   6.782   7.123 -0.6597 -0.1047 -0.2147
  170DOPC   O1320643   6.695   6.923   7.115  0.4299 -0.1179 -0.4080
  170DOPC   O1420644   6.708   6.703   7.000  0.1900  0.3637  0.2230
  170DOPC   O1220645   6.684   6.711   7.245  0.1685  0.0119 -0.2854
  170DOPC   O1120646   6.902   6.795   7.137  0.1626  0.9424  0.1224
  170DOPC    C120647   6.963   6.908   7.176 -0.0415  0.0741  0.3538
  170DOPC    HA20648   7.062   6.881   7.217  0.2582 -0.0002 -0.4060
  170DOPC    HB20649   6.902   6.953   7.257 -0.5387 -0.0055  0.0339
  170DOPC    C220650   6.985   7.004   7.056  0.2883  0.5761  0.4522
  170DOPC    HS20651   6.883   7.035   7.024  0.0319 -0.9224 -0.2796
  170DOPC   O2120652   7.051   6.932   6.949 -0.2443  0.5614  0.0664
  170DOPC   C2120653   6.996   6.930   6.828  0.5310  0.7843  0.8828
  170DOPC   O2220654   6.887   6.981   6.804 -0.1433  0.0718  0.0533
  170DOPC   C2220655   7.082   6.857   6.729  0.7579  0.4045  0.0778
  170DOPC   H2R20656   7.080   6.753   6.767 -1.0083  0.1536 -0.6530
  170DOPC   H2S20657   7.187   6.895   6.729  1.8270 -2.3649 -0.5652
  170DOPC    C320658   7.059   7.136   7.091 -0.7669 -0.7819  0.1615
  170DOPC    HX20659   7.150   7.104   7.146 -0.4077  2.0541  1.3726
  170DOPC    HY20660   7.008   7.204   7.162 -0.2209  0.5172 -0.6580
  170DOPC   O3120661   7.104   7.214   6.978  0.6384 -0.7954 -0.1555
  170DOPC   C3120662   7.005   7.281   6.908  0.1629 -0.2998 -0.5103
  170DOPC   O3220663   6.888   7.286   6.948  0.6921  0.6451  0.6561
  170DOPC   C3220664   7.060   7.333   6.782  0.0698  0.6569 -0.8977
  170DOPC   H2X20665   7.000   7.420   6.750 -0.1367  0.5820 -0.7153
  170DOPC   H2Y20666   7.162   7.374   6.801 -0.6440  1.8403  0.5513
  170DOPC   C2320667   7.018   6.847   6.584 -0.2421 -0.2499 -0.7673
  170DOPC   H3R20668   6.973   6.942   6.549 -1.4294 -0.8571 -0.9168
  170DOPC   H3S20669   6.928   6.785   6.604  0.0838 -0.5278 -0.1173
  170DOPC   C2420670   7.112   6.802   6.478 -0.2245  0.2952 -0.2838
  170DOPC   H4R20671   7.153   6.703   6.507 -2.8066 -1.1693 -1.3465
  170DOPC   H4S20672   7.200   6.869   6.460 -0.1765 -0.0740 -1.5105
  170DOPC   C2520673   7.053   6.788   6.334 -0.1391  0.0527  0.2952
  170DOPC   H5R20674   6.996   6.879   6.304 -0.3199  0.4035  1.6368
  170DOPC   H5S20675   6.984   6.700   6.341 -0.7369  0.3900 -1.0109
  170DOPC   C2620676   7.156   6.769   6.223  0.0225  0.1305 -0.6632
  170DOPC   H6R20677   7.197   6.666   6.210  0.6766  0.4469 -1.1276
  170DOPC   H6S20678   7.249   6.823   6.251  1.0689 -2.1711  0.6427
  170DOPC   C2720679   7.094   6.813   6.081  0.4134 -0.0939 -0.8546
  170DOPC   H7R20680   7.067   6.919   6.097 -1.0076 -0.3837 -1.2232
  170DOPC   H7S20681   7.003   6.752   6.063  0.0137  0.0207  0.6303
  170DOPC   C2820682   7.188   6.796   5.966  0.1909  0.0516 -0.1929
  170DOPC   H8R20683   7.279   6.857   5.982 -0.0582  0.0696  1.3118
  170DOPC   H8S20684   7.140   6.827   5.871  0.8932 -1.2788 -1.0036
  170DOPC   C2920685   7.235   6.657   5.948  0.1741 -0.4007  0.3820
  170DOPC   H9R20686   7.310   6.627   6.023 -0.1594 -0.7130  0.5934
  170DOPC  C21020687   7.199   6.567   5.852 -0.1478 -0.6065 -0.2536
  170DOPC  H10R20688   7.241   6.466   5.839 -0.0267 -0.4019 -1.5850
  170DOPC  C21120689   7.096   6.597   5.744  0.1911  0.0776 -0.3723
  170DOPC  H11R20690   7.097   6.706   5.720  1.9556  0.4261  1.1112
  170DOPC  H11S20691   6.992   6.558   5.753 -0.2941  0.1257 -4.0089
  170DOPC  C21220692   7.160   6.557   5.604  0.4955  0.2918  0.7150
  170DOPC  H12R20693   7.191   6.450   5.608 -1.3989 -0.3636 -0.5754
  170DOPC  H12S20694   7.248   6.619   5.576  1.1511 -1.8450 -2.5617
  170DOPC  C21320695   7.072   6.562   5.484  1.2171  0.7519 -0.1442
  170DOPC  H13R20696   7.028   6.664   5.477  0.6047  0.4541 -0.7523
  170DOPC  H13S20697   6.995   6.483   5.496  1.3710  0.5817 -0.2746
  170DOPC  C21420698   7.154   6.520   5.363  0.2192  0.1729 -0.2229
  170DOPC  H14R20699   7.214   6.435   5.400  0.8024  0.9616  0.7005
  170DOPC  H14S20700   7.226   6.602   5.343  0.2833  0.0477 -0.5172
  170DOPC  C21520701   7.070   6.493   5.244  0.0669  0.2326 -0.2804
  170DOPC  H15R20702   7.008   6.401   5.260  0.4058  0.2246  1.1702
  170DOPC  H15S20703   7.131   6.459   5.158 -2.1420 -2.6399 -0.8906
  170DOPC  C21620704   6.975   6.614   5.210  0.0491 -0.4808 -0.0759
  170DOPC  H16R20705   7.028   6.710   5.194  0.0897 -0.2311  1.4198
  170DOPC  H16S20706   6.896   6.633   5.286 -1.0889  2.1815 -1.7586
  170DOPC  C21720707   6.898   6.577   5.079 -0.1446 -0.5608  0.6360
  170DOPC  H17R20708   6.844   6.481   5.089  1.3218 -1.4669  0.0631
  170DOPC  H17S20709   6.975   6.565   5.000 -0.4401 -2.1990  0.5625
  170DOPC  C21820710   6.807   6.683   5.029 -0.4001 -0.1504 -0.7515
  170DOPC  H18R20711   6.751   6.725   5.115 -1.7343 -1.2840 -1.0343
  170DOPC  H18S20712   6.726   6.633   4.971 -1.0892 -1.1280  0.9771
  170DOPC  H18T20713   6.861   6.764   4.975 -0.5376  0.7365  0.4066
  170DOPC   C3320714   7.060   7.221   6.669  0.1450 -0.5628 -0.7376
  170DOPC   H3X20715   6.960   7.173   6.673 -2.0670  3.6433  0.0990
  170DOPC   H3Y20716   7.131   7.140   6.695 -0.6054 -0.7722  0.7938
  170DOPC   C3420717   7.088   7.279   6.531  0.1317 -0.6704  0.1757
  170DOPC   H4X20718   7.190   7.318   6.513  0.5780 -2.3101 -1.1327
  170DOPC   H4Y20719   7.012   7.357   6.506  0.4102 -1.0146 -1.9191
  170DOPC   C3520720   7.053   7.174   6.423 -0.9481  0.4532 -0.2576
  170DOPC   H5X20721   6.952   7.136   6.449 -0.0680 -1.0214  1.1922
  170DOPC   H5Y20722   7.116   7.084   6.439  1.0085  1.5236 -1.5149
  170DOPC   C3620723   7.056   7.211   6.278  1.0636 -0.5322  0.0660
  170DOPC   H6X20724   7.015   7.130   6.215  3.1651 -0.9250 -0.8912
  170DOPC   H6Y20725   6.983   7.293   6.262  1.4029 -0.1862  0.2781
  170DOPC   C3720726   7.195   7.238   6.216 -0.3398 -0.2863 -0.0784
  170DOPC   H7X20727   7.235   7.336   6.251 -0.6074 -0.1784 -0.0741
  170DOPC   H7Y20728   7.261   7.166   6.270 -0.5141 -0.3682  0.0247
  170DOPC   C3820729   7.209   7.230   6.063  0.0950 -0.4124 -0.1601
  170DOPC   H8X20730   7.142   7.307   6.021  1.0067 -0.3663 -1.5946
  170DOPC   H8Y20731   7.168   7.134   6.025  1.9070 -0.9592 -0.8309
  170DOPC   C3920732   7.348   7.245   6.016 -0.1970 -0.0863  0.1717
  170DOPC   H9X20733   7.426   7.240   6.094  1.0709  3.2789 -0.7126
  170DOPC  C31020734   7.380   7.266   5.888 -0.4855 -0.0049 -0.6220
  170DOPC  H10X20735   7.489   7.272   5.876 -0.4913 -0.6749 -1.0201
  170DOPC  C31120736   7.286   7.289   5.770 -0.3001  0.9654 -0.6671
  170DOPC  H11X20737   7.288   7.396   5.742  0.5917  1.4111  0.9676
  170DOPC  H11Y20738   7.181   7.274   5.803 -0.1144  1.2196  0.0685
  170DOPC  C31220739   7.293   7.192   5.647  0.2072  0.2528  0.1380
  170DOPC  H12X20740   7.282   7.083   5.666 -2.2727  0.5276  0.6036
  170DOPC  H12Y20741   7.387   7.213   5.592  0.5860  0.3864  0.8313
  170DOPC  C31320742   7.187   7.212   5.541  0.2243 -0.0437  0.2487
  170DOPC  H13X20743   7.089   7.193   5.590  0.2739 -2.8584 -0.5618
  170DOPC  H13Y20744   7.193   7.313   5.495 -0.1499 -0.4415 -0.6992
  170DOPC  C31420745   7.188   7.114   5.425 -0.4023 -0.4400 -0.9836
  170DOPC  H14X20746   7.281   7.123   5.365  1.7691 -0.8813  2.0724
  170DOPC  H14Y20747   7.185   7.010   5.464 -2.5958 -0.3467 -0.8063
  170DOPC  C31520748   7.088   7.136   5.308 -0.0558 -0.1824  0.1548
  170DOPC  H15X20749   6.980   7.124   5.332  0.2659 -3.1326  0.4346
  170DOPC  H15Y20750   7.103   7.072   5.219  2.5234  3.4189 -2.3090
  170DOPC  C31620751   7.086   7.283   5.244  1.4023 -0.5399 -0.3931
  170DOPC  H16X20752   7.055   7.353   5.324 -0.0616 -1.8352  0.2061
  170DOPC  H16Y20753   7.190   7.311   5.218  2.1153 -2.8085 -0.2079
  170DOPC  C31720754   6.991   7.299   5.129  0.7269 -0.0599  0.5243
  170DOPC  H17X20755   7.012   7.399   5.085 -1.8626  0.7403  0.9507
  170DOPC  H17Y20756   7.031   7.227   5.054  0.0083  0.9502 -0.8704
  170DOPC  C31820757   6.838   7.270   5.130 -0.3871 -0.1591  0.0318
  170DOPC  H18X20758   6.796   7.275   5.028  1.4581  1.4980 -0.7163
  170DOPC  H18Y20759   6.822   7.166   5.166  0.7075 -0.9815 -1.7028
  170DOPC  H18Z20760   6.780   7.342   5.191  0.3529  0.1520  0.3862
  171DOPC     N20761   4.004   2.534   2.688  0.1490  0.3255  0.2970
  171DOPC   C1220762   3.987   2.529   2.835 -0.0578 -0.3983  0.2054
  171DOPC  H12A20763   4.023   2.432   2.867  0.7042 -0.2421 -0.1400
  171DOPC  H12B20764   3.885   2.528   2.869  0.5603  1.0369  2.3359
  171DOPC   C1320765   4.152   2.538   2.641  0.2898  0.0059  0.2657
  171DOPC  H13A20766   4.191   2.438   2.652  0.1133 -0.1271 -0.2896
  171DOPC  H13B20767   4.162   2.574   2.540  0.0062  0.1606  0.2902
  171DOPC  H13C20768   4.204   2.610   2.703 -0.6517  0.1468  0.9143
  171DOPC   C1420769   3.941   2.657   2.631  0.3273  0.0849 -0.1253
  171DOPC  H14A20770   3.837   2.653   2.659  0.4855  1.6882  0.8277
  171DOPC  H14B20771   3.963   2.747   2.688 -1.1866 -0.1548  0.8948
  171DOPC  H14C20772   3.967   2.667   2.527 -1.9995  0.1522 -0.7604
  171DOPC   C1520773   3.945   2.421   2.615 -0.4979  0.1079  0.5349
  171DOPC  H15A20774   4.003   2.330   2.614 -1.7013 -0.6853 -0.0774
  171DOPC  H15B20775   3.917   2.440   2.512 -0.0792  0.8888  0.5620
  171DOPC  H15C20776   3.846   2.388   2.642  0.3038 -3.1690 -0.0127
  171DOPC   C1120777   4.069   2.633   2.921 -0.2469 -0.3883  0.2656
  171DOPC  H11A20778   4.082   2.599   3.026  1.4538 -2.7024 -0.6190
  171DOPC  H11B20779   4.172   2.652   2.885 -1.1249 -0.1646 -2.3541
  171DOPC     P20780   3.857   2.779   2.981  0.0016  0.2311 -0.1729
  171DOPC   O1320781   3.752   2.705   2.900 -0.8436 -0.0008  0.3814
  171DOPC   O1420782   3.847   2.927   3.000  0.1042 -0.0731 -0.1481
  171DOPC   O1220783   3.999   2.754   2.921  0.2392  0.8801 -0.0490
  171DOPC   O1120784   3.862   2.716   3.127 -0.2866 -0.1373 -0.1135
  171DOPC    C120785   3.908   2.800   3.237 -0.1825  0.5533 -0.1482
  171DOPC    HA20786   3.822   2.814   3.307 -0.6163 -1.2842 -0.2699
  171DOPC    HB20787   3.946   2.898   3.202  1.8124 -1.5513 -4.6205
  171DOPC    C220788   4.018   2.726   3.328  0.2806 -0.1037 -0.3851
  171DOPC    HS20789   4.104   2.699   3.262  0.7082 -0.1171  0.1683
  171DOPC   O2120790   3.954   2.604   3.360 -0.2919  0.1003  1.0734
  171DOPC   C2120791   4.030   2.514   3.415  0.5482 -0.0377 -0.4403
  171DOPC   O2220792   4.147   2.525   3.444  0.2585 -0.3613  0.1237
  171DOPC   C2220793   3.952   2.387   3.459 -0.7640 -0.3631  0.1074
  171DOPC   H2R20794   3.990   2.302   3.398 -1.0706  0.6189 -1.5278
  171DOPC   H2S20795   3.844   2.410   3.445 -0.7539  0.7418  1.5509
  171DOPC    C320796   4.064   2.808   3.451 -0.0367  0.3436 -0.5022
  171DOPC    HX20797   4.134   2.888   3.416  1.5323 -0.1458  1.3660
  171DOPC    HY20798   4.126   2.743   3.516  1.0329  0.0468 -1.7698
  171DOPC   O3120799   3.948   2.848   3.526  0.1608 -0.5774 -0.9243
  171DOPC   C3120800   3.919   2.977   3.516 -0.9554 -0.3709 -0.3671
  171DOPC   O3220801   3.975   3.058   3.441 -0.3942  0.6408 -0.0448
  171DOPC   C3220802   3.799   3.010   3.603 -0.1617  0.2052  0.2690
  171DOPC   H2X20803   3.703   2.983   3.555  0.3757  1.7679 -1.8493
  171DOPC   H2Y20804   3.826   2.960   3.699  1.7163  0.2227 -0.2005
  171DOPC   C2320805   3.986   2.349   3.614  0.3048 -0.2756 -0.4176
  171DOPC   H3R20806   4.096   2.330   3.611  0.4266  0.2017  0.4359
  171DOPC   H3S20807   3.927   2.260   3.644  0.6813 -0.3419  0.1427
  171DOPC   C2420808   3.964   2.462   3.717 -0.0894  0.5010  0.2575
  171DOPC   H4R20809   3.856   2.485   3.731 -0.1946 -0.2585  0.7577
  171DOPC   H4S20810   4.018   2.554   3.685 -2.1796  1.3755 -0.9355
  171DOPC   C2520811   4.015   2.436   3.856 -0.2867  0.1475  0.2362
  171DOPC   H5R20812   4.005   2.534   3.907 -1.3157  1.8542 -2.9706
  171DOPC   H5S20813   4.125   2.424   3.839 -0.9533 -2.1275 -3.5622
  171DOPC   C2620814   3.961   2.313   3.934  0.6192  0.6183 -0.3935
  171DOPC   H6R20815   3.999   2.227   3.875 -0.8825 -0.1225 -0.3250
  171DOPC   H6S20816   3.850   2.324   3.934  0.4691 -0.5636 -1.8291
  171DOPC   C2720817   4.014   2.303   4.074 -0.9853 -0.7136 -0.6659
  171DOPC   H7R20818   3.938   2.258   4.141 -1.4533 -0.3479 -0.9450
  171DOPC   H7S20819   4.022   2.407   4.111  0.9933 -1.1407  0.2525
  171DOPC   C2820820   4.142   2.219   4.107 -0.4461 -0.4983  0.1299
  171DOPC   H8R20821   4.132   2.120   4.057 -0.5967  0.5438 -2.0351
  171DOPC   H8S20822   4.150   2.204   4.216 -1.2798 -0.9321  0.1413
  171DOPC   C2920823   4.264   2.273   4.039 -0.0970 -0.5281 -0.3991
  171DOPC   H9R20824   4.297   2.214   3.953  0.3141 -0.0170 -0.6055
  171DOPC  C21020825   4.337   2.381   4.080  0.1380 -0.2796  0.3701
  171DOPC  H10R20826   4.415   2.425   4.015  0.0498 -0.0557  0.4147
  171DOPC  C21120827   4.311   2.470   4.203 -0.1487  0.6640 -0.4713
  171DOPC  H11R20828   4.218   2.443   4.258  0.3606  1.5908  0.8953
  171DOPC  H11S20829   4.306   2.573   4.163  0.4589  0.3993 -1.2533
  171DOPC  C21220830   4.425   2.468   4.305 -0.2479  0.4157  0.3640
  171DOPC  H12R20831   4.515   2.463   4.239 -2.8820  0.1051 -3.5985
  171DOPC  H12S20832   4.427   2.382   4.375 -3.7378  1.1416  1.5754
  171DOPC  C21320833   4.442   2.597   4.390  0.3225  0.2889  0.1793
  171DOPC  H13R20834   4.461   2.680   4.319  1.4331 -1.7936 -2.1095
  171DOPC  H13S20835   4.532   2.584   4.455  1.3393 -0.8281 -1.3821
  171DOPC  C21420836   4.319   2.639   4.470  0.0936  0.5143  0.0645
  171DOPC  H14R20837   4.312   2.567   4.555 -0.1045  1.3543  0.7767
  171DOPC  H14S20838   4.229   2.632   4.406 -1.7437 -2.6377  2.7029
  171DOPC  C21520839   4.315   2.779   4.534 -0.2690 -0.7832 -0.5052
  171DOPC  H15R20840   4.413   2.785   4.585 -0.1924  0.2643 -0.7464
  171DOPC  H15S20841   4.237   2.788   4.613 -0.1900  0.5915 -0.5672
  171DOPC  C21620842   4.277   2.888   4.435 -0.0634 -1.1363 -0.0058
  171DOPC  H16R20843   4.187   2.850   4.383 -1.7466  0.4936  1.5756
  171DOPC  H16S20844   4.360   2.892   4.361  0.2366  1.2318  0.3705
  171DOPC  C21720845   4.255   3.035   4.488  0.8184 -0.5566 -0.2793
  171DOPC  H17R20846   4.235   3.092   4.395 -0.1597 -0.4839 -0.0297
  171DOPC  H17S20847   4.347   3.075   4.536  0.6586  0.9075 -1.1365
  171DOPC  C21820848   4.134   3.032   4.583  0.3297 -0.5552  0.0404
  171DOPC  H18R20849   4.056   2.980   4.524  1.3448 -1.7708 -0.2763
  171DOPC  H18S20850   4.097   3.136   4.601  1.1285 -0.1069 -0.8566
  171DOPC  H18T20851   4.167   2.980   4.676 -1.7630 -2.2064 -0.0694
  171DOPC   C3320852   3.794   3.162   3.634 -0.1829  0.1306 -0.0327
  171DOPC   H3X20853   3.789   3.226   3.543 -0.5605  0.8026  0.4499
  171DOPC   H3Y20854   3.886   3.196   3.685 -0.5626 -0.4145  1.0450
  171DOPC   C3420855   3.681   3.212   3.721 -0.2734 -0.3953 -0.7288
  171DOPC   H4X20856   3.589   3.221   3.659 -0.3893 -0.1830 -0.5259
  171DOPC   H4Y20857   3.708   3.313   3.758  0.3363  0.3402 -3.0264
  171DOPC   C3520858   3.661   3.129   3.847  0.2944  0.5034  0.8912
  171DOPC   H5X20859   3.760   3.105   3.890  0.4874  1.4037  0.9678
  171DOPC   H5Y20860   3.600   3.036   3.839 -0.9319  1.3927 -0.6932
  171DOPC   C3620861   3.588   3.204   3.959  0.0947  0.7378  0.3357
  171DOPC   H6X20862   3.644   3.292   3.997  0.2049 -0.1512  2.3521
  171DOPC   H6Y20863   3.484   3.227   3.927  0.1471  0.0970 -0.3373
  171DOPC   C3720864   3.580   3.111   4.093 -0.2068 -0.2825  1.2346
  171DOPC   H7X20865   3.523   3.021   4.064  0.9878 -0.5024 -0.5603
  171DOPC   H7Y20866   3.683   3.080   4.120  0.3123 -0.3166 -0.6338
  171DOPC   C3820867   3.517   3.182   4.212 -0.0562  0.4803 -0.4104
  171DOPC   H8X20868   3.409   3.186   4.187  0.2447  0.3079 -1.8218
  171DOPC   H8Y20869   3.551   3.288   4.213 -0.3869  0.7166  3.8404
  171DOPC   C3920870   3.539   3.107   4.340  0.3523  0.1295  0.4263
  171DOPC   H9X20871   3.506   3.004   4.322  0.2821  0.3867 -1.0672
  171DOPC  C31020872   3.600   3.139   4.455  0.1140 -0.0068 -0.6511
  171DOPC  H10X20873   3.583   3.067   4.537 -2.9692 -0.2504 -1.3758
  171DOPC  C31120874   3.664   3.264   4.482  0.0746 -0.1008 -0.1624
  171DOPC  H11X20875   3.599   3.327   4.546  0.9758 -0.4574  1.1577
  171DOPC  H11Y20876   3.676   3.325   4.390 -3.0906  0.1535 -0.5069
  171DOPC  C31220877   3.794   3.247   4.563  0.0384 -0.4000  0.1995
  171DOPC  H12X20878   3.865   3.183   4.506  1.6464  0.0588  1.6058
  171DOPC  H12Y20879   3.768   3.206   4.663  1.7566 -1.2836  0.3302
  171DOPC  C31320880   3.865   3.383   4.587  0.4712  0.0985  0.2443
  171DOPC  H13X20881   3.940   3.399   4.507  0.5612  0.9970  0.4954
  171DOPC  H13Y20882   3.796   3.470   4.586 -0.3584 -0.5207 -1.8407
  171DOPC  C31420883   3.931   3.391   4.728  0.4797  0.0517 -0.1717
  171DOPC  H14X20884   3.872   3.327   4.797  1.3924  2.7685  3.4571
  171DOPC  H14Y20885   4.035   3.352   4.721  1.2271  1.6050  1.2857
  171DOPC  C31520886   3.934   3.531   4.784 -0.0400  1.2826 -0.0313
  171DOPC  H15X20887   3.835   3.581   4.777 -0.9598 -0.3216  0.9189
  171DOPC  H15Y20888   4.009   3.591   4.727  1.4288  1.1172  1.6640
  171DOPC  C31620889   4.003   3.531   4.923 -0.1819  0.7355  0.4598
  171DOPC  H16X20890   3.946   3.471   4.997 -0.5688  0.8344  0.2453
  171DOPC  H16Y20891   4.103   3.485   4.908 -0.8129 -0.2148 -1.0645
  171DOPC  C31720892   4.026   3.666   4.982  0.4151 -0.6738  0.1305
  171DOPC  H17X20893   3.940   3.731   4.957  1.7173  0.9049 -0.3914
  171DOPC  H17Y20894   4.043   3.657   5.091 -0.6989  0.4075  0.4206
  171DOPC  C31820895   4.157   3.726   4.927 -0.3429  0.2289 -0.4208
  171DOPC  H18X20896   4.244   3.681   4.980 -0.6556 -0.5087 -0.5134
  171DOPC  H18Y20897   4.168   3.717   4.817  0.4254 -0.4134 -0.2982
  171DOPC  H18Z20898   4.148   3.833   4.956 -1.6133 -0.1549  0.7096
  172DOPC     N20899   2.669   5.193   2.926  0.5901  0.6878  0.4426
  172DOPC   C1220900   2.611   5.196   3.066 -0.6837  0.2644 -0.2184
  172DOPC  H12A20901   2.555   5.289   3.069  0.5654  1.0477 -0.3416
  172DOPC  H12B20902   2.689   5.220   3.136  1.5416 -0.8697 -2.1355
  172DOPC   C1320903   2.687   5.333   2.879  0.3464  0.4968  0.0662
  172DOPC  H13A20904   2.752   5.330   2.793 -1.1547 -1.5886 -1.0728
  172DOPC  H13B20905   2.592   5.385   2.871 -0.5662 -1.2196 -1.0786
  172DOPC  H13C20906   2.738   5.386   2.958  0.0608 -1.8947  1.9790
  172DOPC   C1420907   2.571   5.115   2.839 -0.2303 -0.0225 -0.8402
  172DOPC  H14A20908   2.475   5.165   2.845 -0.2591 -0.2283  1.3022
  172DOPC  H14B20909   2.603   5.106   2.736  1.2060 -0.2769 -0.3841
  172DOPC  H14C20910   2.559   5.023   2.894  2.4242  1.4271  2.5318
  172DOPC   C1520911   2.792   5.115   2.924 -0.4379  0.2046 -0.6226
  172DOPC  H15A20912   2.879   5.171   2.955  0.5834 -0.6598 -1.8101
  172DOPC  H15B20913   2.819   5.089   2.822  1.0048 -0.6421 -0.0552
  172DOPC  H15C20914   2.782   5.025   2.983 -0.0719  0.6803  0.1831
  172DOPC   C1120915   2.537   5.080   3.117 -0.3394  0.2195  0.9000
  172DOPC  H11A20916   2.514   5.112   3.221  1.7762  3.0956  0.5977
  172DOPC  H11B20917   2.437   5.068   3.068 -0.0205 -1.2845  0.5495
  172DOPC     P20918   2.557   4.825   3.108  0.0894 -0.4273  0.2641
  172DOPC   O1320919   2.510   4.809   2.971 -0.6132 -0.9727  0.1384
  172DOPC   O1420920   2.449   4.817   3.214  0.2062 -0.0888  0.9601
  172DOPC   O1220921   2.620   4.966   3.110 -0.5828  0.0626 -0.7803
  172DOPC   O1120922   2.675   4.725   3.138  0.0917  0.0625 -0.0375
  172DOPC    C120923   2.798   4.763   3.176  0.2406 -0.2218  0.3838
  172DOPC    HA20924   2.790   4.785   3.285 -1.0116  0.8798  0.0979
  172DOPC    HB20925   2.827   4.856   3.123 -0.8268  0.8244  1.5418
  172DOPC    C220926   2.905   4.645   3.157 -0.4008  0.1000  0.5181
  172DOPC    HS20927   2.903   4.610   3.051  3.3332 -0.2796  0.4593
  172DOPC   O2120928   2.865   4.542   3.247  0.1746  0.9666  0.1225
  172DOPC   C2120929   2.937   4.431   3.214  0.2102  0.4332  0.9052
  172DOPC   O2220930   3.010   4.418   3.121  0.2052 -0.0700  0.0235
  172DOPC   C2220931   2.916   4.321   3.320  0.3248 -0.3123 -0.3345
  172DOPC   H2R20932   2.967   4.231   3.281  0.3541  0.2939 -1.7719
  172DOPC   H2S20933   2.808   4.295   3.318  0.4557 -1.1405  1.5529
  172DOPC    C320934   3.045   4.697   3.185 -0.0655 -0.0530  0.3310
  172DOPC    HX20935   3.064   4.758   3.093  0.7649  0.2283  0.6828
  172DOPC    HY20936   3.108   4.606   3.182 -2.2211 -1.6234 -1.5598
  172DOPC   O3120937   3.050   4.781   3.305 -0.1875  0.0134  0.1187
  172DOPC   C3120938   3.122   4.731   3.407 -0.3799  0.4672 -0.7270
  172DOPC   O3220939   3.199   4.636   3.406 -0.4886  0.1424  0.0669
  172DOPC   C3220940   3.099   4.815   3.533 -0.0493  0.1321 -1.0091
  172DOPC   H2X20941   3.171   4.900   3.537 -3.3981  3.1987  0.8745
  172DOPC   H2Y20942   3.000   4.865   3.541 -0.4050 -0.2766 -2.6327
  172DOPC   C2320943   2.969   4.354   3.459 -0.3816  0.2181  0.0726
  172DOPC   H3R20944   2.929   4.445   3.508  1.9050  1.0772  0.4490
  172DOPC   H3S20945   3.078   4.374   3.453 -0.5298  0.6518 -1.4405
  172DOPC   C2420946   2.947   4.237   3.562  0.2654 -0.5434  0.5072
  172DOPC   H4R20947   2.960   4.142   3.505 -3.5566 -0.1417 -1.3494
  172DOPC   H4S20948   2.843   4.229   3.599  0.6363  0.2705  1.7853
  172DOPC   C2520949   3.052   4.259   3.677 -0.4783  0.3716 -0.0961
  172DOPC   H5R20950   3.011   4.352   3.723 -1.2487  0.9690 -1.8831
  172DOPC   H5S20951   3.145   4.282   3.620 -0.7545  1.0163 -0.2966
  172DOPC   C2620952   3.070   4.152   3.778 -0.2657  0.0437  0.3404
  172DOPC   H6R20953   3.120   4.065   3.730 -0.8897  0.0556 -0.3441
  172DOPC   H6S20954   2.972   4.122   3.820 -0.3004  1.7560  1.6268
  172DOPC   C2720955   3.165   4.189   3.894  0.1550  0.2894 -0.1513
  172DOPC   H7R20956   3.261   4.231   3.858  0.4241 -0.4013 -0.2355
  172DOPC   H7S20957   3.195   4.101   3.954  0.3866 -0.3202 -1.1340
  172DOPC   C2820958   3.108   4.302   3.991 -0.3625 -0.1423 -0.2293
  172DOPC   H8R20959   3.104   4.394   3.929 -0.4324  1.7732  2.4420
  172DOPC   H8S20960   3.186   4.331   4.065 -1.4499  2.4036  0.0045
  172DOPC   C2920961   2.970   4.277   4.042  0.0440  0.3548 -0.1837
  172DOPC   H9R20962   2.896   4.279   3.961 -0.5874 -1.1071  0.3093
  172DOPC  C21020963   2.933   4.246   4.166 -0.1167 -0.1643  0.0513
  172DOPC  H10R20964   2.828   4.239   4.197 -0.2125  1.6366  0.2294
  172DOPC  C21120965   3.029   4.230   4.282  0.0018  0.4766 -0.3339
  172DOPC  H11R20966   3.129   4.207   4.239 -0.6992  0.2805 -1.9575
  172DOPC  H11S20967   3.000   4.136   4.333 -0.9856  1.2690  0.6025
  172DOPC  C21220968   3.035   4.338   4.387 -0.4538 -0.0769  0.4491
  172DOPC  H12R20969   2.933   4.345   4.431 -0.3499 -0.3312  0.7307
  172DOPC  H12S20970   3.087   4.430   4.352  0.1658 -1.2536 -1.9309
  172DOPC  C21320971   3.133   4.291   4.499  0.0507  0.5865  0.5121
  172DOPC  H13R20972   3.225   4.260   4.445  1.1511 -0.4796  2.8506
  172DOPC  H13S20973   3.104   4.196   4.548  0.3265 -0.6386 -1.5844
  172DOPC  C21420974   3.167   4.405   4.598 -0.0429  0.1004  1.0269
  172DOPC  H14R20975   3.076   4.431   4.656 -0.5591  0.4100  0.1038
  172DOPC  H14S20976   3.200   4.500   4.551  0.4466 -1.1925 -1.3702
  172DOPC  C21520977   3.273   4.363   4.703  0.1682  0.1310 -0.3586
  172DOPC  H15R20978   3.360   4.321   4.648  0.5721  0.5334 -0.0333
  172DOPC  H15S20979   3.234   4.282   4.768  1.0609 -0.2025 -0.2299
  172DOPC  C21620980   3.326   4.476   4.792  0.2623 -0.7224  0.1123
  172DOPC  H16R20981   3.238   4.532   4.829  1.2947 -0.7417  2.8428
  172DOPC  H16S20982   3.395   4.537   4.729  1.8184 -0.9591  1.5050
  172DOPC  C21720983   3.405   4.425   4.908  0.0328 -0.6004 -0.1654
  172DOPC  H17R20984   3.502   4.387   4.870  0.8171 -0.0340  1.1919
  172DOPC  H17S20985   3.361   4.345   4.970 -0.4103  0.7696  1.3622
  172DOPC  C21820986   3.448   4.546   4.997  0.2788 -0.3706 -0.4152
  172DOPC  H18R20987   3.470   4.640   4.942  0.2134  1.5728  2.6392
  172DOPC  H18S20988   3.537   4.503   5.049  0.0997  0.8299  0.9517
  172DOPC  H18T20989   3.376   4.562   5.080 -0.5302 -1.4261 -0.9016
  172DOPC   C3320990   3.131   4.738   3.665  0.1283 -0.7818  0.0415
  172DOPC   H3X20991   3.238   4.708   3.664  0.7899  1.4111  0.4009
  172DOPC   H3Y20992   3.066   4.648   3.666 -0.9064 -0.0934  2.5327
  172DOPC   C3420993   3.087   4.811   3.789 -0.9026 -0.3168 -0.4484
  172DOPC   H4X20994   2.980   4.839   3.781 -0.5091  0.7948 -2.6384
  172DOPC   H4Y20995   3.148   4.903   3.803  1.5207 -1.7529 -0.9152
  172DOPC   C3520996   3.107   4.729   3.921 -0.6156  0.1596  0.2823
  172DOPC   H5X20997   3.215   4.727   3.947  0.4591  1.7426 -3.4689
  172DOPC   H5Y20998   3.075   4.623   3.916  2.6548 -0.9351  0.1041
  172DOPC   C3620999   3.025   4.779   4.042  0.2375  0.0650  0.4210
  172DOPC   H6X21000   3.041   4.886   4.064 -1.1958  0.2279  0.8158
  172DOPC   H6Y21001   2.917   4.758   4.021  0.2403  0.2126  0.2505
  172DOPC   C3721002   3.055   4.696   4.165  0.1474  0.5181  0.6608
  172DOPC   H7X21003   2.976   4.721   4.239 -0.9436 -0.2786 -0.2078
  172DOPC   H7Y21004   3.037   4.589   4.141 -0.4938  0.8681 -0.5088
  172DOPC   C3821005   3.202   4.710   4.222 -0.0933 -0.0131  0.2605
  172DOPC   H8X21006   3.268   4.677   4.139  0.6283  1.4063  0.2436
  172DOPC   H8Y21007   3.223   4.637   4.303  0.9168  1.1936  1.1260
  172DOPC   C3921008   3.246   4.852   4.278 -0.5059  0.0475 -0.0299
  172DOPC   H9X21009   3.281   4.922   4.201  0.6379  0.2523  0.6492
  172DOPC  C31021010   3.239   4.896   4.406 -0.2192  0.1687 -0.3499
  172DOPC  H10X21011   3.277   4.997   4.427  1.2889  0.1188 -2.5135
  172DOPC  C31121012   3.189   4.813   4.528 -0.8524 -0.1489 -0.0397
  172DOPC  H11X21013   3.278   4.775   4.583 -2.6342 -2.4458  1.4855
  172DOPC  H11Y21014   3.126   4.726   4.497 -0.6876  0.1703 -1.2993
  172DOPC  C31221015   3.128   4.902   4.641 -0.0402  0.5317  0.9174
  172DOPC  H12X21016   3.035   4.941   4.595  0.5399 -0.2662 -1.0084
  172DOPC  H12Y21017   3.188   4.988   4.678  1.6939 -0.9586  1.7364
  172DOPC  C31321018   3.084   4.816   4.761 -0.1255  0.0543  0.0139
  172DOPC  H13X21019   3.013   4.739   4.725  2.5401 -2.0967 -1.0103
  172DOPC  H13Y21020   3.170   4.751   4.789  0.4903 -0.3283 -2.4987
  172DOPC  C31421021   3.029   4.885   4.885 -0.3122 -0.0911 -0.6026
  172DOPC  H14X21022   3.110   4.938   4.940  0.8354 -3.0628  0.7999
  172DOPC  H14Y21023   2.946   4.956   4.868 -0.8977 -0.1631  1.6640
  172DOPC  C31521024   2.977   4.781   4.979 -0.2055  0.4159 -0.4229
  172DOPC  H15X21025   3.053   4.708   5.015 -2.1325 -1.0499  0.8956
  172DOPC  H15Y21026   2.895   4.727   4.928  2.0443 -0.4184 -3.3809
  172DOPC  C31621027   2.932   4.846   5.116  0.5615 -0.2373 -0.6058
  172DOPC  H16X21028   3.023   4.886   5.164  0.9200 -1.3912 -0.2971
  172DOPC  H16Y21029   2.874   4.940   5.104  1.0253  0.2164  0.5689
  172DOPC  C31721030   2.846   4.756   5.211  0.2409 -0.1321 -0.0227
  172DOPC  H17X21031   2.749   4.721   5.168 -0.6348 -0.2224  1.9439
  172DOPC  H17Y21032   2.910   4.667   5.231  0.8759  0.6954  1.8392
  172DOPC  C31821033   2.829   4.830   5.351  0.1740 -0.1772  0.5026
  172DOPC  H18X21034   2.928   4.829   5.402 -0.0229  1.5705  0.9855
  172DOPC  H18Y21035   2.797   4.933   5.325 -2.3534 -1.1601 -0.5331
  172DOPC  H18Z21036   2.754   4.784   5.418 -0.7213 -0.0375 -0.3876
  173DOPC     N21037   2.297   3.286   3.053 -0.5609 -0.0609  0.3683
  173DOPC   C1221038   2.252   3.210   3.176 -0.7816  0.3861  0.8055
  173DOPC  H12A21039   2.317   3.219   3.262 -0.2571  6.1905  0.1983
  173DOPC  H12B21040   2.260   3.104   3.156  0.2949  0.4953  0.5856
  173DOPC   C1321041   2.292   3.432   3.076 -0.2261  0.0965  0.1491
  173DOPC  H13A21042   2.375   3.457   3.141  0.6467 -1.7716 -0.1833
  173DOPC  H13B21043   2.307   3.494   2.989 -0.3098  1.9152  1.3802
  173DOPC  H13C21044   2.192   3.453   3.112 -0.6006  1.0187 -1.3367
  173DOPC   C1421045   2.215   3.256   2.935 -0.2586  0.1371  0.1099
  173DOPC  H14A21046   2.209   3.153   2.902 -4.6857  0.7636 -1.6732
  173DOPC  H14B21047   2.113   3.288   2.947 -0.6580 -1.4243  1.1330
  173DOPC  H14C21048   2.250   3.306   2.846  0.0100  0.6551  0.5013
  173DOPC   C1521049   2.440   3.252   3.017 -0.7724 -0.1812  0.0208
  173DOPC  H15A21050   2.466   3.301   2.924 -0.5820  0.8578  0.6019
  173DOPC  H15B21051   2.442   3.145   3.006 -0.6688 -0.1898  0.1229
  173DOPC  H15C21052   2.505   3.287   3.096 -0.3587  0.5436 -0.6248
  173DOPC   C1121053   2.108   3.229   3.236  0.0898 -0.3398 -0.2290
  173DOPC  H11A21054   2.108   3.195   3.342 -0.7098 -0.3917 -0.2371
  173DOPC  H11B21055   2.084   3.338   3.233 -3.8114 -1.0687 -2.9519
  173DOPC     P21056   1.987   3.008   3.166 -0.7425 -0.0398  0.1053
  173DOPC   O1321057   2.109   2.950   3.108 -0.1713 -0.0452 -0.1896
  173DOPC   O1421058   1.857   2.970   3.112  0.6135 -0.6054 -0.2091
  173DOPC   O1221059   2.003   3.167   3.156 -0.1834 -0.7536 -0.5356
  173DOPC   O1121060   1.997   2.982   3.318 -0.3180 -0.2378 -0.2791
  173DOPC    C121061   1.873   2.959   3.391 -0.1696  0.7923 -0.3501
  173DOPC    HA21062   1.897   2.917   3.491 -0.5816  0.2004 -0.4993
  173DOPC    HB21063   1.802   2.888   3.344 -0.2913  0.5144  0.2490
  173DOPC    C221064   1.797   3.096   3.414 -0.2976  0.1416 -0.6397
  173DOPC    HS21065   1.770   3.133   3.312 -0.5880  0.5856 -0.4072
  173DOPC   O2121066   1.881   3.191   3.484  0.1686  0.1872  0.2282
  173DOPC   C2121067   1.836   3.316   3.491  0.5741  0.4354  0.0757
  173DOPC   O2221068   1.732   3.352   3.435 -0.0822 -0.2209  0.4137
  173DOPC   C2221069   1.934   3.404   3.571 -0.0343 -1.1300 -0.6649
  173DOPC   H2R21070   1.966   3.483   3.501  2.6135 -2.4513 -1.0469
  173DOPC   H2S21071   2.017   3.335   3.595 -1.0229 -1.8327  1.0036
  173DOPC    C321072   1.663   3.069   3.489  0.2891 -0.3124 -0.0815
  173DOPC    HX21073   1.606   3.017   3.409  0.5274 -0.8594  0.0989
  173DOPC    HY21074   1.608   3.164   3.505 -0.8016 -0.8876 -0.3370
  173DOPC   O3121075   1.673   2.984   3.600 -0.4470 -0.0985 -0.3155
  173DOPC   C3121076   1.684   3.036   3.721 -0.3024  0.3100 -0.6164
  173DOPC   O3221077   1.628   3.137   3.761 -0.4381  0.3173  0.4582
  173DOPC   C3221078   1.794   2.960   3.798  0.3824  0.3237 -0.4100
  173DOPC   H2X21079   1.747   2.865   3.830 -3.3988  1.6229 -1.6070
  173DOPC   H2Y21080   1.883   2.949   3.732  0.7719  2.3866 -0.3138
  173DOPC   C2321081   1.872   3.483   3.692  0.0457  0.2948  0.0499
  173DOPC   H3R21082   1.788   3.548   3.658  1.7900  1.7779 -1.6401
  173DOPC   H3S21083   1.936   3.568   3.724 -1.4997  1.7769 -0.6233
  173DOPC   C2421084   1.850   3.396   3.818  0.3883 -0.1733  0.2256
  173DOPC   H4R21085   1.944   3.338   3.830  1.0885  0.7689 -0.5715
  173DOPC   H4S21086   1.765   3.327   3.798  1.5787 -1.8591  0.7780
  173DOPC   C2521087   1.809   3.467   3.948 -0.1898  0.2823  0.5687
  173DOPC   H5R21088   1.882   3.537   3.994 -3.1812  1.0809  4.6117
  173DOPC   H5S21089   1.801   3.382   4.019 -2.0270 -0.2627 -0.2236
  173DOPC   C2621090   1.663   3.526   3.935  1.1798 -0.5455  0.4692
  173DOPC   H6R21091   1.596   3.439   3.915 -0.8327  0.6351  1.7375
  173DOPC   H6S21092   1.647   3.592   3.847 -2.7611 -0.4842  1.0266
  173DOPC   C2721093   1.618   3.601   4.063  0.1640 -0.2694  1.1437
  173DOPC   H7R21094   1.516   3.637   4.040  0.0429 -1.5347 -0.4980
  173DOPC   H7S21095   1.677   3.695   4.070  1.6516 -0.9268 -1.2487
  173DOPC   C2821096   1.636   3.527   4.190 -1.2242 -0.4947 -0.3882
  173DOPC   H8R21097   1.630   3.593   4.278 -0.5555 -0.7613 -0.1299
  173DOPC   H8S21098   1.739   3.484   4.190 -1.4309 -1.0407 -1.6996
  173DOPC   C2921099   1.538   3.421   4.200 -0.1848  0.5099 -0.1812
  173DOPC   H9R21100   1.487   3.383   4.110 -0.1456 -2.1509  0.8437
  173DOPC  C21021101   1.500   3.365   4.319 -0.0881  0.6325  0.6282
  173DOPC  H10R21102   1.431   3.280   4.313  2.0714 -1.1656  0.3367
  173DOPC  C21121103   1.559   3.396   4.455  0.2068 -0.0605  0.5894
  173DOPC  H11R21104   1.651   3.457   4.444 -0.3848  0.6966 -0.4340
  173DOPC  H11S21105   1.602   3.301   4.492 -1.2112 -0.1201  2.2300
  173DOPC  C21221106   1.458   3.463   4.555 -0.5179  0.2702  0.0162
  173DOPC  H12R21107   1.380   3.394   4.595 -1.0400  1.2585  0.7499
  173DOPC  H12S21108   1.391   3.538   4.509  0.2340  0.0384 -1.5277
  173DOPC  C21321109   1.535   3.527   4.669  0.3896 -0.2816  0.6801
  173DOPC  H13R21110   1.598   3.606   4.624 -2.1135  1.2814 -0.2989
  173DOPC  H13S21111   1.608   3.458   4.717 -1.2833 -2.4839  0.2197
  173DOPC  C21421112   1.441   3.602   4.757  0.0752 -0.5505  0.5616
  173DOPC  H14R21113   1.406   3.524   4.829  0.4630 -0.6203  0.6766
  173DOPC  H14S21114   1.350   3.643   4.708  0.4754  0.4320  0.6278
  173DOPC  C21521115   1.502   3.724   4.830 -0.1911  0.4872 -0.1010
  173DOPC  H15R21116   1.538   3.801   4.758 -1.4631  0.8224 -0.3966
  173DOPC  H15S21117   1.585   3.687   4.894  1.3731 -0.3691 -2.5024
  173DOPC  C21621118   1.411   3.781   4.941 -0.2616 -0.5419 -0.3528
  173DOPC  H16R21119   1.407   3.704   5.021 -0.3226  0.4789  0.6474
  173DOPC  H16S21120   1.312   3.802   4.896 -0.3500 -0.2244 -0.0154
  173DOPC  C21721121   1.461   3.915   5.015  0.4045 -0.1204  1.3445
  173DOPC  H17R21122   1.572   3.920   5.021  0.4641 -0.6112  0.7462
  173DOPC  H17S21123   1.434   3.904   5.122 -0.5082  0.3990  1.1821
  173DOPC  C21821124   1.388   4.047   4.964  0.4456 -0.0078 -0.2599
  173DOPC  H18R21125   1.434   4.144   4.993 -1.4194  0.9895 -0.4907
  173DOPC  H18S21126   1.278   4.044   4.981  0.1765 -0.1144 -1.8075
  173DOPC  H18T21127   1.389   4.047   4.853 -0.5798 -2.1266 -0.3255
  173DOPC   C3321128   1.850   3.040   3.916 -0.0865 -0.1446 -0.4913
  173DOPC   H3X21129   1.856   3.149   3.900 -1.5859  0.0698  0.2746
  173DOPC   H3Y21130   1.951   2.994   3.924 -0.5249 -0.9396  0.7017
  173DOPC   C3421131   1.778   3.006   4.045  0.0233 -0.0015  0.3654
  173DOPC   H4X21132   1.828   2.916   4.088  2.5788  0.6897 -0.9972
  173DOPC   H4Y21133   1.677   2.964   4.026  0.6674 -1.0212 -0.9429
  173DOPC   C3521134   1.774   3.129   4.139  0.3486  0.0759  1.1390
  173DOPC   H5X21135   1.693   3.197   4.107  1.1654  0.5234 -0.0395
  173DOPC   H5Y21136   1.869   3.185   4.125  2.8352 -3.7240  1.2583
  173DOPC   C3621137   1.748   3.079   4.282 -0.3287  0.6340  0.4149
  173DOPC   H6X21138   1.831   3.007   4.300 -1.5125 -0.7838  0.4802
  173DOPC   H6Y21139   1.764   3.157   4.359 -0.5287  0.4609  0.6358
  173DOPC   C3721140   1.622   2.998   4.302  0.1404 -0.6215 -0.4973
  173DOPC   H7X21141   1.533   3.062   4.284  0.4442 -0.5688 -1.8561
  173DOPC   H7Y21142   1.614   2.917   4.227 -1.5457 -0.8602 -0.1099
  173DOPC   C3821143   1.617   2.952   4.451  0.4107  0.2821 -0.0682
  173DOPC   H8X21144   1.638   3.036   4.520 -1.4831 -0.2126  1.1630
  173DOPC   H8Y21145   1.696   2.873   4.453 -0.9683 -1.2535 -1.8939
  173DOPC   C3921146   1.484   2.888   4.487  0.2243 -0.9108  0.2451
  173DOPC   H9X21147   1.480   2.785   4.449 -1.0614 -0.6696 -0.3169
  173DOPC  C31021148   1.387   2.946   4.559  1.2150  0.7107  0.7038
  173DOPC  H10X21149   1.305   2.879   4.590 -0.9901  2.8836 -0.1508
  173DOPC  C31121150   1.384   3.081   4.624  0.2787  0.3319  0.2485
  173DOPC  H11X21151   1.288   3.134   4.605 -0.6662 -1.1860  0.6727
  173DOPC  H11Y21152   1.469   3.138   4.580  0.6471 -1.2723 -1.2246
  173DOPC  C31221153   1.405   3.072   4.773 -0.0410 -0.1024  0.3487
  173DOPC  H12X21154   1.494   3.021   4.816 -1.3111 -2.3030  0.5428
  173DOPC  H12Y21155   1.321   3.008   4.808 -2.1606  2.1628 -0.2423
  173DOPC  C31321156   1.377   3.216   4.839 -0.2408  0.3487 -0.5787
  173DOPC  H13X21157   1.454   3.282   4.792  0.7182 -0.4618 -0.1892
  173DOPC  H13Y21158   1.280   3.238   4.789 -0.4328 -3.4913 -2.1860
  173DOPC  C31421159   1.373   3.210   4.986 -0.1191 -0.2559 -1.1894
  173DOPC  H14X21160   1.296   3.133   5.010  0.3597 -0.3255  0.2618
  173DOPC  H14Y21161   1.468   3.183   5.037  0.9325  4.1877 -0.3597
  173DOPC  C31521162   1.321   3.343   5.046 -0.7214  0.8678 -0.2400
  173DOPC  H15X21163   1.235   3.376   4.984 -0.5561  0.9273 -0.4381
  173DOPC  H15Y21164   1.403   3.417   5.030  1.7311 -1.5907  0.1197
  173DOPC  C31621165   1.295   3.341   5.194 -0.2227  0.4737 -0.4662
  173DOPC  H16X21166   1.390   3.327   5.250 -0.1166  2.3538 -0.1254
  173DOPC  H16Y21167   1.268   3.447   5.212  4.0612  1.5410  0.7565
  173DOPC  C31721168   1.177   3.257   5.235  0.1119  0.2957  0.2319
  173DOPC  H17X21169   1.088   3.281   5.174  1.0056  0.6091 -0.9792
  173DOPC  H17Y21170   1.197   3.148   5.232  2.6216  0.7075 -0.1926
  173DOPC  C31821171   1.140   3.283   5.385  0.5155 -0.5366  0.5405
  173DOPC  H18X21172   1.045   3.238   5.422 -0.6722  3.4545  2.9314
  173DOPC  H18Y21173   1.229   3.258   5.446 -0.2937 -1.6810  1.3009
  173DOPC  H18Z21174   1.134   3.393   5.399 -0.1031 -0.7540  2.2983
  174DOPC     N21175   5.107   1.827   2.807  0.3071  0.2571 -0.6347
  174DOPC   C1221176   5.089   1.953   2.888  0.6630 -0.3526  0.3868
  174DOPC  H12A21177   4.996   1.994   2.852  0.0698 -2.2500 -0.3314
  174DOPC  H12B21178   5.172   2.020   2.872 -0.3239  0.5544 -1.1757
  174DOPC   C1321179   5.207   1.727   2.865 -0.0711  0.4888  0.7122
  174DOPC  H13A21180   5.303   1.776   2.862 -0.1083  0.5343 -0.0597
  174DOPC  H13B21181   5.185   1.701   2.967 -1.8744  0.7173  0.4281
  174DOPC  H13C21182   5.222   1.635   2.811 -1.4937  0.6194  0.0290
  174DOPC   C1421183   5.161   1.873   2.679 -0.3381  0.3078  0.4425
  174DOPC  H14A21184   5.173   1.788   2.614  0.7241 -0.0288  1.0604
  174DOPC  H14B21185   5.089   1.942   2.636 -0.5417  0.4060  0.9394
  174DOPC  H14C21186   5.257   1.920   2.694  0.6685 -1.8579  1.1391
  174DOPC   C1521187   4.971   1.767   2.782  0.1139  0.5599 -0.4266
  174DOPC  H15A21188   4.985   1.679   2.721 -0.9941 -0.0663  0.1862
  174DOPC  H15B21189   4.908   1.841   2.735  1.4642  2.1364  0.1377
  174DOPC  H15C21190   4.938   1.736   2.880  1.6864 -1.4577 -0.4739
  174DOPC   C1121191   5.061   1.936   3.042  0.0586 -0.0498 -0.0364
  174DOPC  H11A21192   5.137   1.872   3.092 -0.2895 -2.1774 -2.0384
  174DOPC  H11B21193   5.062   2.032   3.097 -1.3463 -0.8969  1.5887
  174DOPC     P21194   4.796   1.937   3.044 -0.3508  0.3756  0.0638
  174DOPC   O1321195   4.700   1.830   3.009 -0.3976 -0.1658  0.3441
  174DOPC   O1421196   4.807   2.051   2.948 -0.2092  0.2017  0.4926
  174DOPC   O1221197   4.940   1.872   3.071 -0.1286  0.1716 -0.0918
  174DOPC   O1121198   4.755   1.990   3.193  0.2379  0.5577  0.5073
  174DOPC    C121199   4.708   1.899   3.289 -0.0401 -0.3119 -0.2184
  174DOPC    HA21200   4.669   1.804   3.246 -0.6324 -1.4273  2.5984
  174DOPC    HB21201   4.626   1.945   3.348  0.2266 -0.1808  0.0516
  174DOPC    C221202   4.821   1.866   3.394 -0.1520  0.0948 -0.3883
  174DOPC    HS21203   4.909   1.811   3.355 -0.2215 -0.5511  0.3520
  174DOPC   O2121204   4.770   1.796   3.504  0.1903  0.8992 -0.5135
  174DOPC   C2121205   4.742   1.670   3.481 -0.2871  0.2362 -0.4284
  174DOPC   O2221206   4.740   1.610   3.373 -0.6091 -0.2610 -0.5360
  174DOPC   C2221207   4.713   1.599   3.613 -0.2505  0.1138  0.5899
  174DOPC   H2R21208   4.637   1.651   3.676 -0.4205 -0.6107  0.9940
  174DOPC   H2S21209   4.810   1.597   3.667  0.1038 -0.9375 -0.0541
  174DOPC    C321210   4.888   1.998   3.449 -0.0518 -0.0673  0.3019
  174DOPC    HX21211   4.816   2.083   3.448 -0.2020 -0.1123 -2.4529
  174DOPC    HY21212   4.974   1.999   3.379  1.0641 -2.6255  1.4950
  174DOPC   O3121213   4.940   1.993   3.583  0.3406  0.5846  0.4240
  174DOPC   C3121214   5.022   1.898   3.613 -0.5135  0.4721 -0.1436
  174DOPC   O3221215   5.090   1.838   3.537  0.2682  0.6702 -0.1610
  174DOPC   C3221216   5.005   1.866   3.766 -0.3105 -0.0906  0.2330
  174DOPC   H2X21217   5.059   1.940   3.830  0.5025 -1.2415  0.9209
  174DOPC   H2Y21218   4.897   1.868   3.791 -0.4853  0.0607 -0.5292
  174DOPC   C2321219   4.667   1.456   3.588 -0.2959 -0.1787 -0.3452
  174DOPC   H3R21220   4.706   1.406   3.497  5.3934 -0.7813  2.0004
  174DOPC   H3S21221   4.556   1.465   3.588 -0.1559  2.5790 -2.3526
  174DOPC   C2421222   4.710   1.370   3.705  0.1774 -0.6625  0.1540
  174DOPC   H4R21223   4.821   1.373   3.718  0.2231 -1.6794  0.0990
  174DOPC   H4S21224   4.690   1.265   3.675 -2.5984 -0.2374  0.2460
  174DOPC   C2521225   4.645   1.402   3.835 -0.1071 -0.1785  0.2937
  174DOPC   H5R21226   4.536   1.412   3.814 -0.1865 -0.7569  0.4165
  174DOPC   H5S21227   4.692   1.491   3.883 -0.3195 -0.5455  1.1976
  174DOPC   C2621228   4.670   1.281   3.924  0.0403 -0.1817 -0.4161
  174DOPC   H6R21229   4.771   1.285   3.970  1.0987  0.6908 -2.6865
  174DOPC   H6S21230   4.657   1.190   3.862 -1.6948 -1.1898  1.3014
  174DOPC   C2721231   4.561   1.267   4.036  0.0028 -0.4098 -0.0399
  174DOPC   H7R21232   4.585   1.175   4.094  1.7945  1.4818  2.4190
  174DOPC   H7S21233   4.460   1.251   3.992 -0.2333  1.2842 -0.1773
  174DOPC   C2821234   4.562   1.386   4.132  0.2509  0.5203  0.0375
  174DOPC   H8R21235   4.524   1.477   4.080 -2.5387 -1.0876 -0.9091
  174DOPC   H8S21236   4.662   1.408   4.176  1.6423  0.6665 -2.9103
  174DOPC   C2921237   4.458   1.365   4.244  0.7286  0.4474 -0.1358
  174DOPC   H9R21238   4.360   1.342   4.201  0.4377 -0.0093  0.7671
  174DOPC  C21021239   4.464   1.379   4.379 -0.1875 -0.5639 -0.1048
  174DOPC  H10R21240   4.370   1.369   4.436 -0.1934 -1.3989 -0.2491
  174DOPC  C21121241   4.583   1.416   4.463 -0.6360  0.5859  0.2910
  174DOPC  H11R21242   4.673   1.371   4.416 -0.8026  0.8461 -0.2897
  174DOPC  H11S21243   4.576   1.362   4.560  3.1298 -2.3080 -0.8045
  174DOPC  C21221244   4.602   1.563   4.488  0.0593 -0.1515 -0.4929
  174DOPC  H12R21245   4.513   1.611   4.535  0.1111  1.8993 -2.3140
  174DOPC  H12S21246   4.618   1.620   4.394  1.4223  1.1277  0.4740
  174DOPC  C21321247   4.717   1.580   4.591  0.2375  0.6052  0.4378
  174DOPC  H13R21248   4.814   1.554   4.543  1.6014  1.3503  2.6572
  174DOPC  H13S21249   4.700   1.521   4.683 -0.6462  0.2471  0.0663
  174DOPC  C21421250   4.728   1.732   4.624 -0.6013 -1.0035 -0.1456
  174DOPC  H14R21251   4.632   1.761   4.670 -0.5765  0.4671 -0.9511
  174DOPC  H14S21252   4.734   1.788   4.528 -1.2565  1.2446  1.0713
  174DOPC  C21521253   4.855   1.751   4.709 -0.0718 -0.4988  0.3370
  174DOPC  H15R21254   4.936   1.700   4.653 -1.3852 -0.7692 -1.4013
  174DOPC  H15S21255   4.843   1.707   4.811 -1.4565  2.8756  1.7954
  174DOPC  C21621256   4.891   1.895   4.731 -0.6630 -0.4820 -0.8529
  174DOPC  H16R21257   4.809   1.953   4.777 -1.7721 -1.6068 -1.3782
  174DOPC  H16S21258   4.921   1.936   4.632  0.4870  0.5505 -0.1105
  174DOPC  C21721259   5.009   1.926   4.825 -0.0858 -0.3372 -0.0117
  174DOPC  H17R21260   4.997   1.875   4.923 -0.1782  0.3347  0.3327
  174DOPC  H17S21261   5.002   2.033   4.856  0.9026  0.2486 -1.6899
  174DOPC  C21821262   5.157   1.893   4.770  0.0777 -0.1655 -0.6035
  174DOPC  H18R21263   5.166   1.944   4.671 -0.4002  1.1652  0.0157
  174DOPC  H18S21264   5.168   1.782   4.768  0.4062 -0.1309 -0.8655
  174DOPC  H18T21265   5.237   1.936   4.833 -2.6721  3.8378  0.5254
  174DOPC   C3321266   5.066   1.729   3.802 -0.2003 -0.5895 -0.7002
  174DOPC   H3X21267   5.170   1.730   3.761  0.8421 -2.4636  1.6292
  174DOPC   H3Y21268   5.013   1.652   3.742  3.6119 -1.9668 -2.6736
  174DOPC   C3421269   5.059   1.694   3.951 -0.3730 -0.5503  0.6081
  174DOPC   H4X21270   5.119   1.775   3.996 -1.1030  0.8900 -0.8884
  174DOPC   H4Y21271   5.107   1.596   3.969 -0.8970 -1.0607 -0.6063
  174DOPC   C3521272   4.923   1.690   4.024  0.2173  0.4991  0.7464
  174DOPC   H5X21273   4.886   1.588   4.002  1.7020  0.0220  0.3806
  174DOPC   H5Y21274   4.853   1.771   3.993  0.3359  0.1367 -0.5261
  174DOPC   C3621275   4.953   1.707   4.179 -0.1808  0.0519  0.7030
  174DOPC   H6X21276   4.855   1.693   4.229 -0.9315 -0.6365 -0.8883
  174DOPC   H6Y21277   5.028   1.630   4.208 -0.5117 -0.2948  0.6422
  174DOPC   C3721278   4.996   1.850   4.216 -0.1234 -0.1052 -0.1339
  174DOPC   H7X21279   5.107   1.853   4.223 -0.0499  2.8319 -1.1390
  174DOPC   H7Y21280   4.969   1.930   4.143  0.6272 -0.3898 -0.7277
  174DOPC   C3821281   4.945   1.909   4.357 -0.2763 -0.2654  0.1281
  174DOPC   H8X21282   4.987   1.838   4.432  0.3606 -1.3355 -1.2046
  174DOPC   H8Y21283   4.835   1.892   4.356  0.0927 -3.1666 -0.6850
  174DOPC   C3921284   5.003   2.051   4.374 -0.4555  0.7153 -0.0915
  174DOPC   H9X21285   5.110   2.066   4.392 -0.0129 -2.3668  0.3891
  174DOPC  C31021286   4.924   2.155   4.344 -0.6379 -1.0602 -0.0595
  174DOPC  H10X21287   4.970   2.252   4.369 -0.6025 -0.8479 -0.9100
  174DOPC  C31121288   4.782   2.156   4.294 -0.0760  0.0224  0.6576
  174DOPC  H11X21289   4.715   2.184   4.378  1.2397  0.6370  1.5514
  174DOPC  H11Y21290   4.748   2.061   4.250 -0.9366  0.0387  1.2592
  174DOPC  C31221291   4.774   2.262   4.179  0.6467 -0.0321 -0.0859
  174DOPC  H12X21292   4.673   2.262   4.134  0.0431  0.0512  1.2204
  174DOPC  H12Y21293   4.836   2.243   4.089  0.2501 -0.2139 -0.3225
  174DOPC  C31321294   4.802   2.408   4.212 -0.1287  0.3592 -0.0559
  174DOPC  H13X21295   4.763   2.432   4.313 -0.2341  1.1120 -0.2704
  174DOPC  H13Y21296   4.911   2.428   4.214 -0.1596  0.6070 -0.7301
  174DOPC  C31421297   4.746   2.502   4.102  0.0290  0.9129  0.8081
  174DOPC  H14X21298   4.803   2.487   4.007 -0.8942 -1.1261  0.5084
  174DOPC  H14Y21299   4.639   2.471   4.098 -0.3778  2.2978  0.4474
  174DOPC  C31521300   4.777   2.641   4.138 -0.1422 -0.1773  0.6834
  174DOPC  H15X21301   4.886   2.663   4.139 -0.2665  0.4705  1.9251
  174DOPC  H15Y21302   4.740   2.659   4.241 -0.7128  1.0003  0.2968
  174DOPC  C31621303   4.694   2.734   4.056 -0.2670 -0.4132  0.3131
  174DOPC  H16X21304   4.746   2.738   3.959  2.9116 -0.2097  1.9041
  174DOPC  H16Y21305   4.589   2.697   4.056 -0.0424 -1.0820 -1.0758
  174DOPC  C31721306   4.684   2.880   4.108  0.1913  0.1413  0.4297
  174DOPC  H17X21307   4.740   2.891   4.203 -2.3494  0.7028  1.9838
  174DOPC  H17Y21308   4.739   2.945   4.038  1.5576 -0.4289  0.9397
  174DOPC  C31821309   4.540   2.931   4.130 -1.1640 -0.7987  0.0761
  174DOPC  H18X21310   4.546   3.031   4.179 -1.1599 -0.9868  0.4586
  174DOPC  H18Y21311   4.484   2.944   4.035 -0.2434  1.6670 -0.2150
  174DOPC  H18Z21312   4.473   2.867   4.191 -1.9755  0.9864  1.1707
  175DOPC     N21313   2.807   6.147   2.720  0.1276  0.8189 -0.0926
  175DOPC   C1221314   2.794   6.160   2.872  0.0825  0.5048  0.8162
  175DOPC  H12A21315   2.707   6.219   2.893 -1.4451 -1.0741 -0.7509
  175DOPC  H12B21316   2.884   6.205   2.912  1.0199  0.4955 -1.1476
  175DOPC   C1321317   2.855   6.281   2.669  0.3367 -0.0140 -0.1706
  175DOPC  H13A21318   2.778   6.355   2.680  1.0022  0.6629  0.0723
  175DOPC  H13B21319   2.948   6.310   2.717  0.1781  0.0641  0.0898
  175DOPC  H13C21320   2.867   6.276   2.561  1.0007 -0.5532 -0.0852
  175DOPC   C1421321   2.678   6.118   2.653  0.4293 -0.0122  0.0137
  175DOPC  H14A21322   2.608   6.201   2.658 -0.8648 -1.0747  0.1176
  175DOPC  H14B21323   2.694   6.096   2.548 -0.7483 -2.2502  0.2458
  175DOPC  H14C21324   2.638   6.026   2.693  0.1187  0.4431  0.7675
  175DOPC   C1521325   2.905   6.044   2.679  0.7862 -0.7961  0.1937
  175DOPC  H15A21326   2.998   6.048   2.733  1.2609  1.9992 -0.6899
  175DOPC  H15B21327   2.918   6.056   2.572  0.3255 -1.3039  0.0737
  175DOPC  H15C21328   2.859   5.947   2.696  0.1518 -0.4010  0.7767
  175DOPC   C1121329   2.763   6.027   2.938  0.2697  0.0403 -0.2862
  175DOPC  H11A21330   2.719   6.036   3.039  0.9499  0.7541 -0.0443
  175DOPC  H11B21331   2.681   5.978   2.881  0.3503 -0.7572  0.2625
  175DOPC     P21332   2.993   5.978   3.053  0.1281 -0.3054  0.4374
  175DOPC   O1321333   3.055   6.111   3.013  0.2367  0.8940  0.7990
  175DOPC   O1421334   3.091   5.864   3.057  0.1911 -0.2742  0.2332
  175DOPC   O1221335   2.881   5.946   2.945  0.6451  0.4165  0.4318
  175DOPC   O1121336   2.915   5.993   3.189  0.3322 -0.0004 -0.2605
  175DOPC    C121337   2.865   5.875   3.255  0.0666  0.0169  0.2020
  175DOPC    HA21338   2.929   5.859   3.344  0.1052  0.4745  0.2620
  175DOPC    HB21339   2.878   5.783   3.195  1.0927  1.0783 -1.2837
  175DOPC    C221340   2.720   5.895   3.303  0.4416  0.1489 -0.1730
  175DOPC    HS21341   2.652   5.946   3.231  0.8893 -0.5657 -1.1321
  175DOPC   O2121342   2.723   5.984   3.417  0.2646 -0.4752 -0.0705
  175DOPC   C2121343   2.612   6.038   3.462  0.0212  0.6007  0.3976
  175DOPC   O2221344   2.505   6.033   3.402  0.5079 -0.1020 -0.0015
  175DOPC   C2221345   2.629   6.099   3.604 -0.0810  0.5203 -0.1589
  175DOPC   H2R21346   2.701   6.182   3.592 -0.2883  0.7470  0.1451
  175DOPC   H2S21347   2.673   6.020   3.668  2.1846  1.3017 -0.6470
  175DOPC    C321348   2.651   5.755   3.338  0.1342  0.6977 -0.4340
  175DOPC    HX21349   2.668   5.681   3.258 -0.7293  0.7996 -0.7260
  175DOPC    HY21350   2.544   5.777   3.358 -0.4832 -2.4701  0.2083
  175DOPC   O3121351   2.712   5.694   3.446  0.3172  0.7193  0.1570
  175DOPC   C3121352   2.662   5.706   3.565  0.6090  0.5761 -0.5820
  175DOPC   O3221353   2.558   5.763   3.594 -0.6733 -0.2795 -0.0570
  175DOPC   C3221354   2.744   5.631   3.677  0.2414  0.7515  0.2384
  175DOPC   H2X21355   2.680   5.550   3.718  0.2516 -0.2377 -1.5978
  175DOPC   H2Y21356   2.832   5.589   3.622  0.7052  1.8384  0.1357
  175DOPC   C2321357   2.496   6.155   3.669  0.1576  0.1252 -0.4521
  175DOPC   H3R21358   2.417   6.164   3.592 -0.1843  2.6074  0.1186
  175DOPC   H3S21359   2.498   6.256   3.715 -0.9034 -0.0294 -0.0556
  175DOPC   C2421360   2.432   6.062   3.777  0.1585  0.6508  0.5256
  175DOPC   H4R21361   2.409   5.966   3.726 -0.0073  0.8691  0.1782
  175DOPC   H4S21362   2.343   6.109   3.823 -0.4098  0.7331 -0.6025
  175DOPC   C2521363   2.528   6.026   3.886  0.0414 -0.7890 -0.8838
  175DOPC   H5R21364   2.633   6.009   3.856  0.6072  1.9880 -0.7365
  175DOPC   H5S21365   2.486   5.931   3.926  1.6573 -1.5147 -0.8376
  175DOPC   C2621366   2.514   6.138   3.994  0.2227 -0.3330  0.0600
  175DOPC   H6R21367   2.409   6.160   4.019 -0.3145  2.3627 -3.6673
  175DOPC   H6S21368   2.552   6.235   3.955  0.7665 -0.1093  1.1007
  175DOPC   C2721369   2.600   6.097   4.121  0.1459  0.2142  0.1310
  175DOPC   H7R21370   2.583   6.184   4.188 -1.3581  0.6713 -0.7868
  175DOPC   H7S21371   2.701   6.080   4.079 -0.4424 -0.1930 -1.1736
  175DOPC   C2821372   2.537   5.975   4.196 -0.1681  0.3993 -0.1069
  175DOPC   H8R21373   2.613   5.933   4.266  2.3051  1.1232 -2.1720
  175DOPC   H8S21374   2.509   5.892   4.128  0.7126 -0.1231  0.1448
  175DOPC   C2921375   2.414   6.009   4.271  0.4595 -0.0720 -0.6192
  175DOPC   H9R21376   2.325   6.022   4.209  0.2036 -0.7816 -0.4181
  175DOPC  C21021377   2.397   6.021   4.400 -0.0414 -0.0409  0.5449
  175DOPC  H10R21378   2.292   6.031   4.431 -0.4349  4.4544 -1.5591
  175DOPC  C21121379   2.502   6.007   4.506  0.7788 -0.2956 -0.4898
  175DOPC  H11R21380   2.586   5.941   4.475  0.4198 -0.5854 -0.8533
  175DOPC  H11S21381   2.466   5.950   4.594 -2.8961  1.1959 -0.8504
  175DOPC  C21221382   2.551   6.146   4.554 -1.3095 -0.6084  0.1854
  175DOPC  H12R21383   2.475   6.206   4.608 -0.5325 -2.1400  3.2383
  175DOPC  H12S21384   2.584   6.206   4.466  0.4767 -1.5949  0.1234
  175DOPC  C21321385   2.671   6.124   4.653 -0.1456  0.6784 -0.7413
  175DOPC  H13R21386   2.745   6.046   4.627  1.4717  1.7085  0.5212
  175DOPC  H13S21387   2.631   6.110   4.756  1.4809  2.4093  0.1965
  175DOPC  C21421388   2.763   6.250   4.670  0.3383 -0.6766  0.5408
  175DOPC  H14R21389   2.700   6.329   4.716  0.7420 -1.7123  3.0501
  175DOPC  H14S21390   2.798   6.283   4.570  1.1008  1.0704  1.3457
  175DOPC  C21521391   2.893   6.222   4.748  0.7139 -0.5240  0.7756
  175DOPC  H15R21392   2.963   6.161   4.687 -0.4676 -0.4095 -0.7469
  175DOPC  H15S21393   2.857   6.157   4.831  1.8732  0.0799  1.7946
  175DOPC  C21621394   2.969   6.343   4.802 -0.1236 -0.8416  0.5908
  175DOPC  H16R21395   3.046   6.317   4.878  0.2964  0.1674  0.5167
  175DOPC  H16S21396   2.886   6.407   4.839  0.1063  0.0363 -0.3808
  175DOPC  C21721397   3.022   6.420   4.676  0.5706 -0.1014 -0.3474
  175DOPC  H17R21398   2.940   6.451   4.608 -0.6125 -0.2193  1.0040
  175DOPC  H17S21399   3.094   6.354   4.621  0.1144 -0.3252 -0.6840
  175DOPC  C21821400   3.101   6.540   4.730  0.0826  0.0554  0.5292
  175DOPC  H18R21401   3.119   6.620   4.655  1.0924  0.4575  1.1830
  175DOPC  H18S21402   3.194   6.515   4.784  0.3971  3.6045  1.9258
  175DOPC  H18T21403   3.048   6.588   4.815  0.2835 -0.0007  0.6859
  175DOPC   C3321404   2.783   5.724   3.788 -0.3366 -0.6651 -0.0660
  175DOPC   H3X21405   2.687   5.763   3.826 -1.4034 -2.4667 -0.7986
  175DOPC   H3Y21406   2.849   5.804   3.747 -1.3141  0.2521  0.1013
  175DOPC   C3421407   2.849   5.655   3.912 -0.1126  0.6243  0.4249
  175DOPC   H4X21408   2.885   5.733   3.982 -1.3463 -0.8790  2.8531
  175DOPC   H4Y21409   2.941   5.599   3.883 -1.9788 -2.4960  0.0545
  175DOPC   C3521410   2.766   5.548   3.983  0.0712 -0.4321  0.1413
  175DOPC   H5X21411   2.761   5.454   3.924 -0.5935 -0.9581  1.0140
  175DOPC   H5Y21412   2.661   5.582   3.997  0.5864  2.3888 -2.0027
  175DOPC   C3621413   2.819   5.492   4.117  0.1827 -0.3314 -0.0052
  175DOPC   H6X21414   2.751   5.417   4.161  0.3846  0.0490  0.9836
  175DOPC   H6Y21415   2.912   5.433   4.107  0.3333 -0.1525  0.3125
  175DOPC   C3721416   2.842   5.596   4.226 -0.7492  0.0809 -0.3296
  175DOPC   H7X21417   2.922   5.669   4.204  0.4027 -1.1974 -0.5679
  175DOPC   H7Y21418   2.748   5.649   4.252 -1.0155 -1.5633  2.4284
  175DOPC   C3821419   2.875   5.525   4.356 -0.0453  0.4979  0.3273
  175DOPC   H8X21420   2.784   5.467   4.383 -0.5092  1.9946  2.2516
  175DOPC   H8Y21421   2.883   5.609   4.428 -0.3803  2.4504 -1.8033
  175DOPC   C3921422   3.008   5.454   4.369 -0.6755 -0.3584  0.1288
  175DOPC   H9X21423   3.094   5.519   4.346 -0.6285 -0.8303 -1.1301
  175DOPC  C31021424   3.024   5.321   4.413  0.1523  0.0321 -0.5760
  175DOPC  H10X21425   3.120   5.270   4.396 -0.3033 -0.6557 -1.1149
  175DOPC  C31121426   2.919   5.223   4.456  0.5567  0.6113  0.1979
  175DOPC  H11X21427   2.951   5.123   4.419 -1.2241  0.6431 -1.5890
  175DOPC  H11Y21428   2.831   5.245   4.392  0.7618  1.4808  0.1998
  175DOPC  C31221429   2.885   5.211   4.605  0.3738  0.0510 -0.4881
  175DOPC  H12X21430   2.973   5.175   4.662 -1.0058 -1.2296  0.9171
  175DOPC  H12Y21431   2.804   5.136   4.612  0.7186 -0.3433 -0.7171
  175DOPC  C31321432   2.831   5.344   4.667  0.6672 -0.3056 -0.1547
  175DOPC  H13X21433   2.890   5.437   4.650  1.6638 -0.9367 -0.1864
  175DOPC  H13Y21434   2.727   5.372   4.638 -0.2305 -2.8492  0.3450
  175DOPC  C31421435   2.819   5.327   4.819 -0.0148 -0.2647 -0.0024
  175DOPC  H14X21436   2.739   5.399   4.847  1.0744  1.1928 -0.5503
  175DOPC  H14Y21437   2.777   5.231   4.856 -1.3475  0.1941 -0.2538
  175DOPC  C31521438   2.954   5.361   4.890 -0.2724 -0.0030 -0.2083
  175DOPC  H15X21439   2.968   5.471   4.877  0.0982  0.1530  1.3234
  175DOPC  H15Y21440   3.037   5.316   4.833 -0.6004 -0.2215 -0.5198
  175DOPC  C31621441   2.957   5.320   5.040  0.9526 -0.2975 -0.3453
  175DOPC  H16X21442   2.952   5.209   5.039 -0.9191 -0.2945  1.6118
  175DOPC  H16Y21443   3.051   5.347   5.093 -0.4272 -2.9062  3.9451
  175DOPC  C31721444   2.828   5.375   5.117 -0.3613  0.4182  0.4583
  175DOPC  H17X21445   2.813   5.485   5.108 -0.1441  0.2821 -2.7136
  175DOPC  H17Y21446   2.738   5.332   5.068 -1.2688  0.3581  2.1175
  175DOPC  C31821447   2.829   5.322   5.259  0.0345  0.2671  0.1478
  175DOPC  H18X21448   2.738   5.356   5.312  0.5192  1.1492  0.4361
  175DOPC  H18Y21449   2.828   5.212   5.273 -3.4767  0.0289 -0.9122
  175DOPC  H18Z21450   2.918   5.357   5.315  1.7467 -1.4350 -1.3434
  176DOPC     N21451   3.278   2.178   2.696  0.1933  0.1101 -0.1364
  176DOPC   C1221452   3.128   2.217   2.726 -0.0887  0.6047  0.4336
  176DOPC  H12A21453   3.079   2.147   2.792  1.6848  0.6313  1.8429
  176DOPC  H12B21454   3.086   2.214   2.627  3.1757  0.2876 -1.0534
  176DOPC   C1321455   3.341   2.263   2.584 -0.4236  0.4138  0.1559
  176DOPC  H13A21456   3.291   2.248   2.489 -1.2415 -1.4948  0.8309
  176DOPC  H13B21457   3.346   2.369   2.606  0.1578  0.3232  0.4901
  176DOPC  H13C21458   3.445   2.238   2.570  0.7117  4.4703  0.2304
  176DOPC   C1421459   3.299   2.034   2.668 -0.0695  0.6074 -0.1305
  176DOPC  H14A21460   3.270   2.001   2.570 -1.4475  4.1280 -1.0437
  176DOPC  H14B21461   3.405   2.013   2.671 -0.0830  0.0286 -2.2282
  176DOPC  H14C21462   3.253   1.977   2.748  0.6291  0.3357  0.0834
  176DOPC   C1521463   3.352   2.207   2.817 -0.0596 -0.4411 -0.8551
  176DOPC  H15A21464   3.456   2.217   2.791 -0.0396  0.1690 -0.5707
  176DOPC  H15B21465   3.348   2.133   2.895  2.9821  0.5348  0.3636
  176DOPC  H15C21466   3.319   2.300   2.862 -0.1465 -1.0633  0.4032
  176DOPC   C1121467   3.088   2.364   2.774  0.0134 -0.2142 -0.4885
  176DOPC  H11A21468   3.148   2.446   2.727 -0.8293  1.3371  1.0562
  176DOPC  H11B21469   2.984   2.379   2.739  0.8746  0.5504 -2.9841
  176DOPC     P21470   2.988   2.343   3.006  0.1674  0.0626 -0.0369
  176DOPC   O1321471   2.941   2.209   2.954 -0.2457 -0.2286  0.4109
  176DOPC   O1421472   2.890   2.456   3.022 -0.4533  0.0202 -0.3285
  176DOPC   O1221473   3.106   2.388   2.911 -0.1255  0.2499 -0.4124
  176DOPC   O1121474   3.060   2.332   3.150  0.2971 -0.0995 -0.3814
  176DOPC    C121475   3.098   2.208   3.204  0.0175  0.1256  0.2910
  176DOPC    HA21476   3.181   2.223   3.275 -0.0413  0.2909  0.3259
  176DOPC    HB21477   3.148   2.154   3.121  0.8518  2.1088 -0.5565
  176DOPC    C221478   2.978   2.127   3.264  0.2787  0.2021 -0.2673
  176DOPC    HS21479   2.896   2.115   3.189 -1.0100 -1.1520  1.2842
  176DOPC   O2121480   2.939   2.196   3.388  0.0340 -0.1918  1.1781
  176DOPC   C2121481   2.811   2.175   3.422  0.5292  0.0254 -0.0005
  176DOPC   O2221482   2.721   2.135   3.351 -0.0023 -0.0053 -0.3989
  176DOPC   C2221483   2.792   2.239   3.560 -0.1331  0.7792 -0.2430
  176DOPC   H2R21484   2.767   2.346   3.541  0.7933  0.8399 -1.2542
  176DOPC   H2S21485   2.892   2.229   3.608 -0.1415 -0.6993 -0.4939
  176DOPC    C321486   3.007   1.977   3.301 -0.4621 -0.5372  0.3906
  176DOPC    HX21487   3.064   1.934   3.216 -0.9408 -0.2739 -0.0714
  176DOPC    HY21488   2.906   1.933   3.315 -0.1963 -1.3702 -0.2018
  176DOPC   O3121489   3.100   1.967   3.411  0.8428  0.6597 -0.0997
  176DOPC   C3121490   3.040   1.940   3.527  0.1364 -0.0792  0.2787
  176DOPC   O3221491   2.923   1.919   3.542  0.2884 -0.3819 -0.2144
  176DOPC   C3221492   3.148   1.948   3.635  0.5026 -0.7455 -0.3781
  176DOPC   H2X21493   3.251   1.958   3.595 -0.0014 -0.2757 -1.5950
  176DOPC   H2Y21494   3.121   2.037   3.696  1.2900 -1.6822  1.4322
  176DOPC   C2321495   2.684   2.163   3.630  0.7166  0.9915 -1.3439
  176DOPC   H3R21496   2.714   2.056   3.630 -0.3078  0.6333  1.3213
  176DOPC   H3S21497   2.580   2.162   3.591  0.0004 -0.6993  0.4906
  176DOPC   C2421498   2.668   2.194   3.781  0.2312 -0.2274 -0.2196
  176DOPC   H4R21499   2.753   2.167   3.847 -0.7087 -0.2177  1.0418
  176DOPC   H4S21500   2.569   2.151   3.811 -0.1492  2.0930  2.2142
  176DOPC   C2521501   2.630   2.339   3.796  0.1999  0.8246 -0.3758
  176DOPC   H5R21502   2.555   2.366   3.718 -0.0621 -2.8322 -1.6099
  176DOPC   H5S21503   2.724   2.398   3.782  0.3183  0.2908 -2.0607
  176DOPC   C2621504   2.574   2.379   3.933 -0.2773 -1.1186  0.3560
  176DOPC   H6R21505   2.659   2.345   3.996  1.6999  0.9014 -1.0749
  176DOPC   H6S21506   2.479   2.330   3.964 -0.7221 -0.0062  0.8307
  176DOPC   C2721507   2.566   2.529   3.975 -0.6222  0.1106  0.1799
  176DOPC   H7R21508   2.482   2.572   3.916 -2.3757 -3.4123 -0.1555
  176DOPC   H7S21509   2.664   2.580   3.959 -1.4320  1.0839 -2.3449
  176DOPC   C2821510   2.529   2.552   4.119  0.4624  0.0090  0.3235
  176DOPC   H8R21511   2.603   2.492   4.176  1.7174 -1.0633 -2.2527
  176DOPC   H8S21512   2.432   2.501   4.136  1.4292 -1.4758  1.5868
  176DOPC   C2921513   2.510   2.698   4.151  0.2658  0.6367 -0.1922
  176DOPC   H9R21514   2.435   2.743   4.083 -1.7505 -1.0829  0.7762
  176DOPC  C21021515   2.592   2.770   4.234 -0.2568 -0.4335  0.2984
  176DOPC  H10R21516   2.588   2.879   4.230 -0.3440 -0.4570 -0.6184
  176DOPC  C21121517   2.713   2.717   4.303  0.5386  0.1322 -0.2405
  176DOPC  H11R21518   2.790   2.697   4.224  0.5454  0.0322 -0.2080
  176DOPC  H11S21519   2.694   2.617   4.345  3.2203  0.5602  2.3367
  176DOPC  C21221520   2.784   2.801   4.405 -0.7495 -0.2525 -0.0497
  176DOPC  H12R21521   2.789   2.907   4.371  0.8006 -0.2974 -0.0484
  176DOPC  H12S21522   2.891   2.771   4.407 -0.2095  1.1295 -2.6345
  176DOPC  C21321523   2.728   2.784   4.547  0.4411  0.9150  0.2697
  176DOPC  H13R21524   2.618   2.774   4.549  0.6464 -1.8070  1.4304
  176DOPC  H13S21525   2.743   2.872   4.613 -3.4946  1.3558  0.8133
  176DOPC  C21421526   2.795   2.668   4.620  0.4716 -0.2103  0.5412
  176DOPC  H14R21527   2.894   2.656   4.571  0.4369 -0.0150  0.4230
  176DOPC  H14S21528   2.740   2.574   4.598  1.7532 -0.8228 -0.1746
  176DOPC  C21521529   2.809   2.691   4.776  0.2663  0.3772  0.7077
  176DOPC  H15R21530   2.881   2.775   4.791  2.1156 -0.6260 -1.7266
  176DOPC  H15S21531   2.849   2.602   4.828 -0.0470  0.6781  1.4773
  176DOPC  C21621532   2.682   2.727   4.846  0.3330  0.1665 -0.9343
  176DOPC  H16R21533   2.619   2.636   4.835  2.4213 -1.6656  1.1429
  176DOPC  H16S21534   2.626   2.813   4.804  0.0413  0.8846  0.8228
  176DOPC  C21721535   2.713   2.754   4.996  0.0228  0.2694 -0.1244
  176DOPC  H17R21536   2.622   2.770   5.057  0.1267  1.1522 -0.1862
  176DOPC  H17S21537   2.780   2.843   4.998  1.6704 -0.9292  0.4313
  176DOPC  C21821538   2.783   2.640   5.068  0.3115 -0.6325  0.2288
  176DOPC  H18R21539   2.893   2.643   5.048  0.0775  0.8551 -0.9624
  176DOPC  H18S21540   2.739   2.542   5.038 -0.2589 -0.0803 -0.7732
  176DOPC  H18T21541   2.767   2.654   5.177  2.2479 -2.8865  0.9117
  176DOPC   C3321542   3.153   1.833   3.745  0.2629 -0.7499  0.7711
  176DOPC   H3X21543   3.206   1.746   3.701  1.9541 -0.5645  2.3314
  176DOPC   H3Y21544   3.046   1.814   3.765 -0.4998 -2.9723 -4.0267
  176DOPC   C3421545   3.231   1.865   3.871 -0.2741  0.9145 -0.6273
  176DOPC   H4X21546   3.312   1.934   3.840  1.0121 -0.3180 -0.1332
  176DOPC   H4Y21547   3.279   1.778   3.920  1.3047 -0.3624 -4.0752
  176DOPC   C3521548   3.154   1.918   3.992 -0.1739 -0.3768  0.2554
  176DOPC   H5X21549   3.067   1.853   4.013 -1.1174  0.9740  0.6683
  176DOPC   H5Y21550   3.117   2.020   3.966 -0.2639 -0.7670 -1.2182
  176DOPC   C3621551   3.241   1.915   4.127  0.2304  0.6658 -0.0928
  176DOPC   H6X21552   3.310   1.830   4.143  0.8432  1.2315  0.3504
  176DOPC   H6Y21553   3.303   2.007   4.122  2.7925 -1.0362 -2.7873
  176DOPC   C3721554   3.156   1.921   4.252 -0.1547 -0.4420 -0.0300
  176DOPC   H7X21555   3.195   1.998   4.322 -0.4073 -0.2074 -0.1485
  176DOPC   H7Y21556   3.053   1.947   4.220 -0.3513 -1.6177 -0.4052
  176DOPC   C3821557   3.159   1.783   4.315  0.4030 -0.8812 -0.3713
  176DOPC   H8X21558   3.261   1.746   4.339  0.0642 -1.3864  0.3169
  176DOPC   H8Y21559   3.127   1.707   4.240  1.3054 -0.9283 -0.7289
  176DOPC   C3921560   3.067   1.779   4.432 -0.1574  0.1060 -0.2520
  176DOPC   H9X21561   3.102   1.834   4.521 -0.6246  2.1424 -1.2545
  176DOPC  C31021562   2.953   1.706   4.451 -0.4061  0.0464  0.3453
  176DOPC  H10X21563   2.904   1.699   4.549  0.2725  2.2351  0.8887
  176DOPC  C31121564   2.884   1.615   4.357  0.0056 -0.3180  0.1915
  176DOPC  H11X21565   2.947   1.611   4.265  2.4976  1.3353  1.7082
  176DOPC  H11Y21566   2.792   1.660   4.314 -0.2569  0.7042  1.7632
  176DOPC  C31221567   2.860   1.474   4.405  0.1173  0.0095 -0.2318
  176DOPC  H12X21568   2.949   1.439   4.461 -0.3174  1.4142  1.4004
  176DOPC  H12Y21569   2.841   1.414   4.313  1.3246 -0.3811 -0.2407
  176DOPC  C31321570   2.734   1.452   4.493 -0.1824  1.0388  0.0121
  176DOPC  H13X21571   2.672   1.544   4.499 -0.7878  0.5749  1.0753
  176DOPC  H13Y21572   2.677   1.364   4.456  1.0593  0.0766  0.3240
  176DOPC  C31421573   2.767   1.399   4.633 -0.4684 -0.6686  0.2024
  176DOPC  H14X21574   2.815   1.299   4.620  0.6525 -0.1125 -0.0226
  176DOPC  H14Y21575   2.849   1.453   4.683  0.4018 -4.2232  3.0770
  176DOPC  C31521576   2.642   1.400   4.715  0.0217  0.3508  0.5235
  176DOPC  H15X21577   2.562   1.346   4.661  1.1955 -0.7983 -0.1228
  176DOPC  H15Y21578   2.595   1.501   4.722 -0.1020  0.3294  0.0325
  176DOPC  C31621579   2.669   1.341   4.852  0.5481  0.3607  0.0643
  176DOPC  H16X21580   2.683   1.231   4.842 -3.3123 -0.6704  3.3779
  176DOPC  H16Y21581   2.768   1.376   4.889  0.7864 -0.0725 -0.1546
  176DOPC  C31721582   2.558   1.356   4.956 -0.0542  0.2414  0.1697
  176DOPC  H17X21583   2.536   1.464   4.973 -1.0710  0.0751 -0.0844
  176DOPC  H17Y21584   2.465   1.303   4.927 -0.4782  0.0260  1.8277
  176DOPC  C31821585   2.607   1.311   5.093  0.3238  0.1124 -0.1089
  176DOPC  H18X21586   2.649   1.208   5.100 -1.3608 -0.4994  2.3782
  176DOPC  H18Y21587   2.687   1.376   5.133  0.8234 -0.8735  0.5429
  176DOPC  H18Z21588   2.518   1.322   5.158  0.0730 -2.5340  0.1081
  177DOPC     N21589   3.987   6.510   3.048 -0.1907 -0.5612  0.7741
  177DOPC   C1221590   4.131   6.481   3.005  0.1240 -1.0605 -0.0219
  177DOPC  H12A21591   4.167   6.572   2.959  2.8083 -1.6955  0.7042
  177DOPC  H12B21592   4.114   6.399   2.937 -3.2473 -0.9555  0.5021
  177DOPC   C1321593   3.915   6.388   3.102  0.4691 -0.3846 -0.1034
  177DOPC  H13A21594   3.990   6.337   3.162  0.5157 -0.3259 -0.1112
  177DOPC  H13B21595   3.823   6.418   3.149  0.2574  2.0055 -1.8415
  177DOPC  H13C21596   3.891   6.324   3.019 -0.4902  2.5789 -2.2863
  177DOPC   C1421597   3.904   6.550   2.934 -0.1908 -0.0387 -0.2543
  177DOPC  H14A21598   3.800   6.566   2.960 -0.4367 -2.3491  0.4748
  177DOPC  H14B21599   3.940   6.644   2.896 -1.4190  0.6280  0.1657
  177DOPC  H14C21600   3.913   6.468   2.865  1.3881  0.5399 -0.7844
  177DOPC   C1521601   3.980   6.621   3.151 -0.1911  0.0747  0.5443
  177DOPC  H15A21602   4.027   6.591   3.244 -0.5369 -0.1658  0.6414
  177DOPC  H15B21603   3.875   6.641   3.166 -0.1892  0.8981 -0.4281
  177DOPC  H15C21604   4.022   6.717   3.123 -0.8406  1.3474  3.5693
  177DOPC   C1121605   4.239   6.433   3.108 -0.0096 -0.1793  0.2990
  177DOPC  H11A21606   4.329   6.426   3.043 -0.6362 -2.9812 -0.4066
  177DOPC  H11B21607   4.253   6.505   3.191 -1.0238  2.6869 -1.8692
  177DOPC     P21608   4.247   6.171   3.112 -0.2733 -0.2071 -0.1647
  177DOPC   O1321609   4.384   6.191   3.060  0.1308 -0.3451  0.0538
  177DOPC   O1421610   4.149   6.102   3.029  0.0443 -0.0332 -0.2029
  177DOPC   O1221611   4.198   6.311   3.163 -0.3719 -0.6825  0.1995
  177DOPC   O1121612   4.254   6.092   3.245  0.0283  0.2165 -0.2748
  177DOPC    C121613   4.266   6.154   3.376  0.9108  0.2067 -0.1581
  177DOPC    HA21614   4.194   6.099   3.440 -0.8276  0.3686 -1.8854
  177DOPC    HB21615   4.229   6.258   3.385  0.8905  0.0726  1.9571
  177DOPC    C221616   4.402   6.127   3.452  0.1205  0.2513  0.3691
  177DOPC    HS21617   4.386   6.123   3.562 -0.1872 -0.9850  0.3030
  177DOPC   O2121618   4.508   6.221   3.428 -0.2729 -0.3878 -0.0752
  177DOPC   C2121619   4.483   6.350   3.453  0.1438 -0.0911 -0.2451
  177DOPC   O2221620   4.384   6.396   3.511  0.7086  0.5947  0.5452
  177DOPC   C2221621   4.600   6.432   3.398  0.2634 -0.2091  0.2506
  177DOPC   H2R21622   4.545   6.487   3.319 -0.3736 -2.0054 -0.5969
  177DOPC   H2S21623   4.670   6.369   3.340 -0.3212 -1.2048  0.6023
  177DOPC    C321624   4.472   5.988   3.402  0.3605 -0.5132 -0.0663
  177DOPC    HX21625   4.481   5.989   3.291 -2.2812  1.7694 -0.3831
  177DOPC    HY21626   4.394   5.912   3.424 -1.2718  1.5519  1.6753
  177DOPC   O3121627   4.590   5.963   3.487 -0.3924  0.1017  0.2168
  177DOPC   C3121628   4.705   5.989   3.436 -0.3222  0.6634  0.2302
  177DOPC   O3221629   4.730   6.039   3.329  0.9078  0.2524  0.0197
  177DOPC   C3221630   4.803   5.954   3.542  0.2968 -0.0532  0.6034
  177DOPC   H2X21631   4.802   5.843   3.546  1.5979 -0.2109 -1.5971
  177DOPC   H2Y21632   4.907   5.967   3.505  0.8627 -0.4199  2.0121
  177DOPC   C2321633   4.664   6.519   3.504  0.5168 -0.9003  0.0336
  177DOPC   H3R21634   4.582   6.579   3.549  0.9221 -1.8314  2.1353
  177DOPC   H3S21635   4.742   6.583   3.458  2.2454 -2.1244  1.1591
  177DOPC   C2421636   4.717   6.444   3.636  0.1590  0.0807  0.1622
  177DOPC   H4R21637   4.820   6.473   3.667 -0.5018  1.0444  1.5388
  177DOPC   H4S21638   4.717   6.334   3.619 -0.1731 -0.0938  1.2046
  177DOPC   C2521639   4.623   6.463   3.756  0.0558 -0.7004 -0.2910
  177DOPC   H5R21640   4.517   6.444   3.729 -0.0986  1.6224 -1.5984
  177DOPC   H5S21641   4.617   6.570   3.787  0.2016  0.1990 -3.0840
  177DOPC   C2621642   4.660   6.368   3.875  0.1257  0.2375  0.0072
  177DOPC   H6R21643   4.768   6.347   3.892  0.0462  0.0139  0.2462
  177DOPC   H6S21644   4.617   6.266   3.868 -1.8454  0.8973  1.5568
  177DOPC   C2721645   4.609   6.424   4.015  0.3885 -0.4358  0.8220
  177DOPC   H7R21646   4.499   6.440   4.011  0.3598 -0.2054  2.1171
  177DOPC   H7S21647   4.661   6.519   4.039  0.6804 -0.1474 -0.8435
  177DOPC   C2821648   4.643   6.334   4.136 -0.6067 -0.0767 -0.3196
  177DOPC   H8R21649   4.753   6.335   4.152 -0.6195  2.2559  0.0317
  177DOPC   H8S21650   4.613   6.230   4.112 -0.0967 -0.2177 -0.3469
  177DOPC   C2921651   4.560   6.383   4.253 -0.0502 -0.2426  0.0730
  177DOPC   H9R21652   4.549   6.492   4.267  0.0934 -0.3353  0.9839
  177DOPC  C21021653   4.506   6.310   4.346 -0.5863 -0.0439  0.2242
  177DOPC  H10R21654   4.455   6.357   4.431  0.9931 -1.4303  2.0134
  177DOPC  C21121655   4.510   6.166   4.362  0.5609 -0.2038  0.1980
  177DOPC  H11R21656   4.607   6.126   4.325  1.7309  1.9067  0.7718
  177DOPC  H11S21657   4.432   6.100   4.318  1.4475 -0.3622 -1.1972
  177DOPC  C21221658   4.507   6.134   4.511  0.8309  0.3272 -0.0520
  177DOPC  H12R21659   4.501   6.023   4.506  1.1407  0.3223 -0.3400
  177DOPC  H12S21660   4.405   6.162   4.545  1.0126  0.4167  0.4411
  177DOPC  C21321661   4.623   6.189   4.595 -0.0022 -0.3104  0.0413
  177DOPC  H13R21662   4.612   6.299   4.602  0.7926 -0.1874 -0.4632
  177DOPC  H13S21663   4.721   6.170   4.546  1.1459  1.0255  1.7444
  177DOPC  C21421664   4.623   6.137   4.738 -0.4916 -0.5721 -0.1700
  177DOPC  H14R21665   4.654   6.030   4.737 -1.8072 -1.0211 -3.1697
  177DOPC  H14S21666   4.520   6.153   4.776 -0.4806 -0.3757 -0.2221
  177DOPC  C21521667   4.730   6.208   4.816  0.5512  0.4813 -0.0221
  177DOPC  H15R21668   4.732   6.315   4.788 -0.8211  0.6122  0.3067
  177DOPC  H15S21669   4.830   6.164   4.797  0.9436  1.0607  0.6345
  177DOPC  C21621670   4.704   6.215   4.973  0.9191  0.2933  0.9346
  177DOPC  H16R21671   4.750   6.123   5.015  1.2807  0.3962  0.7758
  177DOPC  H16S21672   4.597   6.210   5.000  0.2215  1.3614 -1.4076
  177DOPC  C21721673   4.759   6.349   5.035  0.0334 -0.1677  0.6303
  177DOPC  H17R21674   4.723   6.350   5.140  0.1163  4.4053  0.8221
  177DOPC  H17S21675   4.712   6.435   4.983  1.6006  0.4769  0.2573
  177DOPC  C21821676   4.913   6.357   5.020 -0.0832  0.8299 -0.1740
  177DOPC  H18R21677   4.953   6.460   5.028 -0.2399  0.8435  0.5263
  177DOPC  H18S21678   4.946   6.319   4.921  2.1485 -1.3032  1.2624
  177DOPC  H18T21679   4.962   6.303   5.104 -0.2941  1.1239  0.1400
  177DOPC   C3321680   4.796   6.036   3.668 -0.7460 -0.0692 -0.1102
  177DOPC   H3X21681   4.691   6.039   3.704 -0.3225 -0.5046  1.2068
  177DOPC   H3Y21682   4.838   6.138   3.659  1.4437 -0.7613  1.2589
  177DOPC   C3421683   4.871   5.965   3.783 -0.0801 -0.1578 -0.0504
  177DOPC   H4X21684   4.973   5.951   3.743 -0.1552 -0.2046 -0.2257
  177DOPC   H4Y21685   4.838   5.861   3.801 -3.1207  0.3698 -1.8345
  177DOPC   C3521686   4.872   6.045   3.919  0.0787  0.4519  0.1820
  177DOPC   H5X21687   4.772   6.042   3.968  0.7789 -0.3147  1.6213
  177DOPC   H5Y21688   4.897   6.149   3.890  0.7073  0.2779  0.0933
  177DOPC   C3621689   4.964   5.983   4.023 -0.9339  0.0840 -0.3338
  177DOPC   H6X21690   4.912   5.902   4.079 -1.3123 -0.0995 -0.9446
  177DOPC   H6Y21691   5.042   5.941   3.957 -0.7533 -1.0476  0.5740
  177DOPC   C3721692   5.027   6.078   4.119 -0.4747 -0.0562 -0.9170
  177DOPC   H7X21693   5.131   6.059   4.152 -0.4969  0.5255 -0.5027
  177DOPC   H7Y21694   5.015   6.180   4.077  0.2216  0.8933  1.0614
  177DOPC   C3821695   4.944   6.069   4.250 -0.6667 -0.0040 -0.4304
  177DOPC   H8X21696   4.971   5.971   4.296  0.2205  0.5330  0.2092
  177DOPC   H8Y21697   4.835   6.075   4.230 -0.8070 -0.8367  0.0160
  177DOPC   C3921698   4.960   6.180   4.355  0.3498  0.1438  1.1992
  177DOPC   H9X21699   4.920   6.277   4.325 -0.4138 -0.3023  0.7331
  177DOPC  C31021700   5.001   6.165   4.484 -0.7909  0.1574 -0.1981
  177DOPC  H10X21701   4.988   6.248   4.554  1.0412  0.2723  0.0369
  177DOPC  C31121702   5.052   6.040   4.551  0.2434 -0.8876 -0.0294
  177DOPC  H11X21703   5.033   5.938   4.511  0.6130 -0.8143 -0.3940
  177DOPC  H11Y21704   5.002   6.037   4.650  2.3136 -3.1124  1.0399
  177DOPC  C31221705   5.215   6.044   4.578  0.1116 -0.0033 -0.0820
  177DOPC  H12X21706   5.265   6.030   4.479 -1.4031  1.0134 -1.0279
  177DOPC  H12Y21707   5.242   5.962   4.649  0.5082 -1.5164 -1.8877
  177DOPC  C31321708   5.274   6.172   4.644  0.3232 -0.9208 -0.7023
  177DOPC  H13X21709   5.249   6.266   4.590  1.4263  0.0855  0.4782
  177DOPC  H13Y21710   5.229   6.190   4.743  2.8903  0.2530  0.3470
  177DOPC  C31421711   5.423   6.144   4.655  0.5757 -0.3988  0.3272
  177DOPC  H14X21712   5.445   6.044   4.696  2.9960 -0.0183  0.0631
  177DOPC  H14Y21713   5.449   6.138   4.547 -0.9960  1.8882 -0.2716
  177DOPC  C31521714   5.512   6.257   4.715 -0.0622  0.0278  0.2198
  177DOPC  H15X21715   5.514   6.265   4.826  4.0990 -0.4782  0.3378
  177DOPC  H15Y21716   5.470   6.352   4.677  0.3518  0.1202 -0.0166
  177DOPC  C31621717   5.660   6.233   4.677  0.3092 -0.4433  0.8679
  177DOPC  H16X21718   5.690   6.127   4.696 -0.1048 -0.8884 -0.8299
  177DOPC  H16Y21719   5.671   6.246   4.567  0.6064 -3.2121  0.4849
  177DOPC  C31721720   5.751   6.335   4.752 -0.2420  0.1386 -0.1676
  177DOPC  H17X21721   5.724   6.442   4.743  0.2328  0.6824  3.4080
  177DOPC  H17Y21722   5.739   6.297   4.855  0.4283  0.3996  0.0113
  177DOPC  C31821723   5.893   6.304   4.710  0.3008 -0.0142 -0.2794
  177DOPC  H18X21724   5.903   6.194   4.704  0.4270  0.0574 -1.9823
  177DOPC  H18Y21725   5.927   6.333   4.608  0.2687  0.6709 -0.0980
  177DOPC  H18Z21726   5.961   6.345   4.788  0.5050  0.5552 -0.7418
  178DOPC     N21727   1.844   5.309   2.933  0.2462 -0.0040  0.1845
  178DOPC   C1221728   1.976   5.371   2.881 -0.8223  0.0434  0.0236
  178DOPC  H12A21729   1.953   5.384   2.777  0.1245 -1.6543 -0.4409
  178DOPC  H12B21730   2.053   5.296   2.893  0.4121  1.3275  0.4388
  178DOPC   C1321731   1.839   5.165   2.884 -0.0813  0.1956 -0.5473
  178DOPC  H13A21732   1.917   5.111   2.934 -1.2223 -0.3721  0.6611
  178DOPC  H13B21733   1.743   5.123   2.909 -0.3586 -0.2656 -2.2432
  178DOPC  H13C21734   1.851   5.162   2.776 -2.1233 -1.3094 -0.7927
  178DOPC   C1421735   1.726   5.387   2.893  0.4483  0.1991  0.0546
  178DOPC  H14A21736   1.725   5.488   2.931  0.2958 -0.0737  0.7720
  178DOPC  H14B21737   1.700   5.387   2.788  0.3202 -1.6686  0.0518
  178DOPC  H14C21738   1.642   5.336   2.936 -0.1177  0.2633 -0.9376
  178DOPC   C1521739   1.835   5.314   3.085  0.1109 -0.5027 -0.1379
  178DOPC  H15A21740   1.742   5.279   3.128  0.1670 -1.8540 -1.0688
  178DOPC  H15B21741   1.834   5.417   3.120 -4.7070 -0.4796  0.3653
  178DOPC  H15C21742   1.918   5.253   3.117 -0.8396 -1.8507 -0.1516
  178DOPC   C1121743   2.032   5.499   2.960 -0.0225 -0.1530 -0.5490
  178DOPC  H11A21744   2.108   5.552   2.899 -1.9150  2.0110 -1.1805
  178DOPC  H11B21745   1.951   5.575   2.971  0.5808  0.1834  2.2185
  178DOPC     P21746   2.231   5.433   3.134  0.1051 -0.2304  0.1068
  178DOPC   O1321747   2.330   5.524   3.072  0.2308 -0.6274  0.0950
  178DOPC   O1421748   2.249   5.285   3.131  0.4756 -0.2328 -0.1130
  178DOPC   O1221749   2.082   5.472   3.091 -0.5222 -0.6047  0.4257
  178DOPC   O1121750   2.224   5.472   3.286  0.5770 -0.2427  0.2722
  178DOPC    C121751   2.170   5.598   3.327 -0.3370  0.3131 -0.5004
  178DOPC    HA21752   2.066   5.589   3.364 -0.2327 -3.0964 -0.8003
  178DOPC    HB21753   2.159   5.672   3.244 -0.4950 -0.7734 -1.4691
  178DOPC    C221754   2.264   5.658   3.429  0.5504 -0.2844  0.1795
  178DOPC    HS21755   2.361   5.650   3.374 -0.5862  0.4699 -2.0496
  178DOPC   O2121756   2.261   5.603   3.560 -0.4684 -0.1624  0.8722
  178DOPC   C2121757   2.308   5.479   3.576  0.3680 -0.3069 -0.5181
  178DOPC   O2221758   2.379   5.421   3.497  0.2878  0.0411 -0.0506
  178DOPC   C2221759   2.257   5.421   3.713 -0.1172 -0.1391 -0.7235
  178DOPC   H2R21760   2.294   5.318   3.733 -0.6559 -0.4092 -1.0908
  178DOPC   H2S21761   2.146   5.409   3.714 -0.0619 -1.1112  2.0438
  178DOPC    C321762   2.233   5.810   3.446  0.5814  0.0924 -0.1195
  178DOPC    HX21763   2.208   5.851   3.346  0.2227 -1.0056 -0.4983
  178DOPC    HY21764   2.322   5.848   3.500 -0.1395 -0.4302  1.5061
  178DOPC   O3121765   2.122   5.828   3.538  0.7731 -0.3713 -0.0182
  178DOPC   C3121766   2.092   5.956   3.567 -0.1703 -0.5789 -0.1414
  178DOPC   O3221767   2.134   6.053   3.510 -0.8199 -0.2386 -0.5528
  178DOPC   C3221768   2.000   5.958   3.688  0.1736 -0.4725 -0.3567
  178DOPC   H2X21769   1.895   5.939   3.656  0.3813 -1.5413 -0.4244
  178DOPC   H2Y21770   2.029   5.875   3.755 -0.6901 -0.9725 -0.5916
  178DOPC   C2321771   2.311   5.509   3.823  0.0725  0.1095 -0.1054
  178DOPC   H3R21772   2.275   5.612   3.804 -1.3687 -0.1597  1.0075
  178DOPC   H3S21773   2.420   5.510   3.799 -0.4581  1.6885 -3.0349
  178DOPC   C2421774   2.272   5.463   3.961  0.1810 -0.0091  0.0487
  178DOPC   H4R21775   2.303   5.358   3.979 -0.6883 -0.0896  1.2241
  178DOPC   H4S21776   2.162   5.458   3.979  0.1930 -1.7901 -0.1809
  178DOPC   C2521777   2.335   5.555   4.075  0.6585 -0.2573  0.3724
  178DOPC   H5R21778   2.286   5.651   4.049  1.5206 -0.6861 -3.4763
  178DOPC   H5S21779   2.446   5.564   4.076  0.6960 -0.1629 -1.7104
  178DOPC   C2621780   2.280   5.510   4.205  0.2265  0.9595  0.2770
  178DOPC   H6R21781   2.289   5.402   4.230 -1.1168  0.1477 -2.4481
  178DOPC   H6S21782   2.172   5.534   4.204 -0.4284 -1.6331 -1.5735
  178DOPC   C2721783   2.347   5.590   4.316  0.9227  0.2652  0.0613
  178DOPC   H7R21784   2.301   5.691   4.314 -0.8954 -0.5330 -0.3512
  178DOPC   H7S21785   2.458   5.599   4.307  0.9899  0.3427  0.8580
  178DOPC   C2821786   2.327   5.549   4.462  0.2638  1.4216  0.7300
  178DOPC   H8R21787   2.375   5.449   4.470  0.3208  1.3746 -0.0901
  178DOPC   H8S21788   2.222   5.519   4.482  0.7771 -1.9466 -0.8978
  178DOPC   C2921789   2.383   5.643   4.574 -0.9493  0.1087 -0.3037
  178DOPC   H9R21790   2.387   5.753   4.562  2.0634  0.2614  1.1974
  178DOPC  C21021791   2.430   5.602   4.690 -0.4468 -0.0713 -0.7244
  178DOPC  H10R21792   2.481   5.675   4.756 -1.4923 -0.4460  0.5264
  178DOPC  C21121793   2.438   5.462   4.746 -0.0800  0.0243  0.9964
  178DOPC  H11R21794   2.543   5.425   4.749 -0.4843 -1.2899  0.0723
  178DOPC  H11S21795   2.395   5.382   4.683  0.8230 -0.9711  1.5996
  178DOPC  C21221796   2.379   5.438   4.887 -0.7384 -0.2221  0.4539
  178DOPC  H12R21797   2.388   5.331   4.917  0.3541  0.1769  1.6300
  178DOPC  H12S21798   2.273   5.470   4.883 -0.7877 -0.5075 -1.4392
  178DOPC  C21321799   2.449   5.508   4.997  0.3535 -0.0335  0.2500
  178DOPC  H13R21800   2.446   5.616   4.971 -0.8912  0.1417  1.0343
  178DOPC  H13S21801   2.557   5.483   5.009  0.6163  1.2362  0.7331
  178DOPC  C21421802   2.381   5.505   5.131  0.4070  0.3405 -0.2921
  178DOPC  H14R21803   2.442   5.559   5.207  0.6468 -0.2005 -0.0984
  178DOPC  H14S21804   2.366   5.398   5.155 -0.3927  0.2675 -1.0425
  178DOPC  C21521805   2.246   5.586   5.141 -0.3295 -0.2440  0.5176
  178DOPC  H15R21806   2.181   5.543   5.062 -0.6929  1.2045  0.0107
  178DOPC  H15S21807   2.265   5.693   5.121  1.0761 -0.1743  1.9960
  178DOPC  C21621808   2.181   5.566   5.277 -0.4809 -0.0983  0.5245
  178DOPC  H16R21809   2.250   5.609   5.353  1.3605  0.0677 -1.1798
  178DOPC  H16S21810   2.168   5.456   5.289  1.7280 -0.4697 -0.0952
  178DOPC  C21721811   2.059   5.648   5.298  0.5186  0.3405  0.2464
  178DOPC  H17R21812   2.080   5.757   5.300  0.3715  0.5643 -3.7419
  178DOPC  H17S21813   2.005   5.620   5.391 -0.4421 -0.4509 -0.5330
  178DOPC  C21821814   1.953   5.640   5.181 -0.3066  0.1632  0.3031
  178DOPC  H18R21815   1.928   5.533   5.166 -0.1986  0.3436 -1.2731
  178DOPC  H18S21816   2.008   5.684   5.095  0.9875 -0.5993  0.7073
  178DOPC  H18T21817   1.868   5.696   5.225  0.1785 -0.4627  2.1258
  178DOPC   C3321818   2.030   6.084   3.771  0.2410  0.7935 -0.5047
  178DOPC   H3X21819   2.031   6.176   3.708  1.3468  1.4485  0.4450
  178DOPC   H3Y21820   2.134   6.090   3.810  0.0858  0.8425 -0.0977
  178DOPC   C3421821   1.941   6.112   3.888 -0.3584 -0.6219  0.0618
  178DOPC   H4X21822   1.836   6.115   3.852  0.5094 -1.4281 -2.7445
  178DOPC   H4Y21823   1.967   6.213   3.925 -1.4462 -0.0172 -0.7871
  178DOPC   C3521824   1.966   6.016   3.994  0.0703  0.3047  0.6030
  178DOPC   H5X21825   2.075   6.005   4.014  0.0570  0.0980  0.5607
  178DOPC   H5Y21826   1.933   5.915   3.961 -1.1952  0.9163 -0.0522
  178DOPC   C3621827   1.902   6.051   4.127  0.6206 -0.1652 -0.7148
  178DOPC   H6X21828   1.920   6.159   4.147  1.0323 -0.6126  1.6138
  178DOPC   H6Y21829   1.793   6.039   4.108  0.5239 -0.7914  0.2188
  178DOPC   C3721830   1.958   5.974   4.248 -0.3416  0.1678  0.5711
  178DOPC   H7X21831   1.953   5.867   4.217 -0.4354  0.3943 -0.2032
  178DOPC   H7Y21832   2.060   6.017   4.257 -0.0448 -0.5622  0.8400
  178DOPC   C3821833   1.862   6.008   4.371 -0.3965  0.3670 -0.6514
  178DOPC   H8X21834   1.762   6.009   4.321 -0.2708 -1.1649 -0.9772
  178DOPC   H8Y21835   1.880   6.114   4.399  0.9348  0.6810 -2.4980
  178DOPC   C3921836   1.859   5.901   4.478 -0.1150 -0.3427 -0.9427
  178DOPC   H9X21837   1.776   5.829   4.473  0.3913 -0.8583 -2.6597
  178DOPC  C31021838   1.943   5.890   4.584  0.3930  0.2078 -0.0831
  178DOPC  H10X21839   1.927   5.797   4.641  1.2993 -0.7965 -1.4115
  178DOPC  C31121840   2.061   5.977   4.625  0.2569  0.1596  0.8055
  178DOPC  H11X21841   2.042   6.083   4.599  0.6317 -0.1555 -0.9315
  178DOPC  H11Y21842   2.156   5.940   4.581  1.6701  1.3645  2.7145
  178DOPC  C31221843   2.091   5.963   4.770 -0.3120 -0.8093 -1.0355
  178DOPC  H12X21844   2.097   5.854   4.787  0.1759 -0.5714  0.4609
  178DOPC  H12Y21845   2.013   6.006   4.838 -0.4355 -1.2693 -0.8829
  178DOPC  C31321846   2.228   6.030   4.814  1.0110 -0.2591  0.4695
  178DOPC  H13X21847   2.302   6.005   4.736 -0.1993 -0.0262 -0.7937
  178DOPC  H13Y21848   2.214   6.140   4.811 -0.6743 -0.4653 -0.5113
  178DOPC  C31421849   2.263   6.005   4.961  0.5971  0.9270  0.8212
  178DOPC  H14X21850   2.278   5.895   4.967 -2.3105  0.4188  0.5905
  178DOPC  H14Y21851   2.360   6.050   4.990  1.4072 -1.9677  3.1443
  178DOPC  C31521852   2.151   6.051   5.059 -0.1077  0.3267 -0.3485
  178DOPC  H15X21853   2.054   5.998   5.048  0.3262 -0.7114  0.6569
  178DOPC  H15Y21854   2.152   6.159   5.033  4.1388 -0.2596 -3.7713
  178DOPC  C31621855   2.194   6.046   5.211  0.2387  0.5101 -0.3928
  178DOPC  H16X21856   2.195   5.936   5.228 -0.1573  0.5433 -0.1265
  178DOPC  H16Y21857   2.296   6.088   5.223  0.5936 -0.7076  1.2058
  178DOPC  C31721858   2.074   6.100   5.296  0.7946 -0.2853  0.7858
  178DOPC  H17X21859   1.982   6.043   5.271  0.5116  0.2956  0.4663
  178DOPC  H17Y21860   2.108   6.094   5.402  0.3903  0.0220  0.9371
  178DOPC  C31821861   2.048   6.257   5.281 -0.0429  0.7051  0.2389
  178DOPC  H18X21862   2.145   6.308   5.299  0.2576 -0.0300  0.8014
  178DOPC  H18Y21863   2.030   6.275   5.173 -1.4249 -0.8032  0.1795
  178DOPC  H18Z21864   1.963   6.291   5.344  0.1281  1.9967 -0.1944
  179DOPC     N21865   7.052   6.605   3.264  0.1646 -0.4465  0.5737
  179DOPC   C1221866   7.067   6.537   3.130 -0.1481  0.3896 -0.4115
  179DOPC  H12A21867   7.034   6.613   3.060 -2.4656 -0.3882 -0.2725
  179DOPC  H12B21868   6.992   6.460   3.117  0.8702 -1.1809  2.2262
  179DOPC   C1321869   7.159   6.703   3.286  0.0275  0.9214 -0.3740
  179DOPC  H13A21870   7.258   6.661   3.299  1.3683  3.6285 -0.9389
  179DOPC  H13B21871   7.165   6.770   3.201  0.7305  0.1288 -0.9729
  179DOPC  H13C21872   7.145   6.756   3.379  0.4249 -1.0412  0.8528
  179DOPC   C1421873   7.043   6.514   3.378 -0.1480 -0.0233  0.2528
  179DOPC  H14A21874   6.948   6.463   3.374  0.4755 -1.5230  2.3019
  179DOPC  H14B21875   7.121   6.439   3.379 -0.6943 -0.6271 -0.7572
  179DOPC  H14C21876   7.049   6.570   3.470  0.9608  0.2967  0.0065
  179DOPC   C1521877   6.927   6.690   3.262 -0.1240 -0.7669 -0.5215
  179DOPC  H15A21878   6.844   6.623   3.242 -0.9011 -0.8503  2.5458
  179DOPC  H15B21879   6.928   6.758   3.178 -2.2578  0.5316  0.4262
  179DOPC  H15C21880   6.906   6.732   3.359  1.3377 -0.7935 -0.1667
  179DOPC   C1121881   7.200   6.474   3.104  0.2651  0.7487  0.1990
  179DOPC  H11A21882   7.198   6.451   2.996  0.4814  0.1595  0.3146
  179DOPC  H11B21883   7.284   6.545   3.121  1.2498 -0.1411 -0.7746
  179DOPC     P21884   7.149   6.219   3.167  0.4973  0.0452  0.2774
  179DOPC   O1321885   7.246   6.123   3.109  0.0075 -0.4981  0.0376
  179DOPC   O1421886   7.021   6.231   3.100  0.0526 -0.1994  0.6423
  179DOPC   O1221887   7.223   6.356   3.180 -0.5941 -0.1706 -0.1759
  179DOPC   O1121888   7.122   6.191   3.313  0.1578  0.2085 -0.2419
  179DOPC    C121889   7.190   6.097   3.398  0.4575 -0.1275 -0.2937
  179DOPC    HA21890   7.209   6.153   3.493 -0.2365  2.3850 -1.5419
  179DOPC    HB21891   7.285   6.058   3.356  0.8643  0.8568 -0.3312
  179DOPC    C221892   7.106   5.972   3.430 -0.4345 -0.4492 -0.0269
  179DOPC    HS21893   7.055   5.931   3.339 -0.7948 -0.4269  0.1631
  179DOPC   O2121894   7.010   6.005   3.533  0.9619 -0.1684 -0.7583
  179DOPC   C2121895   6.906   5.926   3.553 -0.1338 -0.2579  0.1950
  179DOPC   O2221896   6.880   5.831   3.479 -0.3968  0.0610 -0.1169
  179DOPC   C2221897   6.816   5.972   3.674  0.0318 -0.0101  0.0288
  179DOPC   H2R21898   6.736   5.897   3.691 -0.1666 -0.0672 -1.0731
  179DOPC   H2S21899   6.777   6.070   3.640 -0.0947 -0.7643 -2.1611
  179DOPC    C321900   7.204   5.854   3.474  0.5157  0.0699 -0.3574
  179DOPC    HX21901   7.259   5.819   3.384  0.5638 -0.0812 -0.2703
  179DOPC    HY21902   7.138   5.770   3.505  0.0701  0.5760  0.0806
  179DOPC   O3121903   7.301   5.900   3.572  0.1387 -0.4197 -0.2940
  179DOPC   C3121904   7.264   5.870   3.693  0.3176  0.2265  0.1795
  179DOPC   O3221905   7.168   5.797   3.723 -0.5874  0.2275  0.0615
  179DOPC   C3221906   7.349   5.943   3.795 -0.0773  0.5080  0.1662
  179DOPC   H2X21907   7.452   5.910   3.768  0.3448  1.2495  0.8050
  179DOPC   H2Y21908   7.339   6.051   3.768 -2.1289  0.2002 -0.4789
  179DOPC   C2321909   6.904   5.969   3.806 -0.1939 -0.2099 -0.7251
  179DOPC   H3R21910   7.000   6.024   3.795 -0.5029  0.3798 -0.4994
  179DOPC   H3S21911   6.936   5.868   3.840  2.3241 -0.3254 -3.0444
  179DOPC   C2421912   6.828   6.041   3.916 -0.4398 -0.1591 -0.1375
  179DOPC   H4R21913   6.734   5.987   3.941  0.1548 -2.0475 -1.7223
  179DOPC   H4S21914   6.812   6.146   3.883  0.4206 -0.2863 -0.9765
  179DOPC   C2521915   6.919   6.046   4.038 -0.2792  0.4746 -0.0220
  179DOPC   H5R21916   7.016   6.087   4.003  0.6692 -1.1648  0.5388
  179DOPC   H5S21917   6.925   5.940   4.074 -3.5614 -0.3418 -1.5189
  179DOPC   C2621918   6.869   6.123   4.161  0.4899 -0.1364 -0.0381
  179DOPC   H6R21919   6.837   6.227   4.140 -1.9181  0.0393  3.5221
  179DOPC   H6S21920   6.952   6.124   4.234  0.4077 -1.6259  0.1031
  179DOPC   C2721921   6.749   6.058   4.238 -0.3672  0.3464 -0.0503
  179DOPC   H7R21922   6.661   6.056   4.171  1.4989 -0.3336 -2.6277
  179DOPC   H7S21923   6.727   6.130   4.320  1.2136  2.2243 -1.1830
  179DOPC   C2821924   6.761   5.914   4.289 -0.1750 -0.1470  0.0746
  179DOPC   H8R21925   6.858   5.913   4.344 -0.3744  1.2030  0.4848
  179DOPC   H8S21926   6.767   5.847   4.201 -0.1158  0.0523 -0.0733
  179DOPC   C2921927   6.657   5.884   4.392 -0.7016 -0.5514  0.0695
  179DOPC   H9R21928   6.554   5.919   4.379 -1.2046 -1.5523  1.0900
  179DOPC  C21021929   6.685   5.833   4.516  0.3075 -0.2816  0.0752
  179DOPC  H10R21930   6.603   5.816   4.588 -0.0528 -1.7319 -0.6340
  179DOPC  C21121931   6.818   5.804   4.569 -0.9877 -0.0763 -0.4483
  179DOPC  H11R21932   6.888   5.771   4.489 -2.0538 -1.1400 -0.9758
  179DOPC  H11S21933   6.811   5.722   4.643 -1.7409  1.2766  1.0435
  179DOPC  C21221934   6.884   5.923   4.648  0.0054  0.9013  0.4585
  179DOPC  H12R21935   6.852   6.018   4.599 -0.4523  0.1836 -0.6962
  179DOPC  H12S21936   6.994   5.911   4.639 -0.0844  0.1556  0.3542
  179DOPC  C21321937   6.854   5.930   4.800 -0.1069  0.3728  0.1572
  179DOPC  H13R21938   6.898   5.849   4.861 -0.9370  0.5709  1.0566
  179DOPC  H13S21939   6.743   5.926   4.802 -0.3468  2.4045 -2.8739
  179DOPC  C21421940   6.904   6.061   4.860 -0.6106  0.7876 -0.4362
  179DOPC  H14R21941   6.872   6.067   4.967  5.6966  0.0500  1.9149
  179DOPC  H14S21942   6.848   6.141   4.806 -0.7641  0.9208 -0.0833
  179DOPC  C21521943   7.059   6.074   4.858  0.1218 -0.7380  0.2174
  179DOPC  H15R21944   7.100   6.095   4.757  0.5095  1.7106  0.8246
  179DOPC  H15S21945   7.114   5.979   4.877  1.7275  0.1573  0.2719
  179DOPC  C21621946   7.111   6.189   4.950  0.6796 -0.0307 -0.2830
  179DOPC  H16R21947   7.084   6.161   5.054  1.3207 -0.2065 -0.1566
  179DOPC  H16S21948   7.062   6.286   4.929  0.4142 -0.1093 -0.0352
  179DOPC  C21721949   7.262   6.210   4.926 -0.0643 -0.8087 -0.1932
  179DOPC  H17R21950   7.301   6.276   5.006 -1.1514 -0.4376  0.0358
  179DOPC  H17S21951   7.271   6.267   4.831 -1.3496  1.4765  0.9849
  179DOPC  C21821952   7.348   6.080   4.917  0.0916 -0.0054  0.8317
  179DOPC  H18R21953   7.352   6.053   4.810  0.5205  0.2533  0.7793
  179DOPC  H18S21954   7.311   5.999   4.984 -1.4383  0.8184  1.0186
  179DOPC  H18T21955   7.456   6.097   4.935  0.0623  0.9383  0.1710
  179DOPC   C3321956   7.306   5.905   3.934  0.1885 -0.4160 -0.3118
  179DOPC   H3X21957   7.377   5.827   3.969 -0.7923 -0.1548  2.5493
  179DOPC   H3Y21958   7.196   5.887   3.941  0.2608 -1.2485 -1.2105
  179DOPC   C3421959   7.323   6.028   4.028 -0.9818  0.7201 -0.5050
  179DOPC   H4X21960   7.270   6.113   3.980  0.4960  0.8169 -2.0310
  179DOPC   H4Y21961   7.429   6.060   4.041 -1.2175  0.6843  2.0199
  179DOPC   C3521962   7.293   5.996   4.175 -0.0006 -0.1880 -0.0633
  179DOPC   H5X21963   7.188   5.961   4.185 -1.8169  4.5268  0.1064
  179DOPC   H5Y21964   7.293   6.092   4.231 -0.5673  0.2041 -0.7228
  179DOPC   C3621965   7.380   5.893   4.258  0.2926 -0.1329  0.1796
  179DOPC   H6X21966   7.329   5.871   4.354 -0.9238 -1.3223 -0.6915
  179DOPC   H6Y21967   7.360   5.797   4.205  0.7560 -0.4763  0.6238
  179DOPC   C3721968   7.535   5.915   4.272 -0.3961  0.6406 -0.0568
  179DOPC   H7X21969   7.567   5.825   4.329 -3.3550 -1.2745 -1.1764
  179DOPC   H7Y21970   7.586   5.929   4.175 -0.7006  1.1292 -0.1552
  179DOPC   C3821971   7.559   6.036   4.367 -0.5050  0.1431  0.3480
  179DOPC   H8X21972   7.494   6.014   4.454 -0.1685 -1.0440  0.3106
  179DOPC   H8Y21973   7.523   6.133   4.327 -1.4978 -0.2085  0.3653
  179DOPC   C3921974   7.705   6.039   4.404  0.0805 -0.0009  1.2607
  179DOPC   H9X21975   7.765   6.093   4.329 -0.3450 -1.1646  0.0411
  179DOPC  C31021976   7.762   6.014   4.518  0.5596  0.5712 -0.0862
  179DOPC  H10X21977   7.867   6.041   4.539  0.4521  1.5235 -0.6968
  179DOPC  C31121978   7.692   5.966   4.644 -0.3445  0.3590 -0.0210
  179DOPC  H11X21979   7.581   5.968   4.643 -0.5629 -0.2983  4.4030
  179DOPC  H11Y21980   7.723   6.028   4.730 -0.6035  0.3069  0.1089
  179DOPC  C31221981   7.724   5.821   4.681  0.0290  0.8774 -0.5141
  179DOPC  H12X21982   7.825   5.817   4.726 -0.2830 -1.4886  0.0873
  179DOPC  H12Y21983   7.718   5.751   4.595  0.9436  1.9561 -1.4820
  179DOPC  C31321984   7.631   5.760   4.786  0.2881  0.0659  0.1072
  179DOPC  H13X21985   7.600   5.817   4.876  0.7876  1.1839 -0.4184
  179DOPC  H13Y21986   7.539   5.730   4.731 -0.0267 -2.2696  1.7194
  179DOPC  C31421987   7.690   5.624   4.831  0.1415  0.2432 -0.2530
  179DOPC  H14X21988   7.693   5.554   4.745 -0.4294  0.0526 -0.1213
  179DOPC  H14Y21989   7.792   5.652   4.864 -0.5835 -0.0003  2.3643
  179DOPC  C31521990   7.612   5.553   4.950  0.2385  0.5121 -0.6436
  179DOPC  H15X21991   7.648   5.448   4.941 -0.9586 -0.0244  0.4304
  179DOPC  H15Y21992   7.505   5.551   4.918 -0.3664  2.0685  1.1133
  179DOPC  C31621993   7.622   5.627   5.086 -0.0492 -0.1577 -0.1360
  179DOPC  H16X21994   7.729   5.633   5.114 -0.2809  1.5273  0.5025
  179DOPC  H16Y21995   7.593   5.734   5.083  0.6672  0.0518  0.1857
  179DOPC  C31721996   7.558   5.540   5.203  0.0552  0.5094  0.8201
  179DOPC  H17X21997   7.456   5.506   5.174  0.0419 -0.5679  2.0459
  179DOPC  H17Y21998   7.620   5.450   5.220  1.2842  0.7222 -1.9777
  179DOPC  C31821999   7.559   5.615   5.339  0.3227  0.1171 -0.5201
  179DOPC  H18X22000   7.527   5.719   5.321 -2.3855 -0.3842  0.7464
  179DOPC  H18Y22001   7.479   5.565   5.398  0.3949 -0.1987 -0.6837
  179DOPC  H18Z22002   7.648   5.610   5.405 -0.5912 -0.0749  0.7396
  180DOPC     N22003   0.177   2.234   2.955 -0.4659 -0.3754 -0.9176
  180DOPC   C1222004   0.139   2.323   3.080 -0.2581 -0.2050  0.4515
  180DOPC  H12A22005   0.100   2.414   3.038  2.2346  1.1397  0.8539
  180DOPC  H12B22006   0.224   2.364   3.131 -0.1605 -0.6236  0.6332
  180DOPC   C1322007   0.064   2.181   2.880 -0.4180 -0.3332  0.5470
  180DOPC  H13A22008  -0.006   2.151   2.957  0.0103  1.9587  1.9204
  180DOPC  H13B22009   0.018   2.251   2.812 -0.8980 -0.7748  0.4075
  180DOPC  H13C22010   0.082   2.089   2.827  1.3048 -0.5671  1.4655
  180DOPC   C1422011   0.263   2.123   3.006  0.1414  0.2270 -1.0699
  180DOPC  H14A22012   0.354   2.155   3.055  1.7835 -1.6530 -2.7267
  180DOPC  H14B22013   0.216   2.066   3.084  0.5742  0.4570 -0.6355
  180DOPC  H14C22014   0.292   2.056   2.926  2.5019  1.5928 -1.4594
  180DOPC   C1522015   0.266   2.312   2.862  0.0088  0.1403  0.1039
  180DOPC  H15A22016   0.308   2.250   2.784  0.2566 -0.4281  0.6803
  180DOPC  H15B22017   0.354   2.348   2.914 -0.0206 -0.1627  0.3687
  180DOPC  H15C22018   0.213   2.397   2.823 -1.8240 -0.8539  0.3348
  180DOPC   C1122019   0.030   2.269   3.177  0.6332  0.0661  0.5056
  180DOPC  H11A22020   0.073   2.170   3.203 -2.6747 -1.3455  1.0286
  180DOPC  H11B22021   0.018   2.339   3.262  1.4948  1.9023 -0.8077
  180DOPC     P22022  -0.199   2.358   3.100 -0.3164  0.4268 -0.0902
  180DOPC   O1322023  -0.308   2.305   3.015  0.4043  0.1063  0.3386
  180DOPC   O1422024  -0.126   2.475   3.046 -0.3400 -0.0171 -0.0009
  180DOPC   O1222025  -0.097   2.245   3.122  0.1212 -0.5851  0.0884
  180DOPC   O1122026  -0.253   2.381   3.248  0.2723 -0.1436 -0.2347
  180DOPC    C122027  -0.239   2.504   3.319 -0.3333  0.2244 -0.1510
  180DOPC    HA22028  -0.153   2.565   3.283 -0.6865  1.1586  0.5466
  180DOPC    HB22029  -0.210   2.484   3.424 -0.6406  1.1449  0.1183
  180DOPC    C222030  -0.368   2.589   3.327  0.0167  0.2878  0.1563
  180DOPC    HS22031  -0.346   2.665   3.406  1.5578 -0.5199  0.5370
  180DOPC   O2122032  -0.479   2.498   3.356 -0.3598 -0.5769 -0.2994
  180DOPC   C2122033  -0.497   2.469   3.482  0.6674 -1.0947 -1.0989
  180DOPC   O2222034  -0.445   2.533   3.574 -0.3499  0.1104  0.2272
  180DOPC   C2222035  -0.621   2.372   3.497 -0.3736 -0.1177  0.2574
  180DOPC   H2R22036  -0.573   2.278   3.531  1.7092  1.3415  1.6259
  180DOPC   H2S22037  -0.651   2.354   3.392  1.7471  0.4058 -0.4934
  180DOPC    C322038  -0.388   2.677   3.203  0.1203  0.0492 -0.5196
  180DOPC    HX22039  -0.412   2.603   3.124 -0.8222 -1.5029  1.1361
  180DOPC    HY22040  -0.290   2.724   3.179  0.8526 -0.1465  1.8072
  180DOPC   O3122041  -0.479   2.789   3.226  0.3164  0.6764 -0.2571
  180DOPC   C3122042  -0.581   2.800   3.136  0.0399  0.8771  0.2250
  180DOPC   O3222043  -0.587   2.740   3.029 -0.4328  0.2525  0.0441
  180DOPC   C3222044  -0.682   2.896   3.184  0.1303 -0.1311  0.2279
  180DOPC   H2X22045  -0.623   2.990   3.184  0.7078 -0.4829 -0.0793
  180DOPC   H2Y22046  -0.759   2.893   3.104  1.4291 -0.5210 -1.0534
  180DOPC   C2322047  -0.743   2.403   3.594 -0.6007 -0.3671 -0.1042
  180DOPC   H3R22048  -0.835   2.359   3.550  1.0830 -2.4338 -1.7999
  180DOPC   H3S22049  -0.763   2.510   3.612 -1.7350 -0.5533 -0.1903
  180DOPC   C2422050  -0.718   2.352   3.739 -0.4928  0.4559 -0.1125
  180DOPC   H4R22051  -0.696   2.244   3.739  0.9578  0.7291 -0.0415
  180DOPC   H4S22052  -0.817   2.350   3.790 -0.7652 -4.2709 -0.3943
  180DOPC   C2522053  -0.609   2.421   3.817  0.1461 -0.0046  0.4103
  180DOPC   H5R22054  -0.634   2.529   3.815 -2.5906 -0.5312 -2.3743
  180DOPC   H5S22055  -0.509   2.402   3.771 -0.4854 -1.6142 -0.3639
  180DOPC   C2622056  -0.604   2.379   3.969 -0.0882 -0.0437  0.4517
  180DOPC   H6R22057  -0.509   2.418   4.010 -0.0340 -2.8655  3.4301
  180DOPC   H6S22058  -0.597   2.268   3.964 -1.7511 -0.1535 -0.1624
  180DOPC   C2722059  -0.717   2.419   4.060  0.2647  0.1011 -0.7030
  180DOPC   H7R22060  -0.731   2.351   4.147 -3.6114  1.0523 -0.3922
  180DOPC   H7S22061  -0.815   2.404   4.010 -0.5002 -0.4400  0.8865
  180DOPC   C2822062  -0.700   2.559   4.116  0.2930  0.1648  0.1230
  180DOPC   H8R22063  -0.666   2.619   4.029  3.6630 -1.5949  0.0292
  180DOPC   H8S22064  -0.626   2.571   4.198 -0.4727 -0.6409  0.9631
  180DOPC   C2922065  -0.837   2.606   4.172 -0.2571  0.0911 -0.0800
  180DOPC   H9R22066  -0.887   2.526   4.229 -2.7263  0.5113 -1.4925
  180DOPC  C21022067  -0.891   2.728   4.168  0.9309  0.0780 -0.1668
  180DOPC  H10R22068  -0.988   2.748   4.216  1.1574 -1.7698  1.1332
  180DOPC  C21122069  -0.837   2.852   4.104 -0.0981  0.6987  0.2504
  180DOPC  H11R22070  -0.735   2.838   4.065 -0.3132 -0.1780 -0.0140
  180DOPC  H11S22071  -0.830   2.936   4.177  2.6278 -1.3700  2.5598
  180DOPC  C21222072  -0.926   2.891   3.992  0.0677  0.2614  0.0068
  180DOPC  H12R22073  -1.022   2.928   4.031  0.4892  2.4656 -0.9057
  180DOPC  H12S22074  -0.945   2.799   3.932  0.0295  0.1021  0.2640
  180DOPC  C21322075  -0.864   3.007   3.905  0.9821 -0.0765  0.0015
  180DOPC  H13R22076  -0.823   3.078   3.980  0.9985  0.3349 -0.3969
  180DOPC  H13S22077  -0.939   3.059   3.843  1.2755 -2.4451 -2.5326
  180DOPC  C21422078  -0.769   2.957   3.793 -0.6116 -0.7089 -0.3285
  180DOPC  H14R22079  -0.814   2.913   3.702  1.7987 -1.0727 -1.4276
  180DOPC  H14S22080  -0.704   2.882   3.842  2.4374  1.8078 -0.1752
  180DOPC  C21522081  -0.677   3.069   3.742 -0.1023 -0.3189 -0.3210
  180DOPC  H15R22082  -0.597   3.023   3.680 -1.0848  0.1865 -2.0227
  180DOPC  H15S22083  -0.636   3.123   3.830  2.9702 -1.8332 -0.6756
  180DOPC  C21622084  -0.754   3.182   3.665 -0.5592 -0.0931  0.2820
  180DOPC  H16R22085  -0.864   3.169   3.677 -0.6438 -1.9712 -1.8140
  180DOPC  H16S22086  -0.733   3.164   3.558  3.0492 -1.0571  1.0164
  180DOPC  C21722087  -0.715   3.324   3.704 -0.6349 -0.0671  0.2813
  180DOPC  H17R22088  -0.714   3.332   3.815  0.2009  0.4200  0.2494
  180DOPC  H17S22089  -0.792   3.393   3.664 -0.1513 -1.1123 -2.6788
  180DOPC  C21822090  -0.586   3.362   3.637  0.2311  0.3547  0.2066
  180DOPC  H18R22091  -0.548   3.464   3.658  1.4514 -0.1617  0.5750
  180DOPC  H18S22092  -0.607   3.358   3.528  1.3819 -0.5484 -0.0050
  180DOPC  H18T22093  -0.505   3.289   3.659  0.0498 -0.3367 -1.2820
  180DOPC   C3322094  -0.746   2.869   3.328  0.1139 -0.9488 -0.5520
  180DOPC   H3X22095  -0.796   2.958   3.370  1.7737  0.5113 -1.5429
  180DOPC   H3Y22096  -0.673   2.848   3.409 -1.8431  1.1956  1.9157
  180DOPC   C3422097  -0.859   2.762   3.318  0.1478  0.2838  0.4477
  180DOPC   H4X22098  -0.812   2.672   3.272  0.2751  0.1349  0.8705
  180DOPC   H4Y22099  -0.928   2.818   3.250  2.1789  2.3942 -0.0117
  180DOPC   C3522100  -0.934   2.745   3.451  0.3824  0.3927  0.5588
  180DOPC   H5X22101  -0.956   2.847   3.489  0.4621  0.8928 -0.6982
  180DOPC   H5Y22102  -0.865   2.699   3.525 -0.4535 -0.3963  0.8655
  180DOPC   C3622103  -1.056   2.657   3.423  0.3273  0.4486  0.1326
  180DOPC   H6X22104  -1.115   2.687   3.334 -1.6396  3.3502  2.2258
  180DOPC   H6Y22105  -1.021   2.552   3.412  0.6599  0.4972  0.6829
  180DOPC   C3722106  -1.154   2.675   3.539 -0.1056  0.5386 -0.7394
  180DOPC   H7X22107  -1.093   2.688   3.631 -3.1408  0.0967  1.4837
  180DOPC   H7Y22108  -1.201   2.775   3.531 -0.3882  0.3736 -1.1932
  180DOPC   C3822109  -1.249   2.556   3.561 -0.4551 -0.0540  0.2628
  180DOPC   H8X22110  -1.199   2.458   3.577  1.0184  0.4605 -0.9687
  180DOPC   H8Y22111  -1.305   2.543   3.465 -0.2579 -1.5128  0.3138
  180DOPC   C3922112  -1.335   2.583   3.688 -0.4754 -0.0540  0.9289
  180DOPC   H9X22113  -1.436   2.615   3.661  1.1171  2.7206 -2.5404
  180DOPC  C31022114  -1.314   2.552   3.816 -0.4209  0.4971  0.0200
  180DOPC  H10X22115  -1.395   2.583   3.883  1.2835  1.6669  1.6242
  180DOPC  C31122116  -1.194   2.480   3.876 -0.0992  1.4897 -0.2615
  180DOPC  H11X22117  -1.112   2.551   3.902  0.0384  0.9840  0.7655
  180DOPC  H11Y22118  -1.157   2.409   3.799 -0.4681  0.3877  0.5483
  180DOPC  C31222119  -1.233   2.404   4.009  0.0934  0.1793  1.0350
  180DOPC  H12X22120  -1.155   2.333   4.043 -0.2253 -0.8424 -0.2784
  180DOPC  H12Y22121  -1.312   2.328   3.992  0.7502 -0.3745  0.3696
  180DOPC  C31322122  -1.277   2.491   4.120  0.0799 -0.6960  0.1538
  180DOPC  H13X22123  -1.252   2.597   4.097 -1.6638 -0.4836 -1.0509
  180DOPC  H13Y22124  -1.389   2.490   4.118  0.0707 -1.0288 -1.9414
  180DOPC  C31422125  -1.207   2.453   4.256  0.1684  0.4524  0.5401
  180DOPC  H14X22126  -1.245   2.351   4.276  0.2976  0.7998  2.8276
  180DOPC  H14Y22127  -1.098   2.465   4.243  0.3523  1.5666  2.6940
  180DOPC  C31522128  -1.253   2.542   4.370  0.6724 -0.0585 -0.6616
  180DOPC  H15X22129  -1.363   2.542   4.358  0.7523 -2.0144 -1.6663
  180DOPC  H15Y22130  -1.206   2.643   4.359  0.7999  0.1848  1.6121
  180DOPC  C31622131  -1.217   2.498   4.513  0.2030 -0.2755  0.5928
  180DOPC  H16X22132  -1.270   2.402   4.530 -1.9078  0.5578 -0.7838
  180DOPC  H16Y22133  -1.107   2.487   4.514  0.4689  1.6390 -0.5901
  180DOPC  C31722134  -1.241   2.610   4.608  0.1949  0.4847 -0.5029
  180DOPC  H17X22135  -1.177   2.582   4.693  1.9210  0.2006 -1.8394
  180DOPC  H17Y22136  -1.202   2.708   4.574 -0.1767  0.0450 -2.3544
  180DOPC  C31822137  -1.384   2.629   4.659 -0.6037  0.4702 -0.6741
  180DOPC  H18X22138  -1.458   2.627   4.576  0.2072  1.2418 -1.4352
  180DOPC  H18Y22139  -1.417   2.540   4.718  1.8898 -0.3856 -0.4377
  180DOPC  H18Z22140  -1.395   2.721   4.720  1.5742  1.5741 -1.8382
  181DOPC     N22141   0.831   3.816   2.745 -0.1780 -0.1691 -0.0764
  181DOPC   C1222142   0.822   3.855   2.892 -0.2756  0.1868  0.6749
  181DOPC  H12A22143   0.718   3.861   2.923 -0.3389  0.3612  0.4342
  181DOPC  H12B22144   0.862   3.954   2.909 -1.2966  0.6819  0.3193
  181DOPC   C1322145   0.750   3.916   2.661  0.0173  0.6477  0.3582
  181DOPC  H13A22146   0.757   3.882   2.559  0.6329  0.3283  0.5021
  181DOPC  H13B22147   0.644   3.927   2.679 -0.0519 -0.6340  0.8256
  181DOPC  H13C22148   0.807   4.007   2.670 -0.1278  0.8077 -0.2883
  181DOPC   C1422149   0.764   3.683   2.712  0.6256 -0.4210 -0.7319
  181DOPC  H14A22150   0.769   3.652   2.609  0.6103  0.2145 -0.9304
  181DOPC  H14B22151   0.801   3.603   2.774  0.0749  0.6309  1.0529
  181DOPC  H14C22152   0.659   3.685   2.736 -0.0118  1.0446 -3.3204
  181DOPC   C1522153   0.970   3.798   2.706 -0.1275 -0.2189  0.4172
  181DOPC  H15A22154   0.969   3.757   2.606 -0.4651 -0.5716  0.5639
  181DOPC  H15B22155   1.018   3.724   2.769  0.9293  0.7659  0.8024
  181DOPC  H15C22156   1.032   3.885   2.718 -0.4826 -0.1817  2.1641
  181DOPC   C1122157   0.886   3.758   2.997 -0.0308  0.9698  0.5926
  181DOPC  H11A22158   0.995   3.756   2.977 -0.5508  1.0049 -2.8091
  181DOPC  H11B22159   0.863   3.807   3.094  0.3524  1.4794  0.4267
  181DOPC     P22160   0.918   3.496   3.065  0.0486  0.3382  0.0747
  181DOPC   O1322161   1.039   3.549   3.132 -0.2486  0.4367  0.2661
  181DOPC   O1422162   0.928   3.387   2.969  1.1675  0.3517 -0.7350
  181DOPC   O1222163   0.836   3.620   2.994 -0.8334 -0.0658 -0.1343
  181DOPC   O1122164   0.821   3.452   3.180  0.2471 -0.4650  0.2395
  181DOPC    C122165   0.863   3.339   3.266 -0.0472 -0.3037  0.7851
  181DOPC    HA22166   0.974   3.328   3.264  0.3026  1.8959 -3.5106
  181DOPC    HB22167   0.810   3.244   3.241 -2.2139  0.3975  2.4424
  181DOPC    C222168   0.824   3.371   3.413  0.0170  0.5220 -0.5066
  181DOPC    HS22169   0.715   3.393   3.410 -0.3036 -0.9752 -0.5418
  181DOPC   O2122170   0.895   3.479   3.469 -1.0992 -0.6175  0.2364
  181DOPC   C2122171   0.846   3.601   3.459  0.0828  0.4762 -0.2937
  181DOPC   O2222172   0.752   3.627   3.387 -0.0486 -0.4101 -0.5330
  181DOPC   C2222173   0.923   3.710   3.536 -0.2723  0.2394  0.5058
  181DOPC   H2R22174   0.950   3.793   3.467 -1.1980  0.1356 -0.0027
  181DOPC   H2S22175   1.011   3.661   3.582 -0.9832 -0.9155  0.6827
  181DOPC    C322176   0.852   3.244   3.501 -0.2556 -0.4769 -0.9023
  181DOPC    HX22177   0.962   3.235   3.510 -0.4856 -1.9990  1.1936
  181DOPC    HY22178   0.816   3.146   3.461 -0.7621 -2.2206  3.2949
  181DOPC   O3122179   0.781   3.253   3.631 -0.1777 -0.5887 -0.0586
  181DOPC   C3122180   0.850   3.259   3.739 -0.3872 -0.5583  0.3696
  181DOPC   O3222181   0.972   3.254   3.753  0.1610  0.0583  0.0054
  181DOPC   C3222182   0.767   3.294   3.860  0.5370  0.2985  0.3156
  181DOPC   H2X22183   0.698   3.377   3.831 -0.0903  0.3649  1.8808
  181DOPC   H2Y22184   0.710   3.199   3.859  0.4000  0.3810  0.0837
  181DOPC   C2322185   0.826   3.768   3.640 -0.2605 -0.4953 -0.9983
  181DOPC   H3R22186   0.726   3.719   3.637  0.2744 -1.8701  1.1714
  181DOPC   H3S22187   0.811   3.878   3.640  0.4899 -0.3909 -1.8657
  181DOPC   C2422188   0.882   3.737   3.783 -0.1536  0.3736  0.1624
  181DOPC   H4R22189   0.991   3.754   3.781 -0.0553  0.1633  2.0552
  181DOPC   H4S22190   0.863   3.628   3.798  1.3235 -0.1327 -1.3270
  181DOPC   C2522191   0.825   3.838   3.885  0.2815 -0.5961  0.1913
  181DOPC   H5R22192   0.864   3.941   3.872  0.0128 -0.6362 -1.1538
  181DOPC   H5S22193   0.856   3.801   3.985  1.8251 -0.2705 -0.1446
  181DOPC   C2622194   0.675   3.838   3.885 -0.1894 -0.4609 -0.3427
  181DOPC   H6R22195   0.638   3.777   3.970 -0.3588  2.3754  1.7814
  181DOPC   H6S22196   0.622   3.806   3.792  0.1958  2.0912 -1.5440
  181DOPC   C2722197   0.634   3.984   3.921  0.3332 -0.7237 -0.6996
  181DOPC   H7R22198   0.674   4.050   3.841 -1.2563  1.1136 -0.0507
  181DOPC   H7S22199   0.665   4.000   4.026  1.0659 -0.9586 -0.8754
  181DOPC   C2822200   0.476   4.016   3.909  0.2166 -0.2728  0.4121
  181DOPC   H8R22201   0.415   3.942   3.966  1.5626 -1.0082  0.9390
  181DOPC   H8S22202   0.448   3.999   3.803 -1.1381  3.2707  0.0534
  181DOPC   C2922203   0.460   4.164   3.943 -0.0111 -0.3985 -0.5268
  181DOPC   H9R22204   0.485   4.239   3.866 -1.9866  1.0464  0.1476
  181DOPC  C21022205   0.390   4.200   4.058 -0.4896  0.5591  0.1631
  181DOPC  H10R22206   0.412   4.303   4.089  1.3143 -0.1721  1.5130
  181DOPC  C21122207   0.337   4.101   4.164  0.1830 -0.5289  0.1454
  181DOPC  H11R22208   0.428   4.066   4.219 -0.4886 -0.3854  1.3928
  181DOPC  H11S22209   0.297   4.005   4.125  1.3445 -0.1244 -2.1926
  181DOPC  C21222210   0.240   4.168   4.264  0.0518  0.0101 -0.0610
  181DOPC  H12R22211   0.142   4.194   4.219  0.2441 -0.3790 -0.7021
  181DOPC  H12S22212   0.278   4.261   4.311  1.1989 -0.0254 -0.8639
  181DOPC  C21322213   0.225   4.077   4.389 -0.1067 -0.4763 -0.7792
  181DOPC  H13R22214   0.301   4.109   4.464 -0.9398 -1.5379  0.5691
  181DOPC  H13S22215   0.235   3.973   4.351 -0.1984 -0.8845  0.2670
  181DOPC  C21422216   0.090   4.088   4.468 -0.1707 -0.1294  0.6207
  181DOPC  H14R22217   0.002   4.061   4.407  0.0074  1.7423 -0.5629
  181DOPC  H14S22218   0.066   4.195   4.490 -2.9216 -0.5836  0.1766
  181DOPC  C21522219   0.092   4.009   4.598  0.1447 -0.2418 -0.4309
  181DOPC  H15R22220   0.175   4.035   4.667 -0.7117  0.4458  0.3906
  181DOPC  H15S22221   0.121   3.905   4.573  2.4457 -0.1761  1.6391
  181DOPC  C21622222  -0.044   4.022   4.669 -0.0518 -0.6832 -0.1776
  181DOPC  H16R22223  -0.115   3.979   4.595 -0.7802 -0.1450  0.2013
  181DOPC  H16S22224  -0.084   4.124   4.689 -2.1986 -1.8588  2.0177
  181DOPC  C21722225  -0.062   3.949   4.808  0.3260  0.2212  0.0595
  181DOPC  H17R22226  -0.161   3.972   4.852  0.0968  1.1983 -0.9080
  181DOPC  H17S22227   0.016   3.984   4.879 -0.1574  0.7048  0.3635
  181DOPC  C21822228  -0.044   3.804   4.780 -0.2301  0.3527 -0.8374
  181DOPC  H18R22229  -0.136   3.766   4.731 -0.8052  0.4840  0.1173
  181DOPC  H18S22230  -0.033   3.739   4.870 -1.1207  0.5500 -0.5764
  181DOPC  H18T22231   0.046   3.778   4.721 -1.2006 -1.9332 -1.4222
  181DOPC   C3322232   0.828   3.327   3.996  0.1671  0.0030  0.1704
  181DOPC   H3X22233   0.885   3.423   4.001  1.7534 -0.7802 -1.5818
  181DOPC   H3Y22234   0.897   3.241   4.010  0.3638  0.1448  0.0850
  181DOPC   C3422235   0.728   3.349   4.113 -0.1684  0.1122  0.9980
  181DOPC   H4X22236   0.780   3.352   4.211  1.7467 -0.9454  0.0800
  181DOPC   H4Y22237   0.667   3.257   4.124  0.2306  0.0102  2.7093
  181DOPC   C3522238   0.632   3.468   4.114  0.4622  0.3353 -0.0731
  181DOPC   H5X22239   0.559   3.466   4.030  1.0483  0.3746 -0.5875
  181DOPC   H5Y22240   0.690   3.560   4.092 -0.6214  0.1708 -4.4383
  181DOPC   C3622241   0.544   3.475   4.236 -0.8901  0.3841 -0.4874
  181DOPC   H6X22242   0.481   3.384   4.243  2.0420 -1.6734  2.5365
  181DOPC   H6Y22243   0.617   3.463   4.319 -1.3997  3.8751  0.6069
  181DOPC   C3722244   0.475   3.603   4.271 -0.6613 -0.4381  0.4297
  181DOPC   H7X22245   0.413   3.634   4.184  0.4412  0.3352 -0.1180
  181DOPC   H7Y22246   0.417   3.589   4.364  2.0386 -0.5740  2.1970
  181DOPC   C3822247   0.574   3.717   4.302 -0.1477  0.0886 -0.0171
  181DOPC   H8X22248   0.508   3.805   4.315 -0.5638 -0.4958  2.1865
  181DOPC   H8Y22249   0.631   3.753   4.214 -1.6888  1.9923 -0.3068
  181DOPC   C3922250   0.672   3.708   4.410  0.3256  0.0749  0.2932
  181DOPC   H9X22251   0.748   3.630   4.396  0.8278  0.6996 -0.4991
  181DOPC  C31022252   0.682   3.789   4.516 -0.5396  0.6396 -0.1991
  181DOPC  H10X22253   0.765   3.769   4.585 -0.5810  0.3804 -0.2224
  181DOPC  C31122254   0.601   3.913   4.552  0.3354  0.0699 -0.3640
  181DOPC  H11X22255   0.517   3.884   4.618  2.1076  0.5099  2.2218
  181DOPC  H11Y22256   0.558   3.945   4.454 -1.7596 -2.9200 -0.5709
  181DOPC  C31222257   0.674   4.025   4.627  0.2042  0.9819  0.9242
  181DOPC  H12X22258   0.607   4.114   4.630  0.4088  1.1324  1.0331
  181DOPC  H12Y22259   0.766   4.059   4.574  0.7561  0.9954  1.8617
  181DOPC  C31322260   0.715   3.996   4.774 -0.5169  0.4608  0.2234
  181DOPC  H13X22261   0.614   3.986   4.819 -0.6968  0.5247 -0.1602
  181DOPC  H13Y22262   0.777   3.906   4.793 -2.5902 -0.7885  1.6258
  181DOPC  C31422263   0.800   4.110   4.838  0.4670  0.6952  0.1567
  181DOPC  H14X22264   0.869   4.152   4.762 -0.2147  1.4293 -0.0710
  181DOPC  H14Y22265   0.730   4.188   4.874  0.6315  0.7099  0.4459
  181DOPC  C31522266   0.885   4.052   4.948  0.1766  0.3079  0.5000
  181DOPC  H15X22267   0.957   3.981   4.903  0.7013  0.6887  0.7358
  181DOPC  H15Y22268   0.820   3.998   5.021  1.3001 -0.5876  0.8720
  181DOPC  C31622269   0.971   4.152   5.026  0.2908 -0.2510 -0.1442
  181DOPC  H16X22270   1.042   4.197   4.953 -1.0066 -0.6022 -1.6821
  181DOPC  H16Y22271   0.897   4.227   5.061 -0.7693 -1.8245  1.1067
  181DOPC  C31722272   1.047   4.094   5.134 -0.7182 -0.2846 -0.3246
  181DOPC  H17X22273   0.983   4.046   5.210 -0.2776 -0.2820  0.0533
  181DOPC  H17Y22274   1.111   4.011   5.096  1.6875  1.3259 -0.0205
  181DOPC  C31822275   1.148   4.189   5.208  0.6390 -0.5939 -0.4021
  181DOPC  H18X22276   1.185   4.127   5.292 -1.7701 -1.4801  0.0746
  181DOPC  H18Y22277   1.228   4.219   5.137  0.4475  1.9179  0.3545
  181DOPC  H18Z22278   1.103   4.283   5.247  1.0209 -0.4493 -0.3005
  182DOPC     N22279   2.291   1.559   2.562 -0.0871 -0.7150 -0.0258
  182DOPC   C1222280   2.373   1.606   2.683 -0.1088  0.7037 -0.3275
  182DOPC  H12A22281   2.359   1.713   2.685 -1.5093  0.5331 -0.3398
  182DOPC  H12B22282   2.477   1.584   2.660 -0.4269  1.1462 -2.3618
  182DOPC   C1322283   2.344   1.625   2.433  0.2960 -0.6203 -0.4416
  182DOPC  H13A22284   2.291   1.604   2.341  0.7631 -2.0316 -0.4115
  182DOPC  H13B22285   2.347   1.732   2.451  1.9095 -0.8813  1.1865
  182DOPC  H13C22286   2.444   1.584   2.425  0.0543 -1.2934 -0.1236
  182DOPC   C1422287   2.148   1.586   2.585  0.7749  0.2969  0.2928
  182DOPC  H14A22288   2.119   1.527   2.671  1.7385  0.3733  0.6794
  182DOPC  H14B22289   2.137   1.687   2.622  1.1756  0.0252  1.1776
  182DOPC  H14C22290   2.085   1.560   2.501  0.0094 -1.0269  1.2496
  182DOPC   C1522291   2.314   1.417   2.529  0.6269  0.6208 -0.8427
  182DOPC  H15A22292   2.264   1.359   2.606  1.1067  3.4592  1.8465
  182DOPC  H15B22293   2.416   1.388   2.514  0.3282 -0.1548 -1.4231
  182DOPC  H15C22294   2.257   1.402   2.439 -0.6942 -0.1136  0.0631
  182DOPC   C1122295   2.336   1.540   2.815  0.0728 -0.2311 -0.4957
  182DOPC  H11A22296   2.394   1.585   2.898  0.3154  0.9147 -1.2680
  182DOPC  H11B22297   2.230   1.560   2.844  0.7297  3.2905 -0.0927
  182DOPC     P22298   2.519   1.360   2.843  0.1651  0.3159 -0.3482
  182DOPC   O1322299   2.612   1.463   2.785  0.8718 -0.3190  0.4854
  182DOPC   O1422300   2.546   1.219   2.810 -0.5039  0.1377  0.0455
  182DOPC   O1222301   2.372   1.402   2.827  0.7856 -0.0368  0.5021
  182DOPC   O1122302   2.543   1.383   2.999 -0.4995 -0.1550 -0.1481
  182DOPC    C122303   2.496   1.293   3.097 -0.1322 -0.2206  0.1960
  182DOPC    HA22304   2.576   1.279   3.173  0.0188 -2.5137 -0.3020
  182DOPC    HB22305   2.480   1.189   3.060  0.0595  0.9058 -3.3377
  182DOPC    C222306   2.370   1.346   3.167 -0.4064 -0.2220  1.0211
  182DOPC    HS22307   2.291   1.334   3.089  0.8046 -0.4682 -0.1957
  182DOPC   O2122308   2.389   1.488   3.202 -0.0092 -0.4873  0.1325
  182DOPC   C2122309   2.274   1.553   3.214 -0.8078  1.3090 -0.3676
  182DOPC   O2222310   2.166   1.505   3.222 -0.1068 -0.0564  0.6867
  182DOPC   C2222311   2.310   1.700   3.214 -0.3391 -0.2842 -0.0363
  182DOPC   H2R22312   2.222   1.759   3.247 -0.6914 -1.5719  1.4641
  182DOPC   H2S22313   2.331   1.719   3.106 -1.0689  0.7902 -0.0050
  182DOPC    C322314   2.339   1.249   3.284 -0.1427  0.2594  0.5391
  182DOPC    HX22315   2.311   1.149   3.244 -2.4496 -0.1537  2.9391
  182DOPC    HY22316   2.247   1.293   3.328 -1.7399  1.1355 -3.2495
  182DOPC   O3122317   2.453   1.238   3.375  0.3803  0.3901  0.2455
  182DOPC   C3122318   2.415   1.215   3.500 -0.3652 -0.4475 -0.3979
  182DOPC   O3222319   2.299   1.194   3.543 -0.9797  0.1732  0.1942
  182DOPC   C3222320   2.539   1.224   3.586  0.1264  0.1993 -0.2625
  182DOPC   H2X22321   2.616   1.176   3.522 -0.2317 -0.1656 -0.4261
  182DOPC   H2Y22322   2.578   1.328   3.593  2.3667 -0.5630 -0.4603
  182DOPC   C2322323   2.440   1.750   3.297 -0.0424  0.1012  0.1384
  182DOPC   H3R22324   2.454   1.860   3.289  1.4933 -0.0927 -0.2144
  182DOPC   H3S22325   2.524   1.704   3.241 -1.1883 -0.1616 -1.4403
  182DOPC   C2422326   2.433   1.701   3.442 -0.1685  0.2958 -0.4908
  182DOPC   H4R22327   2.471   1.597   3.455  0.5892  0.6496  0.2241
  182DOPC   H4S22328   2.329   1.717   3.475  0.4923  2.1533  0.8373
  182DOPC   C2522329   2.523   1.790   3.530  0.0202 -0.3081 -0.5725
  182DOPC   H5R22330   2.476   1.890   3.541 -0.5717 -0.7293  1.0188
  182DOPC   H5S22331   2.626   1.805   3.490  0.5788  1.0015  1.2011
  182DOPC   C2622332   2.528   1.736   3.677 -0.0971  0.0055  0.1457
  182DOPC   H6R22333   2.576   1.636   3.668  1.2462  0.7555 -1.7582
  182DOPC   H6S22334   2.428   1.722   3.723  0.3795 -0.2353  1.1361
  182DOPC   C2722335   2.613   1.824   3.770  1.6626 -0.0433  0.6714
  182DOPC   H7R22336   2.562   1.920   3.793  3.2244  0.9720  0.1033
  182DOPC   H7S22337   2.693   1.855   3.699  0.4549  0.3902 -0.5433
  182DOPC   C2822338   2.666   1.743   3.892  0.5033 -0.1418 -0.2389
  182DOPC   H8R22339   2.706   1.642   3.866 -0.4735 -0.5465 -0.1979
  182DOPC   H8S22340   2.581   1.723   3.960  0.2484  0.5546 -0.3419
  182DOPC   C2922341   2.768   1.822   3.967  0.2184 -0.3403  0.7037
  182DOPC   H9R22342   2.867   1.806   3.921 -0.3204 -0.7317 -0.3431
  182DOPC  C21022343   2.747   1.905   4.069 -0.0275  0.5215  0.2735
  182DOPC  H10R22344   2.831   1.968   4.104  1.1799 -1.0382  0.3326
  182DOPC  C21122345   2.617   1.947   4.138  0.2917 -0.2630  0.7163
  182DOPC  H11R22346   2.529   1.887   4.106  0.2868 -2.8852  4.8722
  182DOPC  H11S22347   2.602   2.050   4.100 -2.0086 -0.6513  0.4275
  182DOPC  C21222348   2.625   1.947   4.290  0.2572 -0.0848 -0.1531
  182DOPC  H12R22349   2.673   2.044   4.315  0.4109 -0.1488 -0.1975
  182DOPC  H12S22350   2.698   1.866   4.312 -1.5383 -1.7167  0.1312
  182DOPC  C21322351   2.500   1.902   4.364 -0.3721 -0.4000 -0.3474
  182DOPC  H13R22352   2.470   1.798   4.337 -0.5190 -1.0663  2.1713
  182DOPC  H13S22353   2.410   1.964   4.345  0.0410  0.2553 -0.1759
  182DOPC  C21422354   2.534   1.905   4.517  0.3885 -0.3348 -0.5051
  182DOPC  H14R22355   2.558   2.007   4.552 -1.1360 -0.3525  0.7239
  182DOPC  H14S22356   2.622   1.838   4.528  0.2270 -0.4992 -0.1965
  182DOPC  C21522357   2.415   1.844   4.598  0.6253 -0.1742  0.3336
  182DOPC  H15R22358   2.380   1.747   4.557  1.6541 -0.8808  1.0962
  182DOPC  H15S22359   2.322   1.904   4.594 -0.8396 -2.3350  0.2016
  182DOPC  C21622360   2.463   1.819   4.742 -0.3452 -0.2048 -0.1252
  182DOPC  H16R22361   2.480   1.922   4.780 -2.5672 -0.6703  2.3862
  182DOPC  H16S22362   2.559   1.764   4.739  0.2502  0.6741  1.5635
  182DOPC  C21722363   2.351   1.759   4.827 -0.5856  0.4258 -0.2296
  182DOPC  H17R22364   2.330   1.659   4.783  2.1791  0.6267 -2.2006
  182DOPC  H17S22365   2.261   1.824   4.828 -0.7069  0.2589  0.0108
  182DOPC  C21822366   2.404   1.745   4.967 -0.6154  0.1923  0.2775
  182DOPC  H18R22367   2.407   1.841   5.024 -1.8543 -0.5842  1.7242
  182DOPC  H18S22368   2.501   1.692   4.971 -0.5071  0.3612 -0.0630
  182DOPC  H18T22369   2.328   1.675   5.008 -1.3496 -0.3241 -1.8289
  182DOPC   C3322370   2.528   1.152   3.724 -0.8802  0.8122 -0.8550
  182DOPC   H3X22371   2.562   1.047   3.710 -1.3318  0.1443  2.2385
  182DOPC   H3Y22372   2.419   1.153   3.749 -0.4102  1.9435  1.3234
  182DOPC   C3422373   2.622   1.208   3.838 -0.4438 -0.7218  0.5475
  182DOPC   H4X22374   2.617   1.319   3.850  0.0516 -0.7051  0.6338
  182DOPC   H4Y22375   2.721   1.180   3.797 -1.4744 -2.3019 -1.0019
  182DOPC   C3522376   2.610   1.143   3.975 -0.2516 -0.0331  0.1549
  182DOPC   H5X22377   2.588   1.035   3.958  2.0176 -0.2291 -2.2068
  182DOPC   H5Y22378   2.518   1.187   4.020 -0.2077 -0.4183  0.6397
  182DOPC   C3622379   2.726   1.152   4.069  0.7003  0.6743  0.3079
  182DOPC   H6X22380   2.806   1.082   4.038  0.0386  0.7579 -1.7105
  182DOPC   H6Y22381   2.764   1.257   4.066 -0.8911  1.6424  4.9515
  182DOPC   C3722382   2.687   1.095   4.214  0.6025 -0.6551  0.0777
  182DOPC   H7X22383   2.616   1.167   4.260  0.7825 -0.0591 -0.5480
  182DOPC   H7Y22384   2.627   1.003   4.199 -0.4502 -0.0888  0.7592
  182DOPC   C3822385   2.816   1.055   4.287 -0.7822 -0.1289 -0.8681
  182DOPC   H8X22386   2.895   1.131   4.267 -0.3026 -0.3886 -0.0176
  182DOPC   H8Y22387   2.857   0.966   4.236  0.1323  0.0683 -0.5065
  182DOPC   C3922388   2.773   1.033   4.437 -0.3994  0.0626  0.1828
  182DOPC   H9X22389   2.702   1.103   4.483 -0.4812  0.3348 -0.3578
  182DOPC  C31022390   2.830   0.941   4.511 -0.5349  0.0931  0.0135
  182DOPC  H10X22391   2.820   0.947   4.620  1.1369  3.2884  0.0877
  182DOPC  C31122392   2.942   0.845   4.471 -0.0224 -0.1896 -0.9222
  182DOPC  H11X22393   2.977   0.863   4.367 -1.9862  2.3914 -1.2447
  182DOPC  H11Y22394   2.901   0.741   4.470 -0.6911  0.0596 -0.2982
  182DOPC  C31222395   3.070   0.856   4.555 -0.5689  0.0197  0.3929
  182DOPC  H12X22396   3.105   0.957   4.586  0.7591 -1.0484  2.6679
  182DOPC  H12Y22397   3.151   0.818   4.489 -0.4630 -0.0055  0.5352
  182DOPC  C31322398   3.055   0.770   4.680  0.3084  0.1486 -0.0245
  182DOPC  H13X22399   2.958   0.786   4.731 -0.8777 -1.9947 -1.4173
  182DOPC  H13Y22400   3.055   0.666   4.639  1.2703  1.1322 -2.7601
  182DOPC  C31422401   3.171   0.801   4.777 -0.0485  0.3685  0.6141
  182DOPC  H14X22402   3.262   0.786   4.714 -0.4918 -0.3053  0.1300
  182DOPC  H14Y22403   3.156   0.909   4.798 -0.5812  0.3031  0.5840
  182DOPC  C31522404   3.178   0.721   4.907 -0.0771 -0.2768  0.9819
  182DOPC  H15X22405   3.174   0.616   4.871  0.0051 -0.0881  0.3939
  182DOPC  H15Y22406   3.085   0.729   4.966  1.0711 -4.3108  3.7742
  182DOPC  C31622407   3.303   0.757   4.988 -0.2357  0.6643  0.2484
  182DOPC  H16X22408   3.385   0.769   4.915 -1.7419  0.2466 -1.5920
  182DOPC  H16Y22409   3.287   0.862   5.020 -3.7412  0.3691 -0.1247
  182DOPC  C31722410   3.347   0.664   5.096 -0.1527  0.3824  0.0055
  182DOPC  H17X22411   3.254   0.635   5.150  1.0819  0.2686  2.2261
  182DOPC  H17Y22412   3.389   0.569   5.057  0.7661  0.9418 -0.3952
  182DOPC  C31822413   3.455   0.731   5.187 -0.2376 -0.1049  0.1445
  182DOPC  H18X22414   3.418   0.807   5.259  0.6790  0.0533  0.4721
  182DOPC  H18Y22415   3.492   0.650   5.253 -2.1990 -0.7445  0.5159
  182DOPC  H18Z22416   3.538   0.784   5.135 -1.6182 -1.2149 -3.4981
  183DOPC     N22417   0.439   6.066   2.835 -0.2918  0.4510  0.0266
  183DOPC   C1222418   0.334   6.024   2.740  0.2697  0.4665  0.3456
  183DOPC  H12A22419   0.331   5.917   2.737 -0.7612  0.4000  2.2251
  183DOPC  H12B22420   0.365   6.059   2.642 -1.7482 -0.4824 -0.6770
  183DOPC   C1322421   0.580   5.994   2.812  0.1407  0.2990 -0.5777
  183DOPC  H13A22422   0.562   5.890   2.835 -0.5856  0.7607  1.1132
  183DOPC  H13B22423   0.622   6.016   2.715  2.5918  0.7211  0.5116
  183DOPC  H13C22424   0.653   6.040   2.878  0.8558 -0.7012 -0.6586
  183DOPC   C1422425   0.386   6.032   2.976  0.0756  0.4504 -0.1389
  183DOPC  H14A22426   0.474   6.038   3.039  0.4918  0.1764 -0.6829
  183DOPC  H14B22427   0.318   6.113   2.996  0.7573  0.8820  0.4689
  183DOPC  H14C22428   0.340   5.934   2.978  0.9976 -0.0620  3.3826
  183DOPC   C1522429   0.455   6.214   2.824 -0.1553  0.2128 -0.1989
  183DOPC  H15A22430   0.517   6.246   2.906  0.7661  0.2105 -0.8798
  183DOPC  H15B22431   0.360   6.265   2.831 -0.1950  0.1057  0.0765
  183DOPC  H15C22432   0.504   6.233   2.730  1.3012  0.1042  0.5158
  183DOPC   C1122433   0.181   6.053   2.761  0.9872  0.1060 -0.7878
  183DOPC  H11A22434   0.159   6.161   2.775 -0.7068 -0.4183  0.9075
  183DOPC  H11B22435   0.136   6.023   2.664 -1.0072 -0.7167  0.3442
  183DOPC     P22436   0.113   5.830   2.873  0.0039 -0.1077 -0.2084
  183DOPC   O1322437   0.245   5.769   2.880  0.0849 -0.6004  0.1028
  183DOPC   O1422438   0.015   5.788   2.770  0.3394  0.8033  0.4199
  183DOPC   O1222439   0.120   5.989   2.873 -0.1662  0.1444  0.2001
  183DOPC   O1122440   0.040   5.804   3.008 -0.3793 -0.0970  0.1424
  183DOPC    C122441   0.070   5.884   3.126 -1.0092 -0.5256 -0.1346
  183DOPC    HA22442   0.008   5.974   3.111 -1.0106 -0.3004  1.0890
  183DOPC    HB22443   0.178   5.907   3.138 -1.3599  0.4002  1.5449
  183DOPC    C222444   0.031   5.821   3.266 -0.1630  0.3847  0.4018
  183DOPC    HS22445   0.069   5.894   3.340  0.3805 -1.6495  2.2299
  183DOPC   O2122446   0.093   5.691   3.275  0.3074 -0.2253 -0.0724
  183DOPC   C2122447   0.221   5.690   3.299  0.1346 -0.3897 -0.0476
  183DOPC   O2222448   0.283   5.788   3.334 -0.2546  0.4369 -0.1021
  183DOPC   C2222449   0.278   5.554   3.256  0.5849 -0.0369 -0.7019
  183DOPC   H2R22450   0.328   5.572   3.159  0.8435 -1.9809 -0.9825
  183DOPC   H2S22451   0.195   5.483   3.236  1.1299 -1.5179  1.7832
  183DOPC    C322452  -0.118   5.808   3.285  0.5348 -0.0674  0.2099
  183DOPC    HX22453  -0.152   5.770   3.187  0.5628  2.6286 -0.9237
  183DOPC    HY22454  -0.165   5.907   3.304  0.0949 -0.4434  1.2013
  183DOPC   O3122455  -0.144   5.723   3.396  0.1467 -0.0847  0.4629
  183DOPC   C3122456  -0.173   5.593   3.377 -0.7408 -0.0730  0.6690
  183DOPC   O3222457  -0.189   5.543   3.269 -0.0645  1.2722  0.1822
  183DOPC   C3222458  -0.189   5.514   3.509  0.1587  0.0247  0.1627
  183DOPC   H2X22459  -0.297   5.529   3.529 -0.1013  3.0335 -2.6829
  183DOPC   H2Y22460  -0.175   5.404   3.506 -0.1632 -0.0372  0.7431
  183DOPC   C2322461   0.386   5.495   3.349  0.0017 -0.2084 -0.0030
  183DOPC   H3R22462   0.448   5.577   3.393 -0.0673 -1.2869  2.2455
  183DOPC   H3S22463   0.443   5.424   3.285 -1.3173  1.3234 -3.0723
  183DOPC   C2422464   0.312   5.429   3.467 -0.2065  0.7555 -0.1940
  183DOPC   H4R22465   0.256   5.339   3.435  1.4462 -0.6479  0.7203
  183DOPC   H4S22466   0.253   5.514   3.507  0.1362 -0.1945  2.4892
  183DOPC   C2522467   0.406   5.367   3.575 -0.4164  0.2089  0.6747
  183DOPC   H5R22468   0.472   5.454   3.594  0.5835 -0.3585 -0.1262
  183DOPC   H5S22469   0.462   5.284   3.527  0.0254 -0.1497  1.7647
  183DOPC   C2622470   0.335   5.334   3.709 -0.3159  1.0695  0.0650
  183DOPC   H6R22471   0.246   5.272   3.686 -0.8355  1.7750  0.1206
  183DOPC   H6S22472   0.303   5.427   3.761 -1.3598  1.5856 -1.4159
  183DOPC   C2722473   0.421   5.254   3.819  0.6126  0.1489  1.4460
  183DOPC   H7R22474   0.521   5.303   3.822  0.8958  0.0534 -1.8851
  183DOPC   H7S22475   0.428   5.155   3.769 -5.1698  0.3372 -0.4367
  183DOPC   C2822476   0.359   5.253   3.957 -0.3082 -0.8864 -0.5802
  183DOPC   H8R22477   0.261   5.202   3.949  0.1632 -2.0906  0.7837
  183DOPC   H8S22478   0.358   5.360   3.985 -0.3686 -0.5809 -1.7133
  183DOPC   C2922479   0.446   5.182   4.056 -0.2341 -0.4273  0.2103
  183DOPC   H9R22480   0.418   5.075   4.053 -1.8542 -0.1064  2.0586
  183DOPC  C21022481   0.535   5.231   4.142  0.2055 -0.4210 -0.3086
  183DOPC  H10R22482   0.594   5.158   4.199 -0.2697 -0.4380  0.1680
  183DOPC  C21122483   0.570   5.374   4.178  0.2729 -0.1322 -0.1477
  183DOPC  H11R22484   0.540   5.386   4.285  0.2638 -1.2242 -0.0180
  183DOPC  H11S22485   0.516   5.451   4.119 -0.0149  0.8225  1.3037
  183DOPC  C21222486   0.721   5.415   4.151  0.1270 -0.0404 -0.2636
  183DOPC  H12R22487   0.714   5.426   4.040 -1.3716 -2.6230 -0.5019
  183DOPC  H12S22488   0.795   5.339   4.184 -0.1052  0.0391  0.4437
  183DOPC  C21322489   0.775   5.543   4.215 -0.1032 -0.2949 -0.1109
  183DOPC  H13R22490   0.708   5.627   4.184 -2.8451 -2.2050  0.2823
  183DOPC  H13S22491   0.875   5.559   4.171  0.1085 -2.6645 -0.5893
  183DOPC  C21422492   0.768   5.538   4.373  0.4980  0.5833 -0.1831
  183DOPC  H14R22493   0.670   5.522   4.422  1.5724 -2.0097  1.3084
  183DOPC  H14S22494   0.810   5.634   4.408  1.4765  0.0572  0.1243
  183DOPC  C21522495   0.867   5.434   4.430  0.1408 -0.1401 -0.1244
  183DOPC  H15R22496   0.955   5.423   4.364 -0.4437 -2.0819 -0.6721
  183DOPC  H15S22497   0.832   5.329   4.419  1.4407 -0.5595 -0.3896
  183DOPC  C21622498   0.912   5.457   4.574 -1.4187 -0.6022 -0.3872
  183DOPC  H16R22499   0.943   5.560   4.601 -1.4374 -1.3300  2.7961
  183DOPC  H16S22500   1.002   5.393   4.589 -1.9881 -1.0938  1.0651
  183DOPC  C21722501   0.814   5.400   4.674  1.2293  0.6653 -0.0184
  183DOPC  H17R22502   0.806   5.291   4.652 -0.8137  0.7024  0.4014
  183DOPC  H17S22503   0.714   5.444   4.655 -0.8447 -2.9382  1.4275
  183DOPC  C21822504   0.850   5.422   4.817  0.2774 -0.1007  0.3848
  183DOPC  H18R22505   0.946   5.367   4.827  0.4763 -0.1756 -1.5121
  183DOPC  H18S22506   0.762   5.385   4.872  0.3128 -1.0952 -0.2187
  183DOPC  H18T22507   0.868   5.527   4.850 -2.7012  1.4889 -2.4693
  183DOPC   C3322508  -0.104   5.578   3.623  0.3623 -0.4874  0.0581
  183DOPC   H3X22509  -0.126   5.687   3.625  3.8902  0.3380  2.5338
  183DOPC   H3Y22510   0.005   5.574   3.600  0.3086  1.5816 -0.7540
  183DOPC   C3422511  -0.132   5.520   3.756 -0.1832  0.1087 -0.6227
  183DOPC   H4X22512  -0.103   5.412   3.751  1.8955  0.6635 -2.7762
  183DOPC   H4Y22513  -0.240   5.526   3.782  0.4620  1.0819  2.2380
  183DOPC   C3522514  -0.054   5.588   3.867  0.3965  0.0682  0.4322
  183DOPC   H5X22515  -0.105   5.686   3.879 -0.4365 -0.3016 -0.0093
  183DOPC   H5Y22516   0.040   5.591   3.807 -0.5320 -0.1367 -1.0828
  183DOPC   C3622517  -0.041   5.502   3.991 -0.2132 -0.8166  0.6964
  183DOPC   H6X22518  -0.146   5.486   4.024  0.1813 -2.0229  1.4384
  183DOPC   H6Y22519   0.011   5.407   3.966 -1.4713 -1.1723 -0.6444
  183DOPC   C3722520   0.032   5.578   4.099  0.0860 -0.1728  0.3103
  183DOPC   H7X22521   0.136   5.604   4.073 -0.4635  1.0029 -0.8107
  183DOPC   H7Y22522  -0.020   5.676   4.110 -1.6143 -0.8651 -0.9664
  183DOPC   C3822523   0.018   5.507   4.230  0.0127  1.0751 -0.9416
  183DOPC   H8X22524  -0.083   5.468   4.256  1.0144 -0.2541  1.1854
  183DOPC   H8Y22525   0.045   5.579   4.311  0.1143  0.2382 -0.2159
  183DOPC   C3922526   0.117   5.392   4.232  0.2187  0.2702  0.4369
  183DOPC   H9X22527   0.106   5.319   4.150 -0.8860 -0.6275  1.3575
  183DOPC  C31022528   0.214   5.369   4.320 -0.2564 -0.4461 -0.0358
  183DOPC  H10X22529   0.287   5.291   4.291  0.7367  0.5161 -0.1868
  183DOPC  C31122530   0.241   5.451   4.439 -0.0660 -0.2158 -0.4809
  183DOPC  H11X22531   0.150   5.488   4.492 -0.4402 -1.6428 -0.0657
  183DOPC  H11Y22532   0.305   5.537   4.410  0.9046 -0.6857  0.2010
  183DOPC  C31222533   0.330   5.379   4.540  0.1176  0.2483 -0.2622
  183DOPC  H12X22534   0.411   5.314   4.500 -0.7533 -0.6001 -0.6688
  183DOPC  H12Y22535   0.268   5.305   4.594 -1.0192  0.2621 -1.5042
  183DOPC  C31322536   0.401   5.478   4.634 -0.7108  0.1674  0.0372
  183DOPC  H13X22537   0.491   5.520   4.585  0.6424 -2.5009  0.0431
  183DOPC  H13Y22538   0.324   5.556   4.652  0.4912  1.3653  0.1515
  183DOPC  C31422539   0.439   5.419   4.770 -0.1979 -0.3183 -0.1404
  183DOPC  H14X22540   0.473   5.314   4.755  1.3358  0.4660 -2.9573
  183DOPC  H14Y22541   0.523   5.487   4.800 -0.9538  0.9757 -0.8711
  183DOPC  C31522542   0.326   5.422   4.878 -0.0233  0.1689  0.0994
  183DOPC  H15X22543   0.249   5.363   4.824 -0.5880  1.5865 -0.7063
  183DOPC  H15Y22544   0.296   5.529   4.890  0.3806  0.3248 -0.2671
  183DOPC  C31622545   0.360   5.359   5.010 -0.5006 -0.9860 -0.2781
  183DOPC  H16X22546   0.406   5.257   5.006  1.4406 -0.1707  0.1037
  183DOPC  H16Y22547   0.435   5.419   5.066 -1.2396 -0.3380  0.0335
  183DOPC  C31722548   0.220   5.360   5.091 -0.1276 -0.0849 -0.1608
  183DOPC  H17X22549   0.170   5.460   5.090  0.3745  0.2211  1.8185
  183DOPC  H17Y22550   0.157   5.284   5.040  1.7067 -1.5740 -0.3060
  183DOPC  C31822551   0.229   5.310   5.231  0.3518  0.3072 -0.1883
  183DOPC  H18X22552   0.133   5.287   5.282  0.1223  0.6795 -0.4430
  183DOPC  H18Y22553   0.286   5.215   5.228  1.3187  0.8639  0.0675
  183DOPC  H18Z22554   0.267   5.391   5.296 -0.0800  1.7762 -1.6939
  184DOPC     N22555   5.546   0.007   2.811  0.8935 -0.3696 -0.0091
  184DOPC   C1222556   5.464  -0.052   2.920  0.2917 -0.0090  0.1954
  184DOPC  H12A22557   5.525  -0.128   2.968 -0.3342 -2.4045 -2.5293
  184DOPC  H12B22558   5.381  -0.098   2.869  0.6963  2.9381 -3.5049
  184DOPC   C1322559   5.597  -0.093   2.715  0.1245 -0.8832  0.4962
  184DOPC  H13A22560   5.524  -0.161   2.673 -1.8862  0.0338  2.3285
  184DOPC  H13B22561   5.644  -0.039   2.634 -0.0916 -0.5126  0.6165
  184DOPC  H13C22562   5.675  -0.154   2.759  0.8088 -0.7102 -0.4599
  184DOPC   C1422563   5.673   0.074   2.872  0.9326 -0.8404 -0.4868
  184DOPC  H14A22564   5.734   0.129   2.802  1.7561 -1.4785 -0.2857
  184DOPC  H14B22565   5.645   0.141   2.952  1.3072 -1.2908  0.0289
  184DOPC  H14C22566   5.730  -0.006   2.918 -1.1256 -1.6765  0.7535
  184DOPC   C1522567   5.458   0.103   2.732  0.5023 -0.4451 -0.2037
  184DOPC  H15A22568   5.410   0.177   2.795 -0.4196 -0.8951 -0.3675
  184DOPC  H15B22569   5.390   0.038   2.680  1.5722 -2.2478  0.5488
  184DOPC  H15C22570   5.516   0.166   2.665  0.2759  0.6379  0.5910
  184DOPC   C1122571   5.408   0.033   3.036  0.1764  0.3226  0.1799
  184DOPC  H11A22572   5.359  -0.029   3.114  0.5314 -1.8256 -1.2275
  184DOPC  H11B22573   5.494   0.071   3.095  0.5576  0.4743 -0.4642
  184DOPC     P22574   5.181   0.113   2.962 -0.2649  0.0115  0.4084
  184DOPC   O1322575   5.156  -0.032   2.977 -0.1390  0.1652  0.1530
  184DOPC   O1422576   5.162   0.176   2.827  0.7965  0.2185  0.1050
  184DOPC   O1222577   5.328   0.140   3.001  0.0419 -0.4203  0.1033
  184DOPC   O1122578   5.101   0.192   3.069  0.4034 -0.0858  0.0892
  184DOPC    C122579   5.156   0.247   3.190  1.1018 -0.1916 -0.3769
  184DOPC    HA22580   5.230   0.179   3.239 -2.5758 -3.3909  1.2474
  184DOPC    HB22581   5.070   0.259   3.259 -0.1518 -1.4525 -1.6679
  184DOPC    C222582   5.216   0.387   3.180 -0.1974 -0.0886 -0.6243
  184DOPC    HS22583   5.319   0.389   3.137 -0.6532  2.2018 -1.7904
  184DOPC   O2122584   5.226   0.426   3.318  0.0935 -0.2455 -0.1901
  184DOPC   C2122585   5.305   0.528   3.353 -0.2013  0.1438  1.2361
  184DOPC   O2222586   5.368   0.598   3.280 -0.5217  0.2950 -0.4343
  184DOPC   C2222587   5.306   0.533   3.506 -0.0479 -0.0559  0.6737
  184DOPC   H2R22588   5.383   0.464   3.547  1.8021 -0.4078 -3.0354
  184DOPC   H2S22589   5.207   0.502   3.546  0.7820  1.5632  4.4822
  184DOPC    C322590   5.140   0.488   3.099  0.0314 -0.3005 -0.1539
  184DOPC    HX22591   5.126   0.438   3.001  0.5208 -0.5397 -0.1065
  184DOPC    HY22592   5.204   0.578   3.090 -0.5943  0.2665  0.9015
  184DOPC   O3122593   5.010   0.515   3.155  0.6537 -0.1756 -0.3431
  184DOPC   C3122594   4.918   0.558   3.065  0.4123  0.3277  0.6273
  184DOPC   O3222595   4.940   0.593   2.952  0.2413 -0.0597  1.1099
  184DOPC   C3222596   4.778   0.568   3.133 -0.3091  0.5737  0.4292
  184DOPC   H2X22597   4.702   0.566   3.053 -1.0627 -0.1962  1.1477
  184DOPC   H2Y22598   4.762   0.475   3.192  0.0848 -1.2120 -2.1169
  184DOPC   C2322599   5.331   0.671   3.554 -0.4284 -0.5700 -0.2656
  184DOPC   H3R22600   5.244   0.733   3.524  1.4631  2.3282 -0.1883
  184DOPC   H3S22601   5.427   0.712   3.515 -1.0251  0.0496 -1.1128
  184DOPC   C2422602   5.331   0.683   3.703  0.4112 -0.2532  0.3432
  184DOPC   H4R22603   5.369   0.785   3.725  2.2143  0.5858 -5.1142
  184DOPC   H4S22604   5.407   0.613   3.744  1.1085  0.3075  0.0363
  184DOPC   C2522605   5.195   0.661   3.777 -0.3936 -0.8849 -0.2855
  184DOPC   H5R22606   5.178   0.554   3.799 -0.7489 -0.6886  0.4211
  184DOPC   H5S22607   5.122   0.712   3.710 -0.3365 -0.1678  0.1798
  184DOPC   C2622608   5.184   0.733   3.913  0.0867 -0.3538 -0.4165
  184DOPC   H6R22609   5.088   0.709   3.963 -0.0667 -0.2775 -0.6730
  184DOPC   H6S22610   5.189   0.842   3.891 -2.1794 -0.0100  0.4592
  184DOPC   C2722611   5.301   0.714   4.015 -0.2919 -0.8060 -0.1571
  184DOPC   H7R22612   5.397   0.694   3.961  0.1764 -3.1722  1.4160
  184DOPC   H7S22613   5.285   0.616   4.063  2.4897 -1.5468 -0.5791
  184DOPC   C2822614   5.303   0.827   4.125  0.2843  0.3436  0.3350
  184DOPC   H8R22615   5.307   0.925   4.073  0.1507  0.7892  1.1480
  184DOPC   H8S22616   5.401   0.791   4.162 -0.5794 -3.3852 -0.5708
  184DOPC   C2922617   5.194   0.807   4.232 -0.9151 -1.1627 -0.0357
  184DOPC   H9R22618   5.089   0.788   4.202 -1.2426 -0.4932  0.6532
  184DOPC  C21022619   5.211   0.820   4.366 -0.1934  0.0881  0.4292
  184DOPC  H10R22620   5.123   0.798   4.429 -0.3870  1.7570  0.7952
  184DOPC  C21122621   5.346   0.851   4.427  0.3568  0.0933  0.1355
  184DOPC  H11R22622   5.421   0.849   4.344 -1.4554 -3.8502 -1.6927
  184DOPC  H11S22623   5.378   0.759   4.481 -0.5801  0.9375  2.2011
  184DOPC  C21222624   5.353   0.978   4.508  0.3380  0.0933  0.6531
  184DOPC  H12R22625   5.308   1.055   4.441  2.1178  2.0489  1.5692
  184DOPC  H12S22626   5.457   1.013   4.526  1.0897 -2.6987  2.2640
  184DOPC  C21322627   5.275   0.987   4.638  0.1895 -0.1544 -0.2985
  184DOPC  H13R22628   5.168   0.995   4.608  0.1993 -3.2904 -1.6278
  184DOPC  H13S22629   5.320   1.071   4.695  3.3222 -0.1834 -2.4290
  184DOPC  C21422630   5.288   0.858   4.726  0.1120 -0.3171 -0.1397
  184DOPC  H14R22631   5.397   0.846   4.746  0.3232  0.2076 -0.9034
  184DOPC  H14S22632   5.264   0.770   4.662  0.4819  1.0504 -2.2440
  184DOPC  C21522633   5.208   0.861   4.859  0.1878 -0.1916  0.4369
  184DOPC  H15R22634   5.103   0.844   4.828  0.8147 -0.8633 -1.4018
  184DOPC  H15S22635   5.218   0.958   4.911 -1.8112 -0.2111  0.9298
  184DOPC  C21622636   5.262   0.737   4.942 -0.6361 -0.4934  0.2908
  184DOPC  H16R22637   5.338   0.782   5.009  0.7167  1.3548 -2.3009
  184DOPC  H16S22638   5.328   0.674   4.879  1.7281 -0.4545  2.6017
  184DOPC  C21722639   5.141   0.666   5.001  0.1959  0.8394  0.6466
  184DOPC  H17R22640   5.165   0.580   5.066 -2.6965 -0.9076 -0.4035
  184DOPC  H17S22641   5.074   0.623   4.923 -0.6993 -0.0581  1.8721
  184DOPC  C21822642   5.048   0.761   5.082 -0.5323  0.4870 -0.3244
  184DOPC  H18R22643   5.102   0.806   5.169 -1.1097 -0.8773  0.7819
  184DOPC  H18S22644   4.970   0.696   5.128  1.4576 -1.3254  0.7159
  184DOPC  H18T22645   5.004   0.848   5.030 -1.0710  1.8674  2.2775
  184DOPC   C3322646   4.757   0.691   3.221 -0.6161  0.3586  0.1603
  184DOPC   H3X22647   4.647   0.688   3.235 -0.8138  1.3074 -1.0350
  184DOPC   H3Y22648   4.777   0.788   3.171 -2.4247  0.6399 -0.0780
  184DOPC   C3422649   4.819   0.683   3.357  0.3254 -0.0378 -0.6085
  184DOPC   H4X22650   4.926   0.711   3.348  0.4615 -0.4962 -0.4634
  184DOPC   H4Y22651   4.813   0.582   3.404  0.9757  0.8638  1.5292
  184DOPC   C3522652   4.754   0.779   3.457 -0.3272 -0.1721  0.6212
  184DOPC   H5X22653   4.644   0.778   3.445 -0.4843  0.0486  1.9061
  184DOPC   H5Y22654   4.789   0.880   3.427  0.3306 -0.7075 -0.4620
  184DOPC   C3622655   4.794   0.751   3.597  0.8199 -1.0764 -0.6521
  184DOPC   H6X22656   4.758   0.651   3.631 -0.9157 -0.3478 -0.2470
  184DOPC   H6Y22657   4.904   0.758   3.611  0.4795  0.1292  1.9681
  184DOPC   C3722658   4.713   0.847   3.689  0.6896 -0.1835 -0.0845
  184DOPC   H7X22659   4.774   0.934   3.722 -2.6569  2.0919  0.5494
  184DOPC   H7Y22660   4.625   0.885   3.634  0.9764 -1.8118 -1.8073
  184DOPC   C3822661   4.652   0.790   3.819  0.1882  0.1999  0.1117
  184DOPC   H8X22662   4.584   0.705   3.796  2.2420 -1.8467  1.1554
  184DOPC   H8Y22663   4.604   0.871   3.877  2.8061  1.0205  1.2833
  184DOPC   C3922664   4.752   0.728   3.912 -0.0580 -0.3943 -0.1134
  184DOPC   H9X22665   4.754   0.619   3.904 -1.7213 -0.2961 -2.8700
  184DOPC  C31022666   4.817   0.791   4.012  0.6935 -0.3835  0.1903
  184DOPC  H10X22667   4.879   0.732   4.080  0.1178 -0.9234  0.2604
  184DOPC  C31122668   4.788   0.939   4.052 -0.0210 -0.5488 -0.3542
  184DOPC  H11X22669   4.710   0.983   3.986 -0.6004 -0.3558  0.4469
  184DOPC  H11Y22670   4.880   1.001   4.048 -0.1159 -0.4682 -2.0564
  184DOPC  C31222671   4.729   0.935   4.199  0.0916  0.3455  0.1245
  184DOPC  H12X22672   4.642   0.867   4.195  0.0458  0.4554 -0.9490
  184DOPC  H12Y22673   4.695   1.039   4.216  1.3822  0.9102 -0.5322
  184DOPC  C31322674   4.828   0.894   4.309 -0.3773 -0.7047  0.9205
  184DOPC  H13X22675   4.840   0.783   4.304  0.6622 -0.5457 -1.3567
  184DOPC  H13Y22676   4.930   0.928   4.283 -0.6169 -0.1216  0.7267
  184DOPC  C31422677   4.786   0.949   4.438  0.6380 -0.2620 -0.9148
  184DOPC  H14X22678   4.800   1.059   4.440 -1.7100  0.0867 -0.9589
  184DOPC  H14Y22679   4.680   0.922   4.458  0.6327  0.1802 -0.2861
  184DOPC  C31522680   4.860   0.885   4.558  0.4130  0.3856  0.2637
  184DOPC  H15X22681   4.961   0.930   4.561  1.1656 -1.1207 -1.3086
  184DOPC  H15Y22682   4.861   0.777   4.535 -0.8540  0.9715 -3.2142
  184DOPC  C31622683   4.791   0.910   4.690 -0.3379  0.2987 -0.8384
  184DOPC  H16X22684   4.688   0.868   4.687  0.2564 -1.4972  1.0762
  184DOPC  H16Y22685   4.843   0.857   4.773 -1.0620 -0.4372 -0.8416
  184DOPC  C31722686   4.794   1.064   4.723 -0.0115 -0.2241 -0.4651
  184DOPC  H17X22687   4.885   1.117   4.687  0.6439 -0.8351  0.2331
  184DOPC  H17Y22688   4.718   1.116   4.661  0.5132 -0.5636 -1.4012
  184DOPC  C31822689   4.773   1.108   4.870  0.0925  0.1307 -0.2072
  184DOPC  H18X22690   4.845   1.058   4.939 -0.6822 -1.1186 -0.2732
  184DOPC  H18Y22691   4.782   1.218   4.877  1.0267  0.0785 -0.3682
  184DOPC  H18Z22692   4.674   1.074   4.906  0.6307  0.0176  1.2463
  185DOPC     N22693   7.194   6.481   2.591  0.2052 -0.2721  0.7341
  185DOPC   C1222694   7.213   6.444   2.730  0.5566  0.3060  0.1825
  185DOPC  H12A22695   7.138   6.376   2.768  1.5099 -1.3224 -0.7121
  185DOPC  H12B22696   7.188   6.529   2.792 -1.4681 -1.7588  2.4118
  185DOPC   C1322697   7.193   6.359   2.500 -0.5545 -0.0592 -0.1545
  185DOPC  H13A22698   7.134   6.278   2.540  0.5189 -0.6521  0.2936
  185DOPC  H13B22699   7.157   6.377   2.400 -2.4607 -2.0787  0.0969
  185DOPC  H13C22700   7.289   6.313   2.478 -1.1135 -1.2562 -0.1937
  185DOPC   C1422701   7.303   6.569   2.531  0.2216  0.4248 -0.1402
  185DOPC  H14A22702   7.312   6.656   2.595 -0.3256 -0.9528  1.9193
  185DOPC  H14B22703   7.390   6.509   2.555 -1.7346 -1.6380  2.4617
  185DOPC  H14C22704   7.290   6.574   2.424 -0.7899 -2.7359 -0.2719
  185DOPC   C1522705   7.060   6.553   2.572  0.4199  0.3437  0.0314
  185DOPC  H15A22706   7.055   6.600   2.474  0.8960 -0.6773 -0.4970
  185DOPC  H15B22707   7.043   6.625   2.650  1.6959  0.3683  0.2951
  185DOPC  H15C22708   6.984   6.479   2.594 -0.8166  1.5526  0.0239
  185DOPC   C1122709   7.348   6.390   2.774  0.7070 -0.3468  0.0312
  185DOPC  H11A22710   7.335   6.319   2.859  2.1395 -0.7272 -0.0513
  185DOPC  H11B22711   7.395   6.333   2.691 -1.6554 -1.6346 -0.5250
  185DOPC     P22712   7.580   6.515   2.813 -0.5024  0.4376 -0.0886
  185DOPC   O1322713   7.603   6.640   2.733 -0.5171  0.4409 -0.0072
  185DOPC   O1422714   7.646   6.390   2.756 -0.6284  0.5094 -0.0837
  185DOPC   O1222715   7.421   6.496   2.827 -0.2589  0.2851 -0.1135
  185DOPC   O1122716   7.635   6.532   2.959  0.3672 -0.4117 -0.1748
  185DOPC    C122717   7.544   6.544   3.072 -0.3330 -0.8511 -0.3722
  185DOPC    HA22718   7.457   6.474   3.067 -0.4166 -0.7937  0.1771
  185DOPC    HB22719   7.497   6.645   3.073  0.7252 -0.3377 -0.9935
  185DOPC    C222720   7.619   6.525   3.209  0.0994  0.3759  0.4840
  185DOPC    HS22721   7.661   6.422   3.206 -0.8036  0.0160  0.1184
  185DOPC   O2122722   7.513   6.546   3.301 -0.2709  0.2634  0.4187
  185DOPC   C2122723   7.536   6.486   3.408 -0.2726 -0.0628 -0.5707
  185DOPC   O2222724   7.640   6.437   3.452 -0.2123  1.1065  0.3204
  185DOPC   C2222725   7.414   6.496   3.496  0.0324 -0.3270 -0.9694
  185DOPC   H2R22726   7.319   6.505   3.439 -0.1180 -0.9005 -0.8169
  185DOPC   H2S22727   7.425   6.580   3.568 -1.6865  0.0216 -1.0513
  185DOPC    C322728   7.729   6.634   3.211 -0.3063 -0.0228 -0.1071
  185DOPC    HX22729   7.696   6.739   3.194 -2.2234 -0.6998 -0.8060
  185DOPC    HY22730   7.795   6.604   3.127  0.8579 -0.3291  0.8904
  185DOPC   O3122731   7.814   6.626   3.330 -0.1802 -0.3454  0.8470
  185DOPC   C3122732   7.766   6.683   3.438  0.1006 -1.1176 -0.1760
  185DOPC   O3222733   7.670   6.756   3.449  0.3358  0.2683 -0.1474
  185DOPC   C3222734   7.877   6.665   3.544 -0.0454  0.1552  0.5908
  185DOPC   H2X22735   7.873   6.556   3.562  0.7443 -0.4847 -2.5919
  185DOPC   H2Y22736   7.980   6.693   3.513 -0.3018  0.5245  0.0658
  185DOPC   C2322737   7.388   6.372   3.584  0.0975 -0.6276  0.2278
  185DOPC   H3R22738   7.458   6.378   3.670  1.6995 -1.3244 -0.9698
  185DOPC   H3S22739   7.404   6.283   3.519  1.8970  0.6214 -1.1034
  185DOPC   C2422740   7.242   6.381   3.635 -0.5982 -0.6806 -0.0049
  185DOPC   H4R22741   7.178   6.361   3.547 -0.9302 -1.9551  0.5091
  185DOPC   H4S22742   7.219   6.488   3.658  0.5796 -0.3315 -0.3683
  185DOPC   C2522743   7.203   6.306   3.766 -0.4506 -0.2524  0.1003
  185DOPC   H5R22744   7.268   6.327   3.853 -0.7117  0.7734  0.0550
  185DOPC   H5S22745   7.218   6.196   3.754 -0.4970 -0.3762  1.0737
  185DOPC   C2622746   7.055   6.308   3.810 -0.6027 -0.8014  0.3339
  185DOPC   H6R22747   7.047   6.250   3.904  0.9567  0.6404  1.4033
  185DOPC   H6S22748   6.994   6.262   3.728 -2.5882  1.1667  0.6061
  185DOPC   C2722749   6.996   6.450   3.824  0.0633  0.4464 -0.1660
  185DOPC   H7R22750   7.004   6.518   3.737 -1.6680  0.8509 -0.0339
  185DOPC   H7S22751   7.049   6.494   3.911 -0.5912  1.9829 -0.5146
  185DOPC   C2822752   6.851   6.435   3.860 -0.1257  0.3631 -0.0267
  185DOPC   H8R22753   6.856   6.370   3.950  1.6625  1.5008  0.7468
  185DOPC   H8S22754   6.796   6.383   3.779 -1.0776 -1.9022  1.9254
  185DOPC   C2922755   6.795   6.571   3.884  0.1520 -0.2684 -1.0931
  185DOPC   H9R22756   6.753   6.617   3.793  0.8909 -1.0419 -1.8406
  185DOPC  C21022757   6.753   6.632   4.003 -0.4274  0.4959  0.2291
  185DOPC  H10R22758   6.715   6.735   3.998 -0.0347  0.5903 -1.7218
  185DOPC  C21122759   6.772   6.559   4.139 -0.4573  0.0699  0.0734
  185DOPC  H11R22760   6.723   6.459   4.128 -1.2462  0.4705 -0.0996
  185DOPC  H11S22761   6.707   6.610   4.213 -1.3331  0.6923 -1.0936
  185DOPC  C21222762   6.926   6.551   4.176  0.0749  0.0236 -0.1679
  185DOPC  H12R22763   6.970   6.652   4.166  0.6933 -0.1986  0.2779
  185DOPC  H12S22764   6.980   6.487   4.103  1.5054 -1.8359  2.3873
  185DOPC  C21322765   6.953   6.487   4.312 -0.9300  0.4644 -0.2852
  185DOPC  H13R22766   6.925   6.380   4.305  0.4410  0.0048  0.7220
  185DOPC  H13S22767   6.883   6.538   4.381 -0.2342  0.1225  0.7030
  185DOPC  C21422768   7.097   6.489   4.386  0.4106  0.2752 -0.0812
  185DOPC  H14R22769   7.075   6.442   4.484  0.1038 -1.1893 -0.8283
  185DOPC  H14S22770   7.128   6.596   4.387 -0.3658  0.6077 -2.6496
  185DOPC  C21522771   7.196   6.395   4.311  0.5521  0.0161 -0.2076
  185DOPC  H15R22772   7.221   6.457   4.223 -1.3314 -1.2570 -1.7031
  185DOPC  H15S22773   7.147   6.308   4.263 -0.7098  0.7034 -0.2050
  185DOPC  C21622774   7.321   6.365   4.391  0.2762 -0.0868  0.4255
  185DOPC  H16R22775   7.366   6.463   4.418  0.6231 -0.2485  0.4420
  185DOPC  H16S22776   7.393   6.308   4.328  0.1596  0.8074 -0.5553
  185DOPC  C21722777   7.304   6.278   4.513  0.1746  0.0188 -0.0277
  185DOPC  H17R22778   7.284   6.171   4.488  1.1641 -0.1406 -0.1712
  185DOPC  H17S22779   7.218   6.316   4.572  0.4723 -1.0544  1.1283
  185DOPC  C21822780   7.436   6.282   4.600 -0.2379  0.2521 -0.1097
  185DOPC  H18R22781   7.521   6.278   4.529 -0.4307 -0.3179 -0.3096
  185DOPC  H18S22782   7.440   6.186   4.655  0.9096 -1.2775 -2.6879
  185DOPC  H18T22783   7.441   6.364   4.676 -0.8432  0.7587 -0.5996
  185DOPC   C3322784   7.837   6.742   3.674 -0.0884  0.2807 -1.0465
  185DOPC   H3X22785   7.806   6.848   3.667  0.4790  0.6904  1.6138
  185DOPC   H3Y22786   7.923   6.740   3.743  0.6816  1.4192 -1.9491
  185DOPC   C3422787   7.722   6.673   3.754  0.3843  0.4954  0.1908
  185DOPC   H4X22788   7.748   6.571   3.789  3.0539  1.4385  1.2360
  185DOPC   H4Y22789   7.644   6.656   3.677 -0.2127 -1.9859  1.2488
  185DOPC   C3522790   7.660   6.753   3.867 -0.0454  0.0030  0.3545
  185DOPC   H5X22791   7.563   6.708   3.896 -0.2390 -0.4495 -0.9362
  185DOPC   H5Y22792   7.642   6.858   3.836  1.0998  0.6690  1.8272
  185DOPC   C3622793   7.754   6.758   3.990 -0.3913 -0.7814 -0.2519
  185DOPC   H6X22794   7.779   6.651   4.012  1.3320 -0.1127  1.3060
  185DOPC   H6Y22795   7.849   6.807   3.961 -1.1244  0.7781 -0.0743
  185DOPC   C3722796   7.700   6.845   4.099 -0.0793 -0.2878 -0.5855
  185DOPC   H7X22797   7.686   6.946   4.054  1.2595  0.0198 -0.3511
  185DOPC   H7Y22798   7.601   6.813   4.140 -0.2726 -1.4815 -1.9156
  185DOPC   C3822799   7.792   6.865   4.228 -0.0724  0.3189  0.1869
  185DOPC   H8X22800   7.880   6.928   4.203 -0.7305  1.2890  0.2536
  185DOPC   H8Y22801   7.824   6.764   4.261  1.1446  0.6503  0.0919
  185DOPC   C3922802   7.720   6.938   4.337  0.5580 -0.1372 -0.0943
  185DOPC   H9X22803   7.695   7.044   4.323  1.5419  0.3781  1.7319
  185DOPC  C31022804   7.669   6.884   4.455  0.1471  0.0645  0.3870
  185DOPC  H10X22805   7.602   6.946   4.516 -1.3229 -0.7917 -0.2868
  185DOPC  C31122806   7.681   6.740   4.504  0.3320 -0.2332 -0.5349
  185DOPC  H11X22807   7.733   6.736   4.602 -1.2679  4.0587  0.6843
  185DOPC  H11Y22808   7.744   6.672   4.441  2.2859 -1.6834  2.7443
  185DOPC  C31222809   7.539   6.681   4.495  0.1347  0.0115  0.1400
  185DOPC  H12X22810   7.539   6.572   4.514 -1.0280 -0.1757 -0.8571
  185DOPC  H12Y22811   7.489   6.681   4.396 -2.1362 -0.2829  1.2266
  185DOPC  C31322812   7.445   6.750   4.598 -0.4063  0.5891  0.2608
  185DOPC  H13X22813   7.439   6.860   4.583  0.4520  0.7569  1.0266
  185DOPC  H13Y22814   7.344   6.706   4.587  0.7517 -2.3672  0.5162
  185DOPC  C31422815   7.482   6.723   4.746  0.1833  0.0086 -0.6806
  185DOPC  H14X22816   7.480   6.619   4.785  1.5442  0.9051  2.0508
  185DOPC  H14Y22817   7.586   6.741   4.782 -0.4142 -1.9873  2.4088
  185DOPC  C31522818   7.382   6.796   4.844  0.5671  0.1769 -0.2064
  185DOPC  H15X22819   7.278   6.764   4.821  0.6189 -0.4172  0.3576
  185DOPC  H15Y22820   7.383   6.905   4.827 -0.1450  0.7206  2.7117
  185DOPC  C31622821   7.416   6.763   4.984  0.1330 -0.2311  0.3716
  185DOPC  H16X22822   7.382   6.658   4.996 -1.8549  0.4791  1.3506
  185DOPC  H16Y22823   7.526   6.771   4.999 -0.2309  2.9470  2.5617
  185DOPC  C31722824   7.351   6.850   5.092  0.1335  0.1251  0.3759
  185DOPC  H17X22825   7.241   6.845   5.080 -0.1018  0.9586  1.9056
  185DOPC  H17Y22826   7.361   6.805   5.193 -3.1730 -0.8280  0.3675
  185DOPC  C31822827   7.398   6.993   5.086  0.3290 -0.7131  0.2312
  185DOPC  H18X22828   7.337   7.051   5.159 -1.4099 -2.1555  0.0082
  185DOPC  H18Y22829   7.505   7.016   5.104  0.0983 -0.0554  0.7931
  185DOPC  H18Z22830   7.367   7.047   4.995  3.0461  0.9708  0.1881
  186DOPC     N22831   0.240   3.152   2.814  0.0256  0.4484 -0.0317
  186DOPC   C1222832   0.321   3.058   2.905 -0.1680 -0.7192 -0.1414
  186DOPC  H12A22833   0.425   3.083   2.894 -0.0433  0.4552  2.7229
  186DOPC  H12B22834   0.300   2.960   2.864 -1.3129 -1.2130  1.5080
  186DOPC   C1322835   0.100   3.119   2.830  1.2566  0.0446  0.9256
  186DOPC  H13A22836   0.027   3.164   2.764  1.7569  0.9165  0.9527
  186DOPC  H13B22837   0.082   3.015   2.809  2.4187  0.2571 -1.4547
  186DOPC  H13C22838   0.063   3.153   2.926 -1.9236  0.5075 -0.3116
  186DOPC   C1422839   0.273   3.142   2.671 -0.7360  0.0937  0.4251
  186DOPC  H14A22840   0.201   3.199   2.614 -1.4875 -1.0528  0.1838
  186DOPC  H14B22841   0.370   3.185   2.653 -0.3412 -0.7338  0.5424
  186DOPC  H14C22842   0.269   3.044   2.626 -1.3661  0.6904 -0.8886
  186DOPC   C1522843   0.254   3.292   2.857 -0.5574 -0.0257  0.3780
  186DOPC  H15A22844   0.187   3.349   2.795  0.8561 -0.8367 -1.9925
  186DOPC  H15B22845   0.358   3.321   2.845 -0.7370  0.4795 -0.0030
  186DOPC  H15C22846   0.237   3.308   2.963  3.8208  0.2621  1.2426
  186DOPC   C1122847   0.293   3.066   3.059 -0.3487 -0.1063  0.1756
  186DOPC  H11A22848   0.185   3.060   3.084 -0.0455 -1.1658  1.3731
  186DOPC  H11B22849   0.335   2.976   3.109 -0.5569 -0.9549 -1.1328
  186DOPC     P22850   0.516   3.195   3.125 -0.0778 -0.1021  0.3648
  186DOPC   O1322851   0.543   3.334   3.089 -0.4739  0.2252  0.2689
  186DOPC   O1422852   0.574   3.083   3.048 -0.0217  0.9191  0.1966
  186DOPC   O1222853   0.362   3.184   3.109 -0.3259  0.3105  0.0933
  186DOPC   O1122854   0.553   3.171   3.278 -0.4010 -0.2956  0.0949
  186DOPC    C122855   0.471   3.083   3.358 -0.9319  0.4472  0.3584
  186DOPC    HA22856   0.536   3.043   3.440 -0.6069 -2.9085 -1.3604
  186DOPC    HB22857   0.433   2.994   3.304  0.7716 -0.0620 -0.0777
  186DOPC    C222858   0.360   3.154   3.432  0.5913 -0.1244 -0.1957
  186DOPC    HS22859   0.306   3.216   3.357  0.5075  2.3475  1.8000
  186DOPC   O2122860   0.405   3.244   3.538  0.0738 -0.1674  0.2274
  186DOPC   C2122861   0.434   3.365   3.504 -0.1073  0.0976  0.4836
  186DOPC   O2222862   0.419   3.419   3.393 -0.1489 -0.3099 -0.0481
  186DOPC   C2222863   0.483   3.438   3.633 -0.3286 -0.0361 -0.0163
  186DOPC   H2R22864   0.584   3.471   3.599  0.2087 -3.3431 -2.0499
  186DOPC   H2S22865   0.477   3.376   3.725 -0.5451  2.5027  1.7815
  186DOPC    C322866   0.258   3.050   3.490  0.1414 -0.1947 -0.2942
  186DOPC    HX22867   0.199   3.024   3.399 -0.0600  2.4913 -1.0310
  186DOPC    HY22868   0.191   3.095   3.566  1.2119 -2.3376  2.0246
  186DOPC   O3122869   0.332   2.940   3.546  0.2322  0.2561  0.2963
  186DOPC   C3122870   0.302   2.814   3.508  0.3861  0.2464  0.1082
  186DOPC   O3222871   0.236   2.786   3.408 -0.1030  0.2688 -0.9398
  186DOPC   C3222872   0.370   2.714   3.609  0.1176  0.2189 -0.4347
  186DOPC   H2X22873   0.389   2.621   3.552  1.5896  0.8346 -1.0023
  186DOPC   H2Y22874   0.470   2.746   3.646 -0.2063  1.1875 -0.3589
  186DOPC   C2322875   0.404   3.568   3.667 -0.1086  0.3448  0.4468
  186DOPC   H3R22876   0.348   3.602   3.578 -0.3246  0.3203  0.5714
  186DOPC   H3S22877   0.469   3.648   3.710 -1.5804  0.6163  2.3166
  186DOPC   C2422878   0.295   3.560   3.779  0.5719 -0.0190 -0.8773
  186DOPC   H4R22879   0.333   3.507   3.869  2.0202 -0.7376 -1.8791
  186DOPC   H4S22880   0.211   3.500   3.736  1.4738 -1.4196 -0.7621
  186DOPC   C2522881   0.251   3.691   3.826 -0.0192 -0.1190 -0.5024
  186DOPC   H5R22882   0.213   3.753   3.742  1.0694  2.2309  0.6389
  186DOPC   H5S22883   0.340   3.750   3.857 -0.0596 -0.5073  0.3636
  186DOPC   C2622884   0.162   3.691   3.951  0.2724 -0.6334  0.0679
  186DOPC   H6R22885   0.217   3.656   4.041  0.6758 -0.1774  0.0037
  186DOPC   H6S22886   0.075   3.622   3.940 -2.2057  2.1622  0.7808
  186DOPC   C2722887   0.113   3.832   3.978  0.1880 -0.5627  0.0245
  186DOPC   H7R22888   0.056   3.877   3.894 -1.6374  0.2291  1.6201
  186DOPC   H7S22889   0.202   3.898   3.972  0.4811 -1.0725 -4.5954
  186DOPC   C2822890   0.041   3.843   4.110  0.3959  0.4277  0.4570
  186DOPC   H8R22891   0.001   3.947   4.115  1.2016  0.7196  1.0572
  186DOPC   H8S22892   0.113   3.827   4.193  0.3068 -1.5570  0.1884
  186DOPC   C2922893  -0.076   3.751   4.120  0.2745  0.2851  0.2968
  186DOPC   H9R22894  -0.152   3.767   4.043 -2.4978 -0.7424  2.6253
  186DOPC  C21022895  -0.110   3.682   4.228 -0.5330 -0.1388 -0.2773
  186DOPC  H10R22896  -0.207   3.629   4.223  0.8413 -3.0006  1.4061
  186DOPC  C21122897  -0.041   3.680   4.362  0.2343 -0.1840 -0.0814
  186DOPC  H11R22898  -0.116   3.670   4.443  1.6527  0.4836  1.3560
  186DOPC  H11S22899   0.009   3.779   4.366  0.0420 -0.0246 -1.1939
  186DOPC  C21222900   0.079   3.585   4.377  0.0305  0.5867 -0.5366
  186DOPC  H12R22901   0.131   3.622   4.468  1.6533 -1.8111 -0.4205
  186DOPC  H12S22902   0.150   3.601   4.294  0.4312  0.8912 -0.1396
  186DOPC  C21322903   0.044   3.435   4.385 -0.2493 -0.5459 -0.3534
  186DOPC  H13R22904  -0.043   3.419   4.452 -0.1835 -0.7717 -0.3207
  186DOPC  H13S22905   0.125   3.373   4.431  0.8318  0.1240 -1.3103
  186DOPC  C21422906   0.008   3.360   4.255 -0.1286 -0.1220  0.0259
  186DOPC  H14R22907  -0.069   3.414   4.195 -0.0427  0.2921  0.2834
  186DOPC  H14S22908  -0.034   3.262   4.284  0.0675 -0.4720 -0.8619
  186DOPC  C21522909   0.129   3.345   4.165 -0.8106 -0.1799  0.2738
  186DOPC  H15R22910   0.218   3.307   4.218 -0.3076  2.5618  1.5139
  186DOPC  H15S22911   0.156   3.448   4.134 -1.9508  0.3145  0.8351
  186DOPC  C21622912   0.102   3.246   4.047  0.3221 -0.5820  0.0707
  186DOPC  H16R22913   0.029   3.289   3.975  0.8742  1.6022  0.7124
  186DOPC  H16S22914   0.058   3.154   4.089 -3.3541  0.2274 -1.5994
  186DOPC  C21722915   0.230   3.202   3.973  0.2806 -0.2546  0.2145
  186DOPC  H17R22916   0.280   3.138   4.049 -1.0377  1.0705  2.3031
  186DOPC  H17S22917   0.293   3.292   3.956 -1.1667  1.4068  2.9171
  186DOPC  C21822918   0.197   3.118   3.851  0.5463 -0.4746 -1.1323
  186DOPC  H18R22919   0.159   3.179   3.766 -1.5825  0.1181  0.1723
  186DOPC  H18S22920   0.127   3.037   3.879  0.8464 -0.5659 -0.6330
  186DOPC  H18T22921   0.288   3.063   3.820  0.3843 -1.8073  0.5892
  186DOPC   C3322922   0.278   2.682   3.732  0.4067 -0.0535 -0.6491
  186DOPC   H3X22923   0.221   2.591   3.705 -0.5571  0.8409 -1.7414
  186DOPC   H3Y22924   0.208   2.766   3.751  1.9591  1.7412 -2.4594
  186DOPC   C3422925   0.362   2.653   3.857  0.1672  0.3381 -0.3683
  186DOPC   H4X22926   0.416   2.746   3.884 -0.2882  0.9666 -1.5774
  186DOPC   H4Y22927   0.437   2.577   3.828 -0.8550 -0.8573  0.0074
  186DOPC   C3522928   0.299   2.609   3.990 -0.0635 -0.1111  0.3250
  186DOPC   H5X22929   0.374   2.553   4.050  0.1254 -0.6562 -0.3989
  186DOPC   H5Y22930   0.216   2.537   3.979  0.7665 -1.1251  0.5479
  186DOPC   C3622931   0.245   2.733   4.064 -1.1125 -0.6926  1.0242
  186DOPC   H6X22932   0.335   2.798   4.069 -0.6574 -1.2259  0.1467
  186DOPC   H6Y22933   0.169   2.781   3.998  0.3100 -0.3787 -0.4387
  186DOPC   C3722934   0.191   2.700   4.206  0.5887 -0.7061  0.0949
  186DOPC   H7X22935   0.126   2.612   4.184 -0.2058 -0.6160  1.9217
  186DOPC   H7Y22936   0.270   2.659   4.274  0.3076 -0.4643  0.5698
  186DOPC   C3822937   0.118   2.824   4.270 -0.3524 -0.0083 -0.3370
  186DOPC   H8X22938   0.037   2.788   4.337 -0.1981 -1.8631 -1.0824
  186DOPC   H8Y22939   0.075   2.886   4.188 -0.2870  1.1030  0.4483
  186DOPC   C3922940   0.220   2.910   4.350 -0.0283 -0.6627 -0.6078
  186DOPC   H9X22941   0.325   2.887   4.322  1.0046  1.5186  1.2090
  186DOPC  C31022942   0.202   2.996   4.450 -0.0509  0.4620 -0.3046
  186DOPC  H10X22943   0.296   3.039   4.489 -0.2650  0.5649  0.1026
  186DOPC  C31122944   0.073   3.034   4.516  0.1409 -0.1339  0.2757
  186DOPC  H11X22945  -0.004   2.956   4.504  0.5057 -0.4926  0.2662
  186DOPC  H11Y22946   0.027   3.121   4.464 -0.4221 -0.8850 -0.5132
  186DOPC  C31222947   0.078   3.072   4.667  0.1478 -0.1258 -0.0802
  186DOPC  H12X22948   0.165   3.140   4.673  2.1230 -2.4565 -0.4808
  186DOPC  H12Y22949   0.097   2.974   4.716  2.1383 -1.1916 -2.7041
  186DOPC  C31322950  -0.047   3.130   4.726  0.5905 -0.2168  0.9377
  186DOPC  H13X22951  -0.095   3.193   4.648  0.4697 -0.6960  0.6249
  186DOPC  H13Y22952  -0.120   3.048   4.746  0.5960 -0.5903 -0.4813
  186DOPC  C31422953  -0.022   3.203   4.857  0.1238 -0.1335 -0.1676
  186DOPC  H14X22954  -0.116   3.256   4.881  0.3631  0.7369 -1.0666
  186DOPC  H14Y22955  -0.004   3.121   4.930  1.1272 -1.2952 -1.6350
  186DOPC  C31522956   0.091   3.312   4.855 -0.0399  0.8537 -0.1102
  186DOPC  H15X22957   0.091   3.362   4.756 -1.7623  1.2868  0.0736
  186DOPC  H15Y22958   0.186   3.256   4.863 -0.5207  0.2486  2.1844
  186DOPC  C31622959   0.067   3.422   4.962  0.5638  0.6851 -0.7601
  186DOPC  H16X22960   0.151   3.495   4.961  0.1366  1.2403  0.6009
  186DOPC  H16Y22961  -0.028   3.476   4.943 -0.0929 -0.7934 -1.8730
  186DOPC  C31722962   0.059   3.349   5.098 -0.2005 -0.0140 -1.2256
  186DOPC  H17X22963  -0.028   3.282   5.107  1.6032 -2.1149  3.2977
  186DOPC  H17Y22964   0.142   3.275   5.101  0.7977  1.0907  1.2646
  186DOPC  C31822965   0.057   3.440   5.232 -0.1766  0.4360 -0.3292
  186DOPC  H18X22966  -0.037   3.498   5.246 -1.1806 -1.4114  1.0395
  186DOPC  H18Y22967   0.071   3.371   5.318 -0.1744  0.1083 -0.5905
  186DOPC  H18Z22968   0.145   3.508   5.229  1.7900 -1.7231  2.6488
  187DOPC     N22969   5.867   0.610   2.817  0.2385  0.2943 -0.3023
  187DOPC   C1222970   5.923   0.754   2.812 -0.5216  0.3493 -0.1878
  187DOPC  H12A22971   5.870   0.804   2.732 -0.3191 -1.6292 -1.6453
  187DOPC  H12B22972   6.026   0.740   2.781  0.2077 -0.0753  2.2413
  187DOPC   C1322973   5.919   0.537   2.939 -0.5082 -0.0232  0.3765
  187DOPC  H13A22974   6.027   0.542   2.938 -0.5210  0.1793  0.0697
  187DOPC  H13B22975   5.874   0.588   3.023  1.7202  0.6448  1.2294
  187DOPC  H13C22976   5.878   0.437   2.939 -1.1243  0.2013  1.9588
  187DOPC   C1422977   5.913   0.533   2.693  0.1591 -0.1137 -0.3765
  187DOPC  H14A22978   6.021   0.532   2.692  0.1714  0.3544 -1.6259
  187DOPC  H14B22979   5.870   0.434   2.689 -0.6517  0.0961  1.8123
  187DOPC  H14C22980   5.886   0.589   2.605 -0.2396  0.5357  0.1549
  187DOPC   C1522981   5.717   0.610   2.813 -0.6502 -0.2877 -0.4620
  187DOPC  H15A22982   5.672   0.514   2.834 -3.7981  1.4108  1.3681
  187DOPC  H15B22983   5.684   0.638   2.714 -0.5059 -0.5166 -0.5747
  187DOPC  H15C22984   5.672   0.682   2.880 -0.2229 -1.3264  0.9868
  187DOPC   C1122985   5.902   0.844   2.942 -0.6594  0.1931 -0.0847
  187DOPC  H11A22986   5.923   0.950   2.916 -2.0149  0.1751 -1.3398
  187DOPC  H11B22987   5.797   0.835   2.976 -0.1584 -0.2390  1.4365
  187DOPC     P22988   6.121   0.841   3.079 -0.1619  0.2906 -0.0837
  187DOPC   O1322989   6.123   0.972   3.145 -0.6279 -0.4658 -0.1020
  187DOPC   O1422990   6.199   0.835   2.953  0.5041  0.1023  0.0975
  187DOPC   O1222991   5.970   0.800   3.064  0.4007  0.0779 -0.2031
  187DOPC   O1122992   6.189   0.722   3.170 -0.1269 -0.0428 -0.0697
  187DOPC    C122993   6.116   0.673   3.281 -0.2745 -0.1107 -0.3054
  187DOPC    HA22994   6.113   0.562   3.269 -0.9464 -0.2507  1.0210
  187DOPC    HB22995   6.009   0.703   3.278  0.1238  1.2858 -1.3285
  187DOPC    C222996   6.170   0.726   3.415 -0.6783 -0.2168 -0.1353
  187DOPC    HS22997   6.135   0.658   3.495 -2.4652  0.1827 -0.5361
  187DOPC   O2122998   6.142   0.864   3.439  0.0141 -0.4527  0.1641
  187DOPC   C2122999   6.021   0.910   3.450  0.2550 -0.3906  0.6121
  187DOPC   O2223000   5.916   0.843   3.452 -0.4297 -0.3859  0.0454
  187DOPC   C2223001   6.036   1.060   3.466 -0.4175 -0.4048 -0.6027
  187DOPC   H2R23002   5.937   1.095   3.504 -0.5195 -3.2607  2.2008
  187DOPC   H2S23003   6.050   1.112   3.369 -0.8598  0.5698 -0.1549
  187DOPC    C323004   6.327   0.725   3.415  0.1947 -0.1693  0.0016
  187DOPC    HX23005   6.361   0.811   3.352  1.2542 -0.2393  0.4425
  187DOPC    HY23006   6.363   0.629   3.372  1.6480 -0.1663  1.1337
  187DOPC   O3123007   6.387   0.734   3.550 -0.2697  0.0625  0.9047
  187DOPC   C3123008   6.522   0.721   3.550 -0.5491  0.1116  0.0044
  187DOPC   O3223009   6.587   0.700   3.449 -0.3418  0.0245  0.8320
  187DOPC   C3223010   6.579   0.728   3.687 -0.0083  0.1172  0.0096
  187DOPC   H2X23011   6.620   0.626   3.698 -0.5282 -0.1557 -0.5583
  187DOPC   H2Y23012   6.660   0.803   3.696  0.3065 -0.4354  2.7024
  187DOPC   C2323013   6.151   1.112   3.557  0.3742 -0.1140 -1.0303
  187DOPC   H3R23014   6.172   1.215   3.523 -0.4429  1.2404  2.1836
  187DOPC   H3S23015   6.248   1.058   3.551  0.5138 -0.0978  0.6695
  187DOPC   C2423016   6.109   1.107   3.707  0.1013 -0.3988  0.5520
  187DOPC   H4R23017   6.072   1.007   3.739 -0.7421  0.1494  1.3256
  187DOPC   H4S23018   6.040   1.191   3.726  0.9823  1.1012 -2.3005
  187DOPC   C2523019   6.230   1.148   3.795  0.2640 -0.1967 -0.5540
  187DOPC   H5R23020   6.261   1.252   3.772 -1.0557  0.8331  1.9042
  187DOPC   H5S23021   6.320   1.083   3.787  0.1763 -0.5512  1.0626
  187DOPC   C2623022   6.197   1.159   3.945 -0.3452 -0.3109  0.5665
  187DOPC   H6R23023   6.118   1.237   3.952  0.0362  0.0297  1.3236
  187DOPC   H6S23024   6.281   1.207   4.001 -0.7373  0.3126  0.6323
  187DOPC   C2723025   6.153   1.023   4.006 -0.1913 -0.0472  0.3724
  187DOPC   H7R23026   6.216   0.946   3.958  0.8890  2.1748 -2.0404
  187DOPC   H7S23027   6.044   1.008   3.990 -0.8728 -0.1898  4.2346
  187DOPC   C2823028   6.171   1.016   4.161  0.9413  0.5117  0.2409
  187DOPC   H8R23029   6.276   1.037   4.191  0.2908  1.4047  2.0139
  187DOPC   H8S23030   6.168   0.908   4.190  1.8942  1.1320  2.9689
  187DOPC   C2923031   6.070   1.090   4.243 -0.4296  0.0561 -0.3245
  187DOPC   H9R23032   5.965   1.072   4.218 -0.6423  0.0053  0.5718
  187DOPC  C21023033   6.112   1.169   4.349  0.0670 -0.1165  0.2073
  187DOPC  H10R23034   6.027   1.213   4.404 -1.1859 -0.1386 -1.6352
  187DOPC  C21123035   6.250   1.190   4.396 -0.3603  0.1819  0.6828
  187DOPC  H11R23036   6.260   1.285   4.453  0.6978  0.1595  0.5535
  187DOPC  H11S23037   6.311   1.215   4.306 -0.0590  1.6452  1.2554
  187DOPC  C21223038   6.321   1.086   4.483  0.1953  0.7309  0.2621
  187DOPC  H12R23039   6.431   1.083   4.469  0.0488 -0.6442 -0.8434
  187DOPC  H12S23040   6.296   0.989   4.434  1.4717  1.4388 -1.9318
  187DOPC  C21323041   6.273   1.076   4.627  0.2781 -0.5304 -0.7116
  187DOPC  H13R23042   6.322   0.991   4.678  1.8491 -0.2698 -1.7327
  187DOPC  H13S23043   6.162   1.067   4.619  0.2169 -0.3787 -0.0916
  187DOPC  C21423044   6.310   1.206   4.711 -0.1167 -0.2903  0.0922
  187DOPC  H14R23045   6.270   1.297   4.660 -0.1138 -0.3402  0.0015
  187DOPC  H14S23046   6.418   1.223   4.731 -0.0485  3.5074 -2.4924
  187DOPC  C21523047   6.252   1.201   4.852 -0.3328  0.1922 -0.6996
  187DOPC  H15R23048   6.298   1.292   4.896 -0.2050  0.3244 -1.1083
  187DOPC  H15S23049   6.281   1.105   4.902  2.9262  0.6677 -1.4285
  187DOPC  C21623050   6.099   1.210   4.855 -0.0644  0.1512  0.9477
  187DOPC  H16R23051   6.077   1.177   4.959  0.4413 -1.4308  0.5851
  187DOPC  H16S23052   6.056   1.132   4.788  0.5631 -0.5782  1.3784
  187DOPC  C21723053   6.043   1.344   4.814  0.3025 -0.6999 -0.0530
  187DOPC  H17R23054   6.052   1.356   4.704  1.6183 -1.2947 -0.0251
  187DOPC  H17S23055   6.101   1.423   4.865 -1.8167 -0.8024  2.7786
  187DOPC  C21823056   5.897   1.376   4.847  0.2862 -0.0472  0.4322
  187DOPC  H18R23057   5.868   1.473   4.803  0.2478  1.6354  3.8562
  187DOPC  H18S23058   5.882   1.375   4.957  0.0460 -3.0908  0.4593
  187DOPC  H18T23059   5.828   1.293   4.822 -0.5029  0.8739 -0.5225
  187DOPC   C3323060   6.483   0.733   3.804  0.8045 -0.4033 -0.2950
  187DOPC   H3X23061   6.391   0.673   3.786 -0.3371  0.3378  2.5510
  187DOPC   H3Y23062   6.452   0.839   3.814  3.6989  0.4330  0.5340
  187DOPC   C3423063   6.536   0.683   3.936 -0.3549  0.7712  0.5434
  187DOPC   H4X23064   6.643   0.711   3.938  0.3718 -1.6775 -0.3962
  187DOPC   H4Y23065   6.543   0.574   3.920  0.5069  0.9631 -0.4832
  187DOPC   C3523066   6.455   0.727   4.053 -0.0074  0.3704 -0.6108
  187DOPC   H5X23067   6.346   0.716   4.035 -0.3541  2.4398 -0.1383
  187DOPC   H5Y23068   6.460   0.838   4.064 -1.0159  0.1964  3.1114
  187DOPC   C3623069   6.516   0.653   4.175  0.2815 -0.2515 -0.6895
  187DOPC   H6X23070   6.495   0.546   4.152 -1.3007 -0.0634 -0.2735
  187DOPC   H6Y23071   6.627   0.658   4.173  0.3082  1.2074  1.1290
  187DOPC   C3723072   6.446   0.685   4.308 -0.1687 -0.1768  0.0444
  187DOPC   H7X23073   6.431   0.792   4.330  0.2121 -0.0525 -0.2895
  187DOPC   H7Y23074   6.342   0.647   4.296 -0.3470  0.7140 -1.4478
  187DOPC   C3823075   6.517   0.622   4.426 -0.3703  0.1952 -0.6314
  187DOPC   H8X23076   6.623   0.648   4.405 -0.8860  1.6256 -1.6538
  187DOPC   H8Y23077   6.511   0.512   4.415  0.6018 -0.0098  0.6704
  187DOPC   C3923078   6.474   0.669   4.559 -0.3403 -0.3980 -0.2210
  187DOPC   H9X23079   6.365   0.661   4.571 -0.3112  0.1228  0.4745
  187DOPC  C31023080   6.551   0.704   4.664  0.6010  0.0857 -0.0683
  187DOPC  H10X23081   6.506   0.729   4.761  1.7486 -0.9647  0.7755
  187DOPC  C31123082   6.699   0.695   4.663 -0.5445 -0.8666  0.2309
  187DOPC  H11X23083   6.738   0.742   4.571  0.8111  2.2322  2.2360
  187DOPC  H11Y23084   6.732   0.589   4.650  2.0586  0.0545 -1.3804
  187DOPC  C31223085   6.784   0.758   4.778 -0.2694 -0.5868 -0.2724
  187DOPC  H12X23086   6.711   0.804   4.848  0.9131  1.5943 -0.4116
  187DOPC  H12Y23087   6.854   0.831   4.732  1.3776  0.0875  3.0253
  187DOPC  C31323088   6.859   0.656   4.872  0.1320 -0.3151 -0.5224
  187DOPC  H13X23089   6.937   0.604   4.811  0.1787 -2.6866  1.3836
  187DOPC  H13Y23090   6.910   0.722   4.945  0.8176  1.7489 -2.7609
  187DOPC  C31423091   6.777   0.554   4.951 -0.7134  0.7848  0.7074
  187DOPC  H14X23092   6.680   0.602   4.978 -0.4641  2.5826 -1.3982
  187DOPC  H14Y23093   6.743   0.477   4.878 -0.9784  0.5236  1.0975
  187DOPC  C31523094   6.857   0.485   5.065 -0.3311 -0.1138  0.4620
  187DOPC  H15X23095   6.881   0.568   5.136 -1.3788  0.0726  0.6250
  187DOPC  H15Y23096   6.953   0.453   5.020 -0.6613  2.2091 -2.1484
  187DOPC  C31623097   6.779   0.374   5.127 -0.0953 -0.0313 -0.1735
  187DOPC  H16X23098   6.697   0.418   5.187 -0.5643  0.7778 -1.3706
  187DOPC  H16Y23099   6.725   0.315   5.049 -1.1632  0.0088  0.5193
  187DOPC  C31723100   6.857   0.282   5.215 -0.3439 -0.2864 -0.0571
  187DOPC  H17X23101   6.784   0.204   5.245 -1.9594  0.1331 -2.5692
  187DOPC  H17Y23102   6.930   0.234   5.146  2.7819  1.3441  1.8590
  187DOPC  C31823103   6.934   0.355   5.333  0.4729  0.4963 -0.1329
  187DOPC  H18X23104   6.971   0.271   5.396  1.7501 -1.1058 -2.8425
  187DOPC  H18Y23105   7.021   0.415   5.299 -0.0446  0.6596 -1.2176
  187DOPC  H18Z23106   6.856   0.422   5.375 -0.1991  0.2344 -0.9407
  188DOPC     N23107   1.332   0.722   3.352 -0.1793 -0.1225  0.4307
  188DOPC   C1223108   1.287   0.861   3.328  0.7907  0.0381  0.2715
  188DOPC  H12A23109   1.342   0.936   3.384 -1.5397  1.0907  1.2849
  188DOPC  H12B23110   1.190   0.877   3.373  1.0774  1.0795  0.5481
  188DOPC   C1323111   1.320   0.700   3.507 -0.5354  0.2605  0.0083
  188DOPC  H13A23112   1.366   0.603   3.521 -1.5959 -0.2820 -0.1688
  188DOPC  H13B23113   1.387   0.771   3.552 -0.0251 -0.0874 -0.1794
  188DOPC  H13C23114   1.220   0.699   3.547 -1.2366 -0.0451 -1.6721
  188DOPC   C1423115   1.471   0.704   3.300 -0.1199 -0.6138 -0.4352
  188DOPC  H14A23116   1.548   0.769   3.339 -0.4806 -0.5655  0.2103
  188DOPC  H14B23117   1.507   0.611   3.341  1.2625  1.0627  2.5004
  188DOPC  H14C23118   1.460   0.703   3.192  0.3699 -1.2361 -0.4806
  188DOPC   C1523119   1.249   0.613   3.287 -0.4145  0.0567 -0.0242
  188DOPC  H15A23120   1.229   0.638   3.184 -0.8340 -0.2320 -0.0135
  188DOPC  H15B23121   1.154   0.614   3.338 -0.3257 -0.7489  0.1714
  188DOPC  H15C23122   1.290   0.514   3.294 -2.0393 -0.6001  0.4106
  188DOPC   C1123123   1.257   0.902   3.181  0.7395  0.0358 -0.1135
  188DOPC  H11A23124   1.174   0.844   3.136 -0.4023 -1.2388  3.2993
  188DOPC  H11B23125   1.218   1.006   3.186  1.1414  0.2354 -0.9109
  188DOPC     P23126   1.470   1.029   3.125  0.2104 -0.1327  0.3253
  188DOPC   O1323127   1.437   1.138   3.029  1.5609 -0.0715  0.0418
  188DOPC   O1423128   1.604   0.971   3.124 -0.1173 -0.7218  1.1841
  188DOPC   O1223129   1.376   0.909   3.103 -0.2808 -0.0449  0.2935
  188DOPC   O1123130   1.441   1.088   3.267 -0.4375  0.5065 -0.1532
  188DOPC    C123131   1.501   1.208   3.323 -0.4414  0.8087  0.2546
  188DOPC    HA23132   1.421   1.286   3.321 -0.2832  0.9627 -1.0745
  188DOPC    HB23133   1.590   1.243   3.267  0.1804 -2.0275 -0.7211
  188DOPC    C223134   1.530   1.181   3.477 -0.0150 -0.1063 -0.2798
  188DOPC    HS23135   1.447   1.119   3.517  1.8548 -1.8228  1.1449
  188DOPC   O2123136   1.546   1.301   3.557  0.5213  0.1981 -0.3131
  188DOPC   C2123137   1.551   1.271   3.684 -0.1247  0.3073  0.0939
  188DOPC   O2223138   1.498   1.178   3.740  0.0632  0.5566  0.7361
  188DOPC   C2223139   1.627   1.380   3.761  0.5827  0.0202 -0.2704
  188DOPC   H2R23140   1.584   1.478   3.730 -0.5777 -0.1662  0.6429
  188DOPC   H2S23141   1.732   1.371   3.726  0.7383 -1.3919  0.4709
  188DOPC    C323142   1.663   1.100   3.478  0.7623  0.0632  0.2055
  188DOPC    HX23143   1.733   1.179   3.442 -2.6594  3.5053  0.4501
  188DOPC    HY23144   1.673   1.026   3.396  2.1248  1.1403 -0.6522
  188DOPC   O3123145   1.703   1.048   3.599 -0.1538  0.1429  0.4991
  188DOPC   C3123146   1.697   0.911   3.619 -0.0649 -0.7755  0.3292
  188DOPC   O3223147   1.657   0.834   3.542 -0.4871 -0.2246  0.4446
  188DOPC   C3223148   1.745   0.875   3.753 -0.4516 -0.8942  0.3383
  188DOPC   H2X23149   1.856   0.882   3.758 -0.3934 -0.4711 -1.1433
  188DOPC   H2Y23150   1.705   0.951   3.824  0.1392 -0.2892  0.0402
  188DOPC   C2323151   1.635   1.378   3.914  0.2842  0.5613 -0.3488
  188DOPC   H3R23152   1.683   1.284   3.948 -2.4295 -1.1863 -1.0238
  188DOPC   H3S23153   1.531   1.371   3.952  0.3795 -1.5107 -0.3468
  188DOPC   C2423154   1.705   1.503   3.967  0.8739 -0.5553 -0.0774
  188DOPC   H4R23155   1.645   1.593   3.939  0.9453  0.0937  1.6898
  188DOPC   H4S23156   1.803   1.515   3.915  0.1206 -0.5743 -1.5566
  188DOPC   C2523157   1.727   1.512   4.118  0.1183 -0.4284  0.0757
  188DOPC   H5R23158   1.791   1.427   4.148  1.9839  0.0711 -2.1948
  188DOPC   H5S23159   1.626   1.507   4.162 -0.3427  3.2008 -0.2403
  188DOPC   C2623160   1.789   1.645   4.145  0.0824  0.0310 -0.1649
  188DOPC   H6R23161   1.720   1.730   4.126 -0.4203 -0.4330 -0.4396
  188DOPC   H6S23162   1.881   1.671   4.088  0.8080  0.8400  1.3422
  188DOPC   C2723163   1.840   1.654   4.287  0.2410  0.2521 -0.5888
  188DOPC   H7R23164   1.901   1.563   4.305 -1.9344 -1.2966 -0.6530
  188DOPC   H7S23165   1.747   1.647   4.348 -0.2403  0.2976 -1.2958
  188DOPC   C2823166   1.926   1.776   4.312 -0.1261 -0.4206  0.7588
  188DOPC   H8R23167   1.862   1.866   4.311 -0.6999 -0.7822 -1.5517
  188DOPC   H8S23168   2.000   1.789   4.230 -1.3182  3.0427  0.0793
  188DOPC   C2923169   2.008   1.762   4.442  0.1040  0.4590  0.4419
  188DOPC   H9R23170   2.096   1.697   4.445 -0.6479 -0.5528  1.4990
  188DOPC  C21023171   1.978   1.826   4.556  0.3219  0.6555 -0.2900
  188DOPC  H10R23172   2.038   1.810   4.647 -1.3422  3.0203  1.3501
  188DOPC  C21123173   1.860   1.925   4.578 -0.2055 -0.8165 -0.7449
  188DOPC  H11R23174   1.816   1.918   4.680  0.1087 -2.5594 -0.7012
  188DOPC  H11S23175   1.775   1.907   4.509 -2.2101 -0.4031  1.5019
  188DOPC  C21223176   1.915   2.072   4.558 -0.1699 -0.1105  0.2045
  188DOPC  H12R23177   1.828   2.139   4.577 -0.2168 -0.0352 -0.2678
  188DOPC  H12S23178   1.961   2.085   4.458  1.0163 -3.1814  0.2531
  188DOPC  C21323179   2.016   2.107   4.672  0.3650 -0.6820 -0.0027
  188DOPC  H13R23180   2.121   2.094   4.638  0.5118 -1.1689  0.6078
  188DOPC  H13S23181   1.997   2.040   4.759  0.3185  1.7912  1.9950
  188DOPC  C21423182   2.003   2.248   4.727  0.0845 -0.4519  0.5264
  188DOPC  H14R23183   1.897   2.246   4.762 -0.5568  0.1489 -1.2296
  188DOPC  H14S23184   1.992   2.323   4.646 -0.9850 -1.1802 -0.0279
  188DOPC  C21523185   2.109   2.291   4.827  0.2166  0.2437 -0.1757
  188DOPC  H15R23186   2.087   2.388   4.877 -1.4703 -0.0575 -0.2858
  188DOPC  H15S23187   2.208   2.290   4.776 -0.9579 -2.4197 -2.6590
  188DOPC  C21623188   2.138   2.186   4.945 -0.1834  0.2372  0.8259
  188DOPC  H16R23189   2.209   2.222   5.022  0.8069  0.3684 -0.1330
  188DOPC  H16S23190   2.182   2.094   4.899 -2.3610  0.2177 -1.4361
  188DOPC  C21723191   2.011   2.150   5.015  0.3742  0.0453 -0.2680
  188DOPC  H17R23192   1.954   2.085   4.946 -0.8131  0.5627  0.2055
  188DOPC  H17S23193   1.947   2.240   5.030 -0.7257 -1.0075  1.7675
  188DOPC  C21823194   2.026   2.069   5.144  0.2214  0.3482  0.0788
  188DOPC  H18R23195   2.077   2.116   5.231  0.4991  0.2297 -0.0185
  188DOPC  H18S23196   2.074   1.972   5.119  1.8533  1.0922  0.2024
  188DOPC  H18T23197   1.929   2.045   5.193  0.5478 -0.4337  0.3668
  188DOPC   C3323198   1.711   0.738   3.803  0.4767  0.5066  0.6222
  188DOPC   H3X23199   1.795   0.672   3.772  0.3137 -0.2384  1.6937
  188DOPC   H3Y23200   1.616   0.706   3.756  0.4710  1.8468 -0.3298
  188DOPC   C3423201   1.724   0.725   3.957  0.2740 -0.5809 -0.3041
  188DOPC   H4X23202   1.740   0.615   3.970 -0.5727 -0.8696 -1.5220
  188DOPC   H4Y23203   1.627   0.747   4.005 -1.5466 -1.9588 -3.0858
  188DOPC   C3523204   1.850   0.788   4.019 -0.3193  0.9367 -0.5032
  188DOPC   H5X23205   1.836   0.897   4.038  0.1710  0.9825 -0.3799
  188DOPC   H5Y23206   1.933   0.775   3.946  1.0448 -0.8238  1.2425
  188DOPC   C3623207   1.883   0.720   4.157  0.4552 -0.1560  0.5837
  188DOPC   H6X23208   1.954   0.786   4.210  0.7982 -0.0868  0.0518
  188DOPC   H6Y23209   1.787   0.722   4.212  0.1123  0.7118 -0.0091
  188DOPC   C3723210   1.926   0.576   4.147  0.4437 -0.2116 -0.5911
  188DOPC   H7X23211   1.851   0.499   4.116  1.8129 -1.6820 -0.4110
  188DOPC   H7Y23212   2.012   0.579   4.076  2.9360 -1.8182  2.1392
  188DOPC   C3823213   1.992   0.518   4.279 -0.2380  0.3854  0.0913
  188DOPC   H8X23214   1.957   0.413   4.293  2.2056 -0.3847  1.0070
  188DOPC   H8Y23215   1.959   0.563   4.375  3.0614 -0.5323  1.7959
  188DOPC   C3923216   2.144   0.516   4.284  1.0570 -0.4296 -0.3728
  188DOPC   H9X23217   2.190   0.575   4.204 -0.7736  0.0195 -1.1487
  188DOPC  C31023218   2.235   0.453   4.360  0.4655 -0.4892 -1.0945
  188DOPC  H10X23219   2.339   0.458   4.324  0.9312 -0.9068  0.1666
  188DOPC  C31123220   2.204   0.354   4.470  0.1762 -0.7849 -0.0856
  188DOPC  H11X23221   2.109   0.379   4.521  0.3129 -1.2247  0.3883
  188DOPC  H11Y23222   2.279   0.362   4.552 -0.9051  2.1472  0.7590
  188DOPC  C31223223   2.201   0.206   4.410  0.0711  0.1141 -0.1978
  188DOPC  H12X23224   2.299   0.191   4.359  0.3858  0.6832  0.2269
  188DOPC  H12Y23225   2.112   0.198   4.345 -0.0799  2.8415 -0.4284
  188DOPC  C31323226   2.192   0.101   4.520 -0.3044 -0.1256 -0.4403
  188DOPC  H13X23227   2.265   0.124   4.601 -2.7589 -3.3644  3.0256
  188DOPC  H13Y23228   2.091   0.100   4.566 -0.9112  1.5769 -1.6411
  188DOPC  C31423229   2.211  -0.040   4.460  0.1765  0.2861 -0.3679
  188DOPC  H14X23230   2.184  -0.033   4.353 -2.1127  1.0912  0.2198
  188DOPC  H14Y23231   2.320  -0.064   4.458  0.5335  1.7121  0.6035
  188DOPC  C31523232   2.112  -0.147   4.510 -0.5562  0.5388 -0.2197
  188DOPC  H15X23233   2.005  -0.132   4.485 -0.7688 -0.6224 -0.0557
  188DOPC  H15Y23234   2.107  -0.151   4.621 -1.7752 -0.1985 -0.2874
  188DOPC  C31623235   2.148  -0.291   4.468 -0.4581 -0.4551 -0.2314
  188DOPC  H16X23236   2.177  -0.279   4.362 -1.0279  0.9667 -0.2494
  188DOPC  H16Y23237   2.235  -0.323   4.529 -1.7154  2.4641  3.5207
  188DOPC  C31723238   2.026  -0.386   4.474 -0.1641  0.8682 -0.4825
  188DOPC  H17X23239   2.071  -0.483   4.504 -0.7056  0.5696 -0.6191
  188DOPC  H17Y23240   1.950  -0.340   4.541  0.4964  2.7330 -0.9453
  188DOPC  C31823241   1.972  -0.410   4.337 -0.4094  0.2367 -0.2388
  188DOPC  H18X23242   1.931  -0.321   4.285  0.6085  1.3152  0.7801
  188DOPC  H18Y23243   2.046  -0.460   4.271 -0.4262 -0.3911  0.2048
  188DOPC  H18Z23244   1.881  -0.473   4.348 -0.6354  0.8465  1.5547
  189DOPC     N23245   3.682   0.466   2.585  0.3556  0.2509 -0.4744
  189DOPC   C1223246   3.582   0.425   2.695 -0.4709  0.0249 -0.3889
  189DOPC  H12A23247   3.629   0.354   2.761  1.5445  1.3657 -0.2924
  189DOPC  H12B23248   3.499   0.368   2.656  0.3283 -0.5328 -1.3131
  189DOPC   C1323249   3.617   0.558   2.490  0.4865 -0.2366 -0.2267
  189DOPC  H13A23250   3.532   0.516   2.438  0.2913  0.6305 -0.6294
  189DOPC  H13B23251   3.591   0.649   2.542 -1.9011  0.5484 -2.5306
  189DOPC  H13C23252   3.687   0.585   2.412  0.3692 -2.0540 -1.0066
  189DOPC   C1423253   3.718   0.346   2.497  0.0749 -0.0480 -0.2860
  189DOPC  H14A23254   3.630   0.324   2.438  1.8350 -1.9414 -2.3498
  189DOPC  H14B23255   3.782   0.364   2.413 -0.1353  0.5686 -0.3211
  189DOPC  H14C23256   3.743   0.259   2.556  1.0423  0.1256 -0.4305
  189DOPC   C1523257   3.811   0.531   2.642 -0.9504 -0.1431 -0.7948
  189DOPC  H15A23258   3.884   0.555   2.566  0.0586  1.1300  0.5107
  189DOPC  H15B23259   3.859   0.460   2.708  0.5492  1.8818  0.3946
  189DOPC  H15C23260   3.780   0.612   2.707 -4.7743 -0.8724 -1.4277
  189DOPC   C1123261   3.527   0.535   2.787  0.5178 -0.1791  0.4675
  189DOPC  H11A23262   3.458   0.597   2.726  1.4967  0.3494 -0.1278
  189DOPC  H11B23263   3.448   0.501   2.858 -0.5127  2.4627  0.7201
  189DOPC     P23264   3.690   0.546   2.988 -0.1687 -0.3389  0.3500
  189DOPC   O1323265   3.788   0.640   3.046 -0.0173 -0.4341 -0.3141
  189DOPC   O1423266   3.731   0.408   2.954  0.6247 -0.7593 -0.4065
  189DOPC   O1223267   3.625   0.614   2.854 -0.4015  0.3589  0.0296
  189DOPC   O1123268   3.564   0.536   3.083  0.2414 -0.5353  0.2527
  189DOPC    C123269   3.514   0.655   3.143 -0.2522 -0.1101  0.3783
  189DOPC    HA23270   3.407   0.669   3.116  0.1379  0.9504 -0.6661
  189DOPC    HB23271   3.564   0.749   3.113  2.0411 -0.7485  1.9679
  189DOPC    C223272   3.515   0.645   3.300 -0.2666 -0.6184 -0.0169
  189DOPC    HS23273   3.469   0.735   3.346 -4.3262 -1.7163 -1.4945
  189DOPC   O2123274   3.647   0.636   3.338 -0.3140  0.1456  0.0309
  189DOPC   C2123275   3.732   0.736   3.337 -0.0380  0.0203 -0.7284
  189DOPC   O2223276   3.707   0.850   3.305 -0.1755  0.5424 -0.3259
  189DOPC   C2223277   3.870   0.690   3.398  0.3013  0.5643  0.1220
  189DOPC   H2R23278   3.947   0.710   3.320  1.1369  0.8192  0.9924
  189DOPC   H2S23279   3.864   0.583   3.428  1.5240 -0.1343 -1.9490
  189DOPC    C323280   3.424   0.525   3.335 -0.2668  0.7199  0.2419
  189DOPC    HX23281   3.479   0.435   3.301 -1.5988  0.5916 -1.7122
  189DOPC    HY23282   3.334   0.544   3.273 -0.7998  1.2224  1.1451
  189DOPC   O3123283   3.383   0.507   3.473 -0.0203  0.4503  0.6094
  189DOPC   C3123284   3.297   0.589   3.524 -0.7126  0.1679  0.0833
  189DOPC   O3223285   3.248   0.687   3.471  0.0879 -0.5676  0.3147
  189DOPC   C3223286   3.272   0.547   3.673  0.0071 -0.4942  0.0766
  189DOPC   H2X23287   3.169   0.585   3.688  1.2069  4.9146 -3.1140
  189DOPC   H2Y23288   3.275   0.436   3.674  1.3261 -0.4694  0.7673
  189DOPC   C2323289   3.917   0.773   3.519  0.1385  0.4822 -0.2640
  189DOPC   H3R23290   3.898   0.882   3.514 -1.0056  0.3625  0.7764
  189DOPC   H3S23291   4.026   0.764   3.533  0.6664  1.3182 -3.2695
  189DOPC   C2423292   3.837   0.744   3.648 -0.1990  0.0074 -0.4631
  189DOPC   H4R23293   3.825   0.636   3.671  0.5245  0.3326  1.6000
  189DOPC   H4S23294   3.741   0.799   3.661 -0.2765 -0.8399  4.8082
  189DOPC   C2523295   3.925   0.782   3.769 -0.4825  0.5054  0.9091
  189DOPC   H5R23296   3.951   0.890   3.774  4.2395 -0.4481  2.0339
  189DOPC   H5S23297   4.022   0.736   3.742  0.2371  1.9372  0.9588
  189DOPC   C2623298   3.868   0.720   3.897 -0.4455 -0.7263 -0.7438
  189DOPC   H6R23299   3.858   0.610   3.886 -3.2087 -0.7382  0.8989
  189DOPC   H6S23300   3.766   0.763   3.912  0.0821  0.2955  0.0615
  189DOPC   C2723301   3.960   0.741   4.022 -0.1303  0.0006 -0.1653
  189DOPC   H7R23302   3.970   0.850   4.040  2.9118 -0.1373 -0.6147
  189DOPC   H7S23303   4.063   0.702   4.010  0.5242  1.6927 -0.2512
  189DOPC   C2823304   3.908   0.674   4.154  0.2596 -0.5096  0.7073
  189DOPC   H8R23305   3.799   0.693   4.160  0.2515  0.5034 -1.7466
  189DOPC   H8S23306   3.961   0.715   4.242 -0.6558 -2.0306  2.0197
  189DOPC   C2923307   3.948   0.532   4.158 -0.1107  1.0090  1.3527
  189DOPC   H9R23308   3.995   0.493   4.066 -0.7277  1.9357  0.6178
  189DOPC  C21023309   3.923   0.444   4.259  0.0862 -0.0321  0.0265
  189DOPC  H10R23310   3.966   0.342   4.266  2.5023  0.8640 -0.7104
  189DOPC  C21123311   3.847   0.475   4.385 -0.4493 -0.2219 -0.4332
  189DOPC  H11R23312   3.765   0.402   4.404  2.0804 -3.3646 -0.7590
  189DOPC  H11S23313   3.795   0.572   4.372 -1.5493 -0.7415 -0.0472
  189DOPC  C21223314   3.937   0.491   4.507 -0.0722  0.1772  0.0866
  189DOPC  H12R23315   3.872   0.520   4.592  0.1235 -0.1910  0.3647
  189DOPC  H12S23316   4.003   0.575   4.477  0.1142 -0.3388 -0.9887
  189DOPC  C21323317   4.011   0.359   4.531  0.4071  0.3292 -0.4278
  189DOPC  H13R23318   4.075   0.371   4.621  0.5187 -1.7159 -0.1762
  189DOPC  H13S23319   4.085   0.343   4.450  0.1853  3.3941 -1.3392
  189DOPC  C21423320   3.911   0.242   4.550  0.1803  0.0688  0.9888
  189DOPC  H14R23321   3.844   0.220   4.464 -1.7138  0.3432  2.3124
  189DOPC  H14S23322   3.838   0.274   4.628  2.1554  2.7261  1.9049
  189DOPC  C21523323   3.978   0.109   4.599 -0.3540  0.3435  0.0488
  189DOPC  H15R23324   3.899   0.039   4.634  0.4030 -0.6592 -0.1833
  189DOPC  H15S23325   4.046   0.116   4.686 -0.2764 -2.2261  0.2830
  189DOPC  C21623326   4.047   0.026   4.488 -0.6165  0.3973 -0.0546
  189DOPC  H16R23327   4.130   0.081   4.439 -0.5437  1.2556  1.0005
  189DOPC  H16S23328   3.973  -0.003   4.410  1.6240  0.5275 -2.3817
  189DOPC  C21723329   4.104  -0.105   4.536 -0.7996 -0.6224  0.1774
  189DOPC  H17R23330   4.173  -0.085   4.621 -0.6021 -3.3995  0.7881
  189DOPC  H17S23331   4.168  -0.157   4.461  2.3617  2.3336  0.6026
  189DOPC  C21823332   3.998  -0.204   4.587 -0.3075  0.4815  0.0152
  189DOPC  H18R23333   4.035  -0.305   4.617  0.0506 -0.0409 -2.0154
  189DOPC  H18S23334   3.926  -0.225   4.505  1.8666  0.7713 -2.0763
  189DOPC  H18T23335   3.945  -0.157   4.673 -0.1754  2.5593 -0.9868
  189DOPC   C3323336   3.362   0.599   3.789  0.1106 -0.0761  0.5186
  189DOPC   H3X23337   3.298   0.587   3.880 -1.6441 -2.0534 -0.8813
  189DOPC   H3Y23338   3.369   0.709   3.781 -1.6006 -0.0969 -2.5978
  189DOPC   C3423339   3.490   0.524   3.812 -0.1675 -0.7310 -0.1052
  189DOPC   H4X23340   3.561   0.564   3.737  1.4364 -0.6284  1.4041
  189DOPC   H4Y23341   3.476   0.416   3.786 -1.0384 -1.0567  1.6132
  189DOPC   C3523342   3.557   0.532   3.951 -0.3661 -0.4150 -0.1561
  189DOPC   H5X23343   3.595   0.634   3.973  1.7243 -1.3196  0.6540
  189DOPC   H5Y23344   3.653   0.476   3.953  0.4933  0.8985 -1.8944
  189DOPC   C3623345   3.460   0.482   4.066 -0.5513  0.3143  0.2097
  189DOPC   H6X23346   3.373   0.550   4.079  0.3291  1.3800  0.6865
  189DOPC   H6Y23347   3.427   0.381   4.033 -0.2568  0.3047 -0.0515
  189DOPC   C3723348   3.532   0.482   4.198 -0.2040 -0.3107 -0.4656
  189DOPC   H7X23349   3.621   0.415   4.192 -0.7714 -1.2805  1.2162
  189DOPC   H7Y23350   3.555   0.585   4.233 -3.2735 -0.1119  1.3102
  189DOPC   C3823351   3.455   0.419   4.318  0.1420  0.2176 -0.3849
  189DOPC   H8X23352   3.524   0.404   4.404 -1.7416 -0.9387  0.9888
  189DOPC   H8Y23353   3.414   0.319   4.292  0.6143 -1.1381  3.4765
  189DOPC   C3923354   3.339   0.502   4.367  0.4738  0.1258  0.0938
  189DOPC   H9X23355   3.269   0.527   4.286  2.1836  0.5709 -1.3207
  189DOPC  C31023356   3.313   0.564   4.490 -1.0365  0.6953  0.2760
  189DOPC  H10X23357   3.211   0.602   4.507 -0.9188  1.4014 -0.5124
  189DOPC  C31123358   3.413   0.559   4.603  0.1280  0.2678  0.1027
  189DOPC  H11X23359   3.405   0.659   4.650 -2.9217 -0.5283  1.5953
  189DOPC  H11Y23360   3.515   0.548   4.561 -0.4540 -0.1864 -1.2488
  189DOPC  C31223361   3.391   0.440   4.690 -0.0285  0.1753 -0.8231
  189DOPC  H12X23362   3.412   0.344   4.639  2.8049  0.2468  0.0239
  189DOPC  H12Y23363   3.298   0.426   4.749  1.0887 -0.3894  0.8796
  189DOPC  C31323364   3.493   0.445   4.809  0.1473 -0.5085  0.0933
  189DOPC  H13X23365   3.497   0.550   4.847  0.7349 -0.5277  0.0997
  189DOPC  H13Y23366   3.453   0.375   4.885 -0.0512  0.4354  0.8851
  189DOPC  C31423367   3.636   0.400   4.779 -0.2947 -0.1376 -0.1820
  189DOPC  H14X23368   3.646   0.292   4.754 -0.0358 -0.4863  1.3367
  189DOPC  H14Y23369   3.670   0.467   4.696  0.1885  1.1580  1.0233
  189DOPC  C31523370   3.740   0.422   4.895  0.2354  0.0190  0.4649
  189DOPC  H15X23371   3.712   0.523   4.932  0.6651  0.4201 -0.2881
  189DOPC  H15Y23372   3.845   0.426   4.859  0.5050  0.6752  1.2982
  189DOPC  C31623373   3.722   0.316   5.002 -0.8762  0.3720  0.1308
  189DOPC  H16X23374   3.617   0.321   5.037 -1.8141 -4.0579 -1.4249
  189DOPC  H16Y23375   3.728   0.216   4.954 -3.0780  0.3200 -0.1542
  189DOPC  C31723376   3.817   0.329   5.127 -0.0008  0.1053 -0.3418
  189DOPC  H17X23377   3.918   0.287   5.109 -0.0211 -0.2472  0.3308
  189DOPC  H17Y23378   3.827   0.439   5.141 -3.0298  0.5923 -1.2378
  189DOPC  C31823379   3.754   0.274   5.256  0.2370 -0.1583 -0.1131
  189DOPC  H18X23380   3.808   0.301   5.350  0.4174 -2.6829  0.5815
  189DOPC  H18Y23381   3.650   0.311   5.269  0.2398 -0.5099  1.1205
  189DOPC  H18Z23382   3.733   0.165   5.258 -1.1520  0.0942  0.2878
  190DOPC     N23383   2.506   0.028   2.786  0.6887  0.3696 -0.4546
  190DOPC   C1223384   2.448   0.058   2.923 -0.1778 -0.0585  0.8068
  190DOPC  H12A23385   2.455  -0.031   2.984 -0.6813 -0.7570 -0.1248
  190DOPC  H12B23386   2.342   0.080   2.922 -0.0679  0.6557  2.2492
  190DOPC   C1323387   2.463   0.129   2.685 -0.2140 -0.4658  0.6382
  190DOPC  H13A23388   2.450   0.231   2.720 -0.3629  1.3524 -4.0009
  190DOPC  H13B23389   2.539   0.135   2.609 -0.3944  0.3440  0.5043
  190DOPC  H13C23390   2.369   0.108   2.637 -0.3055  1.8684 -0.3578
  190DOPC   C1423391   2.448  -0.100   2.738  0.8081  0.0025 -0.0150
  190DOPC  H14A23392   2.479  -0.127   2.638  1.4891  0.3176  0.1081
  190DOPC  H14B23393   2.469  -0.186   2.799 -1.4339 -0.7124 -0.1863
  190DOPC  H14C23394   2.341  -0.088   2.733  0.7811 -0.2872 -0.1717
  190DOPC   C1523395   2.655   0.026   2.778 -0.1069  0.1177  0.3874
  190DOPC  H15A23396   2.697   0.116   2.820 -3.3198  1.7779  0.3717
  190DOPC  H15B23397   2.696   0.013   2.679  0.2268 -0.1337  0.5559
  190DOPC  H15C23398   2.686  -0.066   2.825 -2.1268 -0.9047 -0.1525
  190DOPC   C1123399   2.517   0.167   3.000 -0.0285  0.4083 -0.2890
  190DOPC  H11A23400   2.461   0.187   3.093 -0.0254  1.3023 -0.4699
  190DOPC  H11B23401   2.614   0.123   3.032  0.1205  0.1245 -1.0993
  190DOPC     P23402   2.665   0.370   2.949 -0.2262 -0.3811 -0.1956
  190DOPC   O1323403   2.646   0.516   2.911 -0.8763 -0.2824  0.3482
  190DOPC   O1423404   2.779   0.294   2.892 -0.4083  0.1077 -1.0292
  190DOPC   O1223405   2.531   0.286   2.921 -0.2534  0.5948  0.0969
  190DOPC   O1123406   2.668   0.354   3.110 -0.5688  0.4886  0.4153
  190DOPC    C123407   2.564   0.411   3.190  0.4256  0.3751  0.3789
  190DOPC    HA23408   2.502   0.327   3.228  1.2145 -2.0130 -3.1139
  190DOPC    HB23409   2.500   0.478   3.129  2.3093  1.4905 -0.4458
  190DOPC    C223410   2.625   0.490   3.303 -0.2603 -0.4520 -0.3083
  190DOPC    HS23411   2.705   0.557   3.266 -0.3308 -0.3235 -0.2302
  190DOPC   O2123412   2.676   0.399   3.404 -0.4759  0.4245  0.4573
  190DOPC   C2123413   2.768   0.454   3.484  0.0003 -0.3711 -0.5380
  190DOPC   O2223414   2.809   0.568   3.467  0.0673  0.7528 -0.0030
  190DOPC   C2223415   2.814   0.364   3.594 -0.5912 -0.0888 -0.0972
  190DOPC   H2R23416   2.871   0.281   3.547 -1.4243 -0.4832 -0.4308
  190DOPC   H2S23417   2.736   0.315   3.656 -0.5424 -0.9862 -0.7351
  190DOPC    C323418   2.519   0.586   3.362  0.8509  0.0336  0.0721
  190DOPC    HX23419   2.477   0.651   3.283 -1.6193  0.3620  1.5404
  190DOPC    HY23420   2.570   0.664   3.422 -0.0236  2.2797 -1.9753
  190DOPC   O3123421   2.410   0.520   3.424  0.2312  0.0339  0.1692
  190DOPC   C3123422   2.419   0.516   3.561  0.5554 -0.4295  0.2780
  190DOPC   O3223423   2.514   0.542   3.626 -0.2020  0.3081  0.4214
  190DOPC   C3223424   2.292   0.458   3.618 -0.0659 -0.0863 -1.0073
  190DOPC   H2X23425   2.222   0.540   3.645  0.7009  0.6645 -1.2263
  190DOPC   H2Y23426   2.245   0.385   3.549  0.4849 -4.6095  2.8564
  190DOPC   C2323427   2.909   0.438   3.698 -0.0531 -0.3947  0.5068
  190DOPC   H3R23428   2.865   0.531   3.740  0.4438 -0.0290  0.2391
  190DOPC   H3S23429   3.004   0.465   3.647 -1.0421 -0.0633 -1.2222
  190DOPC   C2423430   2.943   0.350   3.815  0.3383 -0.3181 -0.4719
  190DOPC   H4R23431   2.993   0.261   3.772 -0.7831 -0.6218 -1.1929
  190DOPC   H4S23432   2.850   0.322   3.869 -0.0091 -0.6433 -1.2212
  190DOPC   C2523433   3.042   0.413   3.914 -0.4582 -0.9879 -0.4075
  190DOPC   H5R23434   3.002   0.513   3.942 -2.6571 -1.8784 -0.1457
  190DOPC   H5S23435   3.129   0.425   3.845  0.1858 -0.0687  0.5228
  190DOPC   C2623436   3.068   0.338   4.042 -0.8920  0.0472 -0.6094
  190DOPC   H6R23437   3.132   0.404   4.104 -2.8652  2.1978 -0.7282
  190DOPC   H6S23438   3.132   0.248   4.027 -0.8402 -0.2452  1.2189
  190DOPC   C2723439   2.939   0.306   4.115  0.1093  0.4872 -0.7422
  190DOPC   H7R23440   2.889   0.212   4.084  1.2257 -0.2752 -0.3027
  190DOPC   H7S23441   2.870   0.391   4.098  1.8241  1.6571 -2.1177
  190DOPC   C2823442   2.951   0.301   4.264 -0.0387  0.2396 -0.3289
  190DOPC   H8R23443   2.946   0.408   4.293 -0.9016  0.3258 -0.7722
  190DOPC   H8S23444   3.050   0.258   4.293 -0.1737  0.2379  0.1259
  190DOPC   C2923445   2.850   0.220   4.345 -0.0715  0.1768  0.0654
  190DOPC   H9R23446   2.795   0.139   4.296  0.2208  0.3110 -0.4934
  190DOPC  C21023447   2.811   0.238   4.471 -0.1782  0.1453  0.5181
  190DOPC  H10R23448   2.744   0.156   4.503 -0.5312 -1.3868 -3.5906
  190DOPC  C21123449   2.852   0.350   4.559 -0.2719  0.5252  0.3110
  190DOPC  H11R23450   2.768   0.421   4.569 -1.3056 -0.7792  1.3997
  190DOPC  H11S23451   2.931   0.411   4.511  1.0031 -0.7650  0.6759
  190DOPC  C21223452   2.894   0.291   4.695 -0.0927  0.6708 -0.3729
  190DOPC  H12R23453   2.813   0.229   4.739 -0.4813  0.8821 -0.7745
  190DOPC  H12S23454   2.931   0.377   4.756  2.7286 -0.4330 -0.3670
  190DOPC  C21323455   3.020   0.198   4.678  0.0640  0.1875 -0.7009
  190DOPC  H13R23456   3.097   0.271   4.647 -1.3391  0.8447 -2.8894
  190DOPC  H13S23457   3.006   0.126   4.595  1.1374 -1.3729  0.4161
  190DOPC  C21423458   3.063   0.112   4.807  0.0846 -0.7130 -0.3185
  190DOPC  H14R23459   3.091   0.009   4.776 -1.1453 -1.7236  1.7315
  190DOPC  H14S23460   2.976   0.098   4.875 -0.4319 -0.6429 -0.9586
  190DOPC  C21523461   3.186   0.167   4.885 -0.2367 -0.4191 -0.2974
  190DOPC  H15R23462   3.169   0.253   4.953  0.6283 -1.1085  0.8207
  190DOPC  H15S23463   3.253   0.212   4.809 -1.2456  0.4646 -0.7039
  190DOPC  C21623464   3.262   0.069   4.973  0.1012 -0.0028 -0.8688
  190DOPC  H16R23465   3.303  -0.004   4.900 -0.6010 -0.0746 -1.2047
  190DOPC  H16S23466   3.192   0.017   5.042 -0.6565 -0.7329 -2.1380
  190DOPC  C21723467   3.379   0.122   5.057  0.0742  0.4795 -0.6703
  190DOPC  H17R23468   3.345   0.210   5.116 -2.0039 -0.0267 -1.0069
  190DOPC  H17S23469   3.467   0.146   4.994  2.4706 -0.6640  2.0270
  190DOPC  C21823470   3.433   0.011   5.150  1.0365  0.7646  0.7303
  190DOPC  H18R23471   3.368  -0.012   5.237  0.7211 -0.3455  0.2166
  190DOPC  H18S23472   3.536   0.046   5.175  1.3963  0.4074 -0.2134
  190DOPC  H18T23473   3.434  -0.081   5.088  0.7674  1.4243 -0.2688
  190DOPC   C3323474   2.306   0.373   3.747 -0.1514 -0.0375 -0.2818
  190DOPC   H3X23475   2.343   0.437   3.830 -0.9188  0.4655 -0.3226
  190DOPC   H3Y23476   2.382   0.292   3.735  0.5558  0.3712  1.2201
  190DOPC   C3423477   2.181   0.302   3.785  0.5771  0.6595 -0.1482
  190DOPC   H4X23478   2.202   0.217   3.852  0.7049  0.0999 -0.8826
  190DOPC   H4Y23479   2.143   0.250   3.694  1.0339  0.7014 -0.3665
  190DOPC   C3523480   2.074   0.397   3.834  0.1789  0.4063 -0.2621
  190DOPC   H5X23481   2.057   0.464   3.747 -2.2326 -0.4760 -0.5568
  190DOPC   H5Y23482   2.095   0.465   3.919  1.3266 -0.2236 -0.0149
  190DOPC   C3623483   1.936   0.332   3.869 -0.2360  0.8143 -0.5066
  190DOPC   H6X23484   1.859   0.410   3.893 -1.9736 -1.3442  1.3895
  190DOPC   H6Y23485   1.895   0.293   3.774 -0.0141  0.8967 -0.6363
  190DOPC   C3723486   1.949   0.230   3.993  0.4452  0.5529  0.0791
  190DOPC   H7X23487   1.999   0.137   3.957 -1.2200 -0.0063 -0.8794
  190DOPC   H7Y23488   2.018   0.266   4.072  1.4580  1.0198 -0.9762
  190DOPC   C3823489   1.818   0.176   4.052 -0.0289 -0.4007  1.3074
  190DOPC   H8X23490   1.759   0.131   3.969  1.2793 -0.2706  0.2705
  190DOPC   H8Y23491   1.763   0.261   4.097  0.0515  0.5714 -0.3416
  190DOPC   C3923492   1.856   0.069   4.152 -0.0472 -0.0394 -0.1983
  190DOPC   H9X23493   1.918  -0.009   4.107 -1.6131 -0.6471 -1.4089
  190DOPC  C31023494   1.820   0.062   4.282  0.1859 -0.1759  0.3717
  190DOPC  H10X23495   1.844  -0.029   4.339 -2.5257 -3.0239 -2.6233
  190DOPC  C31123496   1.733   0.159   4.353  0.5263 -0.3179 -0.7247
  190DOPC  H11X23497   1.645   0.098   4.383  1.5749 -1.0566  1.0081
  190DOPC  H11Y23498   1.700   0.251   4.300 -0.9596 -0.6064 -0.3317
  190DOPC  C31223499   1.798   0.209   4.485  0.2717  0.4905 -0.1192
  190DOPC  H12X23500   1.887   0.265   4.450 -0.1431  0.1661 -1.7904
  190DOPC  H12Y23501   1.827   0.127   4.554  0.0906  1.8886  1.7199
  190DOPC  C31323502   1.709   0.302   4.564 -0.4103 -0.4471 -0.2236
  190DOPC  H13X23503   1.651   0.364   4.492  2.0561  2.8316  0.4021
  190DOPC  H13Y23504   1.636   0.246   4.626  1.9167 -2.6500  0.7036
  190DOPC  C31423505   1.778   0.406   4.653  0.1527 -0.6564  0.5080
  190DOPC  H14X23506   1.853   0.467   4.599 -0.7302 -0.5064 -0.5983
  190DOPC  H14Y23507   1.700   0.480   4.681  0.1554 -0.8000  0.9026
  190DOPC  C31523508   1.843   0.348   4.778 -0.3812  0.5432 -0.5289
  190DOPC  H15X23509   1.883   0.425   4.848  0.9099 -0.0002 -0.6457
  190DOPC  H15Y23510   1.932   0.296   4.737 -1.0056 -0.7480 -0.2728
  190DOPC  C31623511   1.753   0.263   4.868 -0.1683 -0.3912 -0.7170
  190DOPC  H16X23512   1.683   0.334   4.917 -0.5214 -0.8136 -0.6055
  190DOPC  H16Y23513   1.685   0.193   4.815  0.7649 -1.1189 -0.9706
  190DOPC  C31723514   1.813   0.185   4.978 -0.0837  0.1600  0.4528
  190DOPC  H17X23515   1.805   0.247   5.070 -0.3668  3.3687 -1.5501
  190DOPC  H17Y23516   1.754   0.093   4.994  0.4670 -0.1253  0.8567
  190DOPC  C31823517   1.955   0.131   4.949  0.1112  0.2534  0.4494
  190DOPC  H18X23518   1.998   0.081   5.039  1.0996 -0.0824 -0.1949
  190DOPC  H18Y23519   1.951   0.053   4.870 -2.1554 -1.1848  1.8716
  190DOPC  H18Z23520   2.024   0.208   4.907 -0.2873  0.2653 -0.1845
  191DOPC     N23521   4.899   7.596   2.664 -0.0955  0.6116 -0.4263
  191DOPC   C1223522   4.909   7.575   2.811  0.0579 -0.0948 -0.1838
  191DOPC  H12A23523   4.931   7.666   2.864  0.2528 -1.2405  1.8321
  191DOPC  H12B23524   4.994   7.508   2.824  1.0940  1.2235  0.0904
  191DOPC   C1323525   5.029   7.651   2.601 -0.5784 -0.2126  1.1828
  191DOPC  H13A23526   5.020   7.646   2.493 -1.6124  0.1099  1.2371
  191DOPC  H13B23527   5.037   7.756   2.625 -0.5397 -0.0990  0.6826
  191DOPC  H13C23528   5.116   7.603   2.643  0.8030  0.3399 -0.9090
  191DOPC   C1423529   4.790   7.689   2.640 -0.3587  0.6598 -0.1114
  191DOPC  H14A23530   4.694   7.645   2.660  0.5667 -0.7690  1.3690
  191DOPC  H14B23531   4.808   7.782   2.693 -3.5493  0.0617  2.3222
  191DOPC  H14C23532   4.786   7.719   2.536  0.1464 -0.3820 -0.4479
  191DOPC   C1523533   4.878   7.466   2.597 -0.2252  0.7018 -0.1626
  191DOPC  H15A23534   4.883   7.477   2.490 -0.6935 -0.2821 -0.2971
  191DOPC  H15B23535   4.783   7.416   2.610  0.4784 -0.3080  1.4098
  191DOPC  H15C23536   4.935   7.383   2.634 -3.4968 -1.4226  0.5321
  191DOPC   C1123537   4.791   7.513   2.890  0.2669  0.0270 -0.7219
  191DOPC  H11A23538   4.804   7.512   3.000 -0.5748  3.1741 -0.5064
  191DOPC  H11B23539   4.698   7.571   2.873  0.3596  0.6734  0.7969
  191DOPC     P23540   4.837   7.244   2.870  0.1251  0.3049 -0.1435
  191DOPC   O1323541   4.977   7.282   2.870 -0.8398 -0.5516 -0.7483
  191DOPC   O1423542   4.797   7.138   2.772 -0.2059 -0.1113 -0.1506
  191DOPC   O1223543   4.756   7.380   2.839  0.1172 -0.5087 -0.2296
  191DOPC   O1123544   4.790   7.213   3.016 -0.0995  0.0549 -0.1365
  191DOPC    C123545   4.647   7.210   3.040  0.3701  1.1157  0.2740
  191DOPC    HA23546   4.622   7.113   3.087 -2.1135  0.9749 -1.1777
  191DOPC    HB23547   4.587   7.224   2.947 -0.1946  3.4099  0.9317
  191DOPC    C223548   4.613   7.326   3.140  0.0060  0.2484  0.1813
  191DOPC    HS23549   4.649   7.421   3.094  0.9309 -1.4769 -2.9632
  191DOPC   O2123550   4.664   7.299   3.269  0.4933  0.4528 -0.0621
  191DOPC   C2123551   4.773   7.362   3.301 -0.3269 -0.1283  0.4567
  191DOPC   O2223552   4.823   7.445   3.231 -0.5314  0.4351 -0.6115
  191DOPC   C2223553   4.814   7.318   3.444 -0.1387 -0.5099  0.1993
  191DOPC   H2R23554   4.907   7.258   3.436  0.4940  0.4531  0.1948
  191DOPC   H2S23555   4.731   7.250   3.475  0.5082 -1.2199  0.4138
  191DOPC    C323556   4.459   7.349   3.144  0.1043  0.5510  0.6225
  191DOPC    HX23557   4.415   7.261   3.196  0.3366  1.6640  2.8001
  191DOPC    HY23558   4.423   7.361   3.040 -0.9130 -1.3282  0.7037
  191DOPC   O3123559   4.430   7.468   3.213 -0.7805  0.2703  0.6052
  191DOPC   C3123560   4.300   7.475   3.249 -0.1091  0.1423 -0.7563
  191DOPC   O3223561   4.217   7.390   3.245  0.2111  0.4592 -0.0333
  191DOPC   C3223562   4.279   7.607   3.311  0.5629 -0.2559 -0.3791
  191DOPC   H2X23563   4.370   7.669   3.323 -0.4955  1.1165  1.1274
  191DOPC   H2Y23564   4.207   7.659   3.245  1.6097 -1.0166 -2.1667
  191DOPC   C2323565   4.828   7.433   3.544 -0.3533  0.2796  0.1744
  191DOPC   H3R23566   4.851   7.391   3.644  0.5575  0.9449  0.2592
  191DOPC   H3S23567   4.737   7.496   3.556  1.1666  2.2017  2.5813
  191DOPC   C2423568   4.957   7.507   3.503  0.2061 -0.1354 -0.7201
  191DOPC   H4R23569   4.952   7.564   3.408 -0.1173  2.8806  0.9566
  191DOPC   H4S23570   5.035   7.430   3.486 -0.7179 -0.7649 -2.2966
  191DOPC   C2523571   4.989   7.597   3.617 -0.2736  0.4176  0.7970
  191DOPC   H5R23572   5.000   7.537   3.710 -0.4222 -1.9529 -0.6473
  191DOPC   H5S23573   4.897   7.658   3.630 -0.5048  0.1511  0.3931
  191DOPC   C2623574   5.113   7.684   3.594 -0.5654  0.3972  0.0973
  191DOPC   H6R23575   5.094   7.737   3.498 -2.1477 -0.4196 -0.0586
  191DOPC   H6S23576   5.198   7.615   3.572  0.4327  1.8047 -0.6799
  191DOPC   C2723577   5.148   7.789   3.702  0.5134  0.0519 -0.4506
  191DOPC   H7R23578   5.111   7.745   3.797  0.3010 -0.1267 -0.6158
  191DOPC   H7S23579   5.079   7.872   3.679  1.3370  0.4826 -1.4879
  191DOPC   C2823580   5.300   7.833   3.721  0.2817  0.1901  0.4481
  191DOPC   H8R23581   5.328   7.863   3.618  1.4027  0.1876  0.7341
  191DOPC   H8S23582   5.358   7.740   3.739 -0.1434 -0.3259 -0.7456
  191DOPC   C2923583   5.311   7.959   3.812 -0.5560  0.4318  0.6823
  191DOPC   H9R23584   5.343   8.050   3.760  0.8827  0.0962  0.9460
  191DOPC  C21023585   5.310   7.970   3.942  0.4735  0.5574 -0.8461
  191DOPC  H10R23586   5.305   8.072   3.983 -0.9669  0.3680 -0.5118
  191DOPC  C21123587   5.294   7.856   4.038 -0.2673 -0.0235  0.0956
  191DOPC  H11R23588   5.307   7.764   3.978 -1.1444 -0.5885  0.7348
  191DOPC  H11S23589   5.197   7.852   4.092  0.0026  2.0376  0.8140
  191DOPC  C21223590   5.402   7.859   4.143 -0.3286 -0.6366  0.1319
  191DOPC  H12R23591   5.499   7.878   4.092 -0.8619 -0.1695 -0.7205
  191DOPC  H12S23592   5.407   7.762   4.198  3.2296  0.5420  2.2406
  191DOPC  C21323593   5.392   7.976   4.250 -0.0426  0.3178 -0.2292
  191DOPC  H13R23594   5.295   7.963   4.302 -0.1360  1.7954  0.0238
  191DOPC  H13S23595   5.386   8.080   4.211 -0.9869  0.8856  1.3307
  191DOPC  C21423596   5.495   7.957   4.359  0.2420 -0.0984 -0.3329
  191DOPC  H14R23597   5.589   7.925   4.311 -1.2950 -2.1051 -2.1886
  191DOPC  H14S23598   5.464   7.878   4.431  0.8313  0.8657  1.0157
  191DOPC  C21523599   5.517   8.078   4.450  0.0878 -0.1592  0.0948
  191DOPC  H15R23600   5.418   8.115   4.486 -0.2110 -2.0274  1.3275
  191DOPC  H15S23601   5.556   8.152   4.377 -1.6483 -1.4173 -2.2760
  191DOPC  C21623602   5.615   8.060   4.567 -0.2598  0.3069  0.0065
  191DOPC  H16R23603   5.715   8.038   4.523 -0.0676  0.0206  0.5853
  191DOPC  H16S23604   5.583   7.971   4.624 -0.4669  0.3980  0.0322
  191DOPC  C21723605   5.629   8.180   4.661  0.1758 -0.5720  0.3422
  191DOPC  H17R23606   5.531   8.229   4.680  0.3912  0.3618 -0.8318
  191DOPC  H17S23607   5.688   8.254   4.602  1.5464 -1.3794  0.6497
  191DOPC  C21823608   5.713   8.145   4.786 -0.0964 -0.8621  0.5499
  191DOPC  H18R23609   5.669   8.068   4.853  1.0888 -0.5281  1.7821
  191DOPC  H18S23610   5.738   8.229   4.854 -0.9933 -1.1543  1.2549
  191DOPC  H18T23611   5.810   8.104   4.751  0.5955 -0.3533  1.7832
  191DOPC   C3323612   4.214   7.609   3.449  0.3901 -0.3569 -0.5458
  191DOPC   H3X23613   4.261   7.529   3.510 -0.6129 -0.9905 -0.5711
  191DOPC   H3Y23614   4.107   7.578   3.440 -0.0248  1.2654 -1.5231
  191DOPC   C3423615   4.229   7.742   3.517 -0.3794  0.6181 -0.7157
  191DOPC   H4X23616   4.155   7.809   3.468 -2.5022 -2.2678 -1.7115
  191DOPC   H4Y23617   4.329   7.786   3.494 -0.2921 -0.1729 -1.9206
  191DOPC   C3523618   4.190   7.733   3.665 -0.3526  0.4698 -0.1706
  191DOPC   H5X23619   4.093   7.681   3.676 -0.9007  1.0673 -1.7502
  191DOPC   H5Y23620   4.188   7.841   3.693 -0.2366  0.0945  1.3766
  191DOPC   C3623621   4.307   7.675   3.751  0.1978 -0.2816  0.2968
  191DOPC   H6X23622   4.295   7.565   3.738 -1.8725  0.1027 -1.5785
  191DOPC   H6Y23623   4.410   7.698   3.717  0.3636  0.9485  1.5365
  191DOPC   C3723624   4.284   7.708   3.896 -0.0678  0.5796 -0.2174
  191DOPC   H7X23625   4.322   7.806   3.934  1.4877 -0.6228  1.4835
  191DOPC   H7Y23626   4.175   7.723   3.914 -0.3738 -0.7409 -0.9108
  191DOPC   C3823627   4.323   7.583   3.984 -0.2261 -0.0990  0.1016
  191DOPC   H8X23628   4.430   7.564   3.961 -0.7447 -1.7404 -1.1989
  191DOPC   H8Y23629   4.267   7.497   3.940 -0.1127  0.1346 -0.5110
  191DOPC   C3923630   4.290   7.610   4.127 -0.6636  0.2579 -0.4674
  191DOPC   H9X23631   4.188   7.577   4.151 -0.5948  0.9205  0.8216
  191DOPC  C31023632   4.364   7.658   4.230 -0.6643 -0.4376 -0.5641
  191DOPC  H10X23633   4.319   7.663   4.330  0.2323  1.6757 -0.2212
  191DOPC  C31123634   4.508   7.701   4.219  0.4531 -0.0578 -0.0905
  191DOPC  H11X23635   4.533   7.760   4.128 -2.1678  3.0897  1.0198
  191DOPC  H11Y23636   4.575   7.613   4.212  0.4443  0.0586 -2.1465
  191DOPC  C31223637   4.562   7.787   4.331 -0.5965 -0.1281 -0.3597
  191DOPC  H12X23638   4.501   7.879   4.335 -0.9266 -0.1776 -2.7875
  191DOPC  H12Y23639   4.669   7.804   4.305 -0.6068 -0.9355 -0.9905
  191DOPC  C31323640   4.567   7.711   4.469 -0.4371 -0.0491 -0.2059
  191DOPC  H13X23641   4.570   7.779   4.557  0.2891  0.1152 -0.3482
  191DOPC  H13Y23642   4.479   7.643   4.470 -0.0400 -0.6088 -1.8209
  191DOPC  C31423643   4.696   7.626   4.487  0.0470  0.0868 -0.0741
  191DOPC  H14X23644   4.726   7.570   4.395  2.1904 -3.5830  2.5752
  191DOPC  H14Y23645   4.788   7.684   4.509 -0.1072  0.9493 -1.5493
  191DOPC  C31523646   4.668   7.515   4.588 -0.0293 -0.1938 -0.4737
  191DOPC  H15X23647   4.734   7.429   4.566 -0.7104 -0.7355 -0.4308
  191DOPC  H15Y23648   4.567   7.473   4.569  0.7243 -2.7984  0.7460
  191DOPC  C31623649   4.691   7.558   4.737 -0.3025  0.9334 -0.5908
  191DOPC  H16X23650   4.797   7.540   4.769 -0.3056  1.9146  0.0047
  191DOPC  H16Y23651   4.664   7.661   4.768  0.0493  0.6055  0.8841
  191DOPC  C31723652   4.599   7.475   4.831  0.0106  0.3468  0.3369
  191DOPC  H17X23653   4.585   7.537   4.922 -2.8585  0.9136 -0.4144
  191DOPC  H17Y23654   4.499   7.449   4.791  0.6454 -0.5367 -0.7248
  191DOPC  C31823655   4.656   7.344   4.884 -0.3880  0.1860  0.2602
  191DOPC  H18X23656   4.673   7.264   4.808 -1.2208  0.3296 -0.0872
  191DOPC  H18Y23657   4.748   7.355   4.946 -1.5191  0.5876  1.9356
  191DOPC  H18Z23658   4.588   7.297   4.958 -2.1362 -0.2384 -1.5100
  192DOPC     N23659   1.376   4.378   2.948 -0.0221 -0.1479  0.2200
  192DOPC   C1223660   1.421   4.457   3.073 -0.1256  0.0630  0.1940
  192DOPC  H12A23661   1.456   4.554   3.040  2.9961 -1.1249 -0.4032
  192DOPC  H12B23662   1.510   4.406   3.107 -0.4626 -0.4122  0.3633
  192DOPC   C1323663   1.365   4.230   2.984 -0.4639  0.2702  0.4014
  192DOPC  H13A23664   1.332   4.167   2.903  2.5083 -0.6880 -0.2095
  192DOPC  H13B23665   1.460   4.187   3.010 -0.9359 -1.1903 -0.2124
  192DOPC  H13C23666   1.295   4.216   3.065 -2.3410  5.0866 -0.0639
  192DOPC   C1423667   1.476   4.400   2.835 -0.0113  0.5404 -0.7710
  192DOPC  H14A23668   1.455   4.343   2.745  0.3724  0.3338 -0.7351
  192DOPC  H14B23669   1.472   4.505   2.810  2.8590  0.4592 -1.9646
  192DOPC  H14C23670   1.579   4.387   2.864 -0.0720  0.9320 -0.3748
  192DOPC   C1523671   1.243   4.420   2.906 -0.0006  0.5206  0.0815
  192DOPC  H15A23672   1.173   4.422   2.988  1.4086 -0.9444  1.4020
  192DOPC  H15B23673   1.201   4.362   2.826  0.2120  0.4108  0.0497
  192DOPC  H15C23674   1.251   4.522   2.872  0.2086 -0.7001 -3.9567
  192DOPC   C1123675   1.311   4.489   3.183  0.3513 -0.1453  0.1706
  192DOPC  H11A23676   1.260   4.391   3.197  0.4144 -0.6172 -2.4547
  192DOPC  H11B23677   1.354   4.517   3.282 -0.3893  0.6017  0.2916
  192DOPC     P23678   1.268   4.741   3.123 -0.3088 -0.5993  0.2999
  192DOPC   O1323679   1.151   4.820   3.064 -0.6367  0.7208 -0.2054
  192DOPC   O1423680   1.395   4.749   3.040  0.7055 -0.1553 -0.0245
  192DOPC   O1223681   1.219   4.588   3.132 -0.6194  0.3891  0.6093
  192DOPC   O1123682   1.306   4.790   3.269 -0.0040 -0.3891  0.4236
  192DOPC    C123683   1.263   4.736   3.388  0.4998 -0.1980  0.2792
  192DOPC    HA23684   1.345   4.692   3.449  0.6726  1.8546  1.6151
  192DOPC    HB23685   1.181   4.662   3.375 -0.7663  1.2173 -0.2018
  192DOPC    C223686   1.203   4.845   3.477  0.9461  0.5075  0.0996
  192DOPC    HS23687   1.147   4.916   3.412  1.1145  1.3072  0.7971
  192DOPC   O2123688   1.309   4.915   3.543  0.1299 -0.8194 -0.2638
  192DOPC   C2123689   1.302   5.053   3.532  1.0447  0.9061 -0.3390
  192DOPC   O2223690   1.204   5.116   3.496  0.6994  0.7092  0.6681
  192DOPC   C2223691   1.444   5.101   3.562  0.2862 -0.0911 -0.3317
  192DOPC   H2R23692   1.483   5.118   3.459 -0.0941  0.7450 -0.3413
  192DOPC   H2S23693   1.506   5.032   3.624  0.5850  1.3911  1.0889
  192DOPC    C323694   1.104   4.791   3.582 -0.2555  0.1860 -0.5367
  192DOPC    HX23695   1.141   4.715   3.654  0.3715  0.5913 -0.4161
  192DOPC    HY23696   1.020   4.744   3.527  0.5899 -1.6669 -0.3039
  192DOPC   O3123697   1.059   4.895   3.665  0.1929  0.3027 -0.3149
  192DOPC   C3123698   0.961   4.973   3.618  0.0001  0.1773  0.0989
  192DOPC   O3223699   0.906   4.959   3.506  0.1833  0.1419 -0.3864
  192DOPC   C3223700   0.926   5.087   3.725 -0.5424  0.0212  0.5648
  192DOPC   H2X23701   0.828   5.066   3.773 -0.4436 -0.3599  0.6044
  192DOPC   H2Y23702   1.009   5.078   3.799  0.4400 -1.4379 -0.6591
  192DOPC   C2323703   1.434   5.244   3.635 -0.7874 -0.0402  0.3330
  192DOPC   H3R23704   1.379   5.321   3.576  0.0990  0.9840  0.8172
  192DOPC   H3S23705   1.539   5.278   3.643 -0.3587 -0.4770 -2.3081
  192DOPC   C2423706   1.397   5.255   3.783  0.4168 -0.2625  0.9446
  192DOPC   H4R23707   1.287   5.252   3.800  0.4299 -2.6655  0.9914
  192DOPC   H4S23708   1.414   5.359   3.819  1.2924 -0.0778  0.0291
  192DOPC   C2523709   1.467   5.160   3.876  0.3235  0.1660  1.0123
  192DOPC   H5R23710   1.576   5.170   3.858  0.6083 -2.3396  1.0459
  192DOPC   H5S23711   1.446   5.056   3.844  1.0368  0.3153  0.0268
  192DOPC   C2623712   1.437   5.191   4.025 -0.4979  0.0953  0.1154
  192DOPC   H6R23713   1.453   5.096   4.080 -1.0751  1.1256  2.1540
  192DOPC   H6S23714   1.329   5.211   4.040 -0.1902  0.5827  1.8798
  192DOPC   C2723715   1.523   5.300   4.093 -0.7220  0.4425 -0.0065
  192DOPC   H7R23716   1.513   5.394   4.034  1.6803 -0.2153 -1.6095
  192DOPC   H7S23717   1.629   5.275   4.070 -0.8758 -1.4356  1.1452
  192DOPC   C2823718   1.503   5.299   4.245  0.8878  0.1870 -0.0935
  192DOPC   H8R23719   1.594   5.341   4.291  1.3063 -1.9400  1.1955
  192DOPC   H8S23720   1.499   5.192   4.276  0.8171  0.5773  1.2906
  192DOPC   C2923721   1.375   5.361   4.298 -0.4421  0.1569  0.1118
  192DOPC   H9R23722   1.360   5.465   4.265 -0.1657 -0.2465 -1.3895
  192DOPC  C21023723   1.277   5.304   4.368 -0.6236  0.1146 -0.1512
  192DOPC  H10R23724   1.192   5.363   4.405 -1.2385  0.0438 -1.4256
  192DOPC  C21123725   1.276   5.159   4.410  0.8902  0.0086  0.1117
  192DOPC  H11R23726   1.373   5.131   4.456  0.5648  1.8041  2.0832
  192DOPC  H11S23727   1.251   5.104   4.317 -0.6334  2.2171 -0.8909
  192DOPC  C21223728   1.171   5.124   4.509  0.1209  0.1439 -0.0580
  192DOPC  H12R23729   1.075   5.108   4.454  0.2487  0.6374 -0.4310
  192DOPC  H12S23730   1.164   5.191   4.598 -1.2117  0.5362 -0.4339
  192DOPC  C21323731   1.201   4.998   4.589  0.0278 -0.1123  0.1984
  192DOPC  H13R23732   1.289   5.000   4.657 -1.1031  0.0579  1.7112
  192DOPC  H13S23733   1.227   4.927   4.507 -1.6949  1.8360 -2.1758
  192DOPC  C21423734   1.076   4.952   4.664 -0.5227 -0.0140 -0.2217
  192DOPC  H14R23735   1.102   4.857   4.716 -0.3087  0.2976  0.2453
  192DOPC  H14S23736   1.004   4.928   4.582 -0.0237  1.2790 -1.0570
  192DOPC  C21523737   1.018   5.046   4.777 -0.1954  0.7465 -0.1475
  192DOPC  H15R23738   0.986   5.140   4.727  3.4920  2.8593  1.0641
  192DOPC  H15S23739   1.109   5.058   4.840 -0.0430 -1.0301  0.0324
  192DOPC  C21623740   0.905   4.968   4.840  0.2033  0.0458 -0.0293
  192DOPC  H16R23741   0.921   4.858   4.837 -2.0824 -0.4144  1.9348
  192DOPC  H16S23742   0.810   4.983   4.785  0.3295 -3.6654 -1.5260
  192DOPC  C21723743   0.890   5.023   4.988  0.2832 -0.8415  0.5632
  192DOPC  H17R23744   0.859   5.129   4.978 -1.3328 -1.4783 -2.6974
  192DOPC  H17S23745   0.984   5.004   5.045 -0.2156 -1.0559  1.3284
  192DOPC  C21823746   0.775   4.958   5.059  0.9750  0.0107 -0.4206
  192DOPC  H18R23747   0.751   4.857   5.018 -1.7221 -0.5299  2.1845
  192DOPC  H18S23748   0.679   5.013   5.054  0.3207 -1.1166 -0.5571
  192DOPC  H18T23749   0.795   4.954   5.168  0.2203  0.6172 -0.2528
  192DOPC   C3323750   0.920   5.227   3.650 -0.6166 -0.2465 -0.3357
  192DOPC   H3X23751   0.862   5.211   3.556  0.3473 -0.1020 -0.9710
  192DOPC   H3Y23752   1.019   5.264   3.616 -0.1673 -0.4091  0.7634
  192DOPC   C3423753   0.837   5.325   3.722  0.0055 -1.0201 -0.4255
  192DOPC   H4X23754   0.887   5.358   3.816  2.8033 -2.1096 -1.4436
  192DOPC   H4Y23755   0.737   5.282   3.743 -0.1091 -1.8194 -2.4287
  192DOPC   C3523756   0.812   5.453   3.635  0.3424  0.0142 -0.2234
  192DOPC   H5X23757   0.752   5.415   3.550  0.1296  0.3048 -0.2046
  192DOPC   H5Y23758   0.906   5.500   3.599  2.2974 -2.9113  0.6483
  192DOPC   C3623759   0.720   5.548   3.710  0.0185  0.0307 -0.0399
  192DOPC   H6X23760   0.637   5.490   3.754 -0.4892  0.6256 -0.1965
  192DOPC   H6Y23761   0.777   5.594   3.794 -0.9993  2.2801 -0.4956
  192DOPC   C3723762   0.668   5.674   3.637  0.3685 -0.4591  0.3006
  192DOPC   H7X23763   0.760   5.733   3.614 -0.5299  0.6249 -0.6441
  192DOPC   H7Y23764   0.627   5.657   3.535 -0.8981  2.7251  0.1778
  192DOPC   C3823765   0.573   5.765   3.718 -0.3331 -0.0739 -0.2454
  192DOPC   H8X23766   0.549   5.861   3.669 -1.7824 -1.4160 -2.3408
  192DOPC   H8Y23767   0.621   5.788   3.816  0.7206 -1.4592 -0.3964
  192DOPC   C3923768   0.449   5.696   3.764  0.2200 -0.6365  0.1588
  192DOPC   H9X23769   0.456   5.601   3.819 -0.8775  0.6114  2.5961
  192DOPC  C31023770   0.329   5.744   3.750  0.1846 -0.1304 -0.5158
  192DOPC  H10X23771   0.243   5.687   3.786 -0.4889  1.5155  0.5984
  192DOPC  C31123772   0.284   5.873   3.689 -0.0708  0.1062  0.3034
  192DOPC  H11X23773   0.257   5.857   3.582 -0.1798  0.8765  0.2131
  192DOPC  H11Y23774   0.368   5.945   3.689  0.4710 -0.5177  0.0410
  192DOPC  C31223775   0.161   5.924   3.764  0.1568  0.3617  0.5677
  192DOPC  H12X23776   0.196   5.947   3.868  2.2952 -3.4521  0.8567
  192DOPC  H12Y23777   0.081   5.849   3.778  0.8870 -0.2520  1.5809
  192DOPC  C31323778   0.099   6.047   3.685 -0.0421  0.0591 -0.3364
  192DOPC  H13X23779   0.184   6.115   3.663  2.2860 -0.9645  4.3062
  192DOPC  H13Y23780   0.055   6.016   3.588 -0.8933  3.6555 -1.2692
  192DOPC  C31423781  -0.007   6.123   3.770 -0.6935 -0.0497 -0.2746
  192DOPC  H14X23782  -0.038   6.208   3.705  1.4281  0.2579 -0.9536
  192DOPC  H14Y23783  -0.088   6.052   3.795 -1.0894  0.8678  1.1524
  192DOPC  C31523784   0.051   6.187   3.893 -0.6646 -0.1487 -0.5559
  192DOPC  H15X23785   0.138   6.238   3.846 -0.3066 -1.4306 -1.3220
  192DOPC  H15Y23786   0.099   6.117   3.964  0.1701  0.6187 -0.3458
  192DOPC  C31623787  -0.033   6.292   3.959 -0.4670  0.5584  0.2638
  192DOPC  H16X23788  -0.050   6.370   3.881 -0.3337 -1.6261 -2.1072
  192DOPC  H16Y23789  -0.125   6.238   3.991 -0.0663  0.7725  1.8660
  192DOPC  C31723790   0.045   6.356   4.077 -0.6172  0.1182 -0.0574
  192DOPC  H17X23791   0.087   6.273   4.139 -1.0254 -0.2466 -0.2633
  192DOPC  H17Y23792   0.124   6.419   4.031 -2.7918  0.3309 -3.9415
  192DOPC  C31823793  -0.044   6.446   4.166 -0.3422 -0.3591  0.5939
  192DOPC  H18X23794  -0.141   6.392   4.180 -1.0435  0.2774 -1.4306
  192DOPC  H18Y23795   0.003   6.476   4.261 -1.5910 -0.3471  1.2316
  192DOPC  H18Z23796  -0.062   6.542   4.113  0.5991  0.1634  1.2009
  193DOPC     N23797   7.084   1.356   2.831  0.5101 -0.1975  0.1082
  193DOPC   C1223798   7.103   1.497   2.884  0.2356 -0.3134  0.3906
  193DOPC  H12A23799   7.007   1.547   2.882  0.7166  0.6154 -0.1769
  193DOPC  H12B23800   7.173   1.556   2.828 -1.4341  2.7212  1.2257
  193DOPC   C1323801   6.998   1.272   2.927 -0.0314  0.3977 -0.3953
  193DOPC  H13A23802   7.024   1.289   3.030 -2.6512 -0.3594  0.4809
  193DOPC  H13B23803   6.892   1.285   2.910 -0.6207 -1.9407  0.9905
  193DOPC  H13C23804   7.019   1.167   2.910 -0.8952 -0.0597  1.0731
  193DOPC   C1423805   7.217   1.288   2.792  0.9314  0.0367  0.0412
  193DOPC  H14A23806   7.283   1.282   2.878  1.5577 -2.0619 -0.5290
  193DOPC  H14B23807   7.200   1.189   2.753  2.0607 -1.0281  2.0787
  193DOPC  H14C23808   7.260   1.347   2.712 -0.2938  1.9984  0.7448
  193DOPC   C1523809   7.006   1.352   2.700  0.5091 -0.5062 -0.5051
  193DOPC  H15A23810   6.904   1.383   2.716  0.6099 -0.7069  0.6721
  193DOPC  H15B23811   7.005   1.253   2.657  0.7834 -0.9662  0.4925
  193DOPC  H15C23812   7.051   1.415   2.625 -0.9257 -0.2520 -1.1762
  193DOPC   C1123813   7.149   1.507   3.032  0.1862 -0.4493  0.1913
  193DOPC  H11A23814   7.157   1.616   3.053  1.8048 -0.3268 -0.8569
  193DOPC  H11B23815   7.073   1.457   3.095 -0.5104 -0.8891 -0.9704
  193DOPC     P23816   7.409   1.510   2.999  0.0667  0.2449  0.1780
  193DOPC   O1323817   7.399   1.574   2.862 -0.4516 -0.0693  0.3706
  193DOPC   O1423818   7.520   1.412   3.009 -0.3391 -0.7104  0.0404
  193DOPC   O1223819   7.271   1.436   3.045 -0.1668 -0.5056 -0.1661
  193DOPC   O1123820   7.436   1.628   3.107  0.5423  0.5807 -0.0247
  193DOPC    C123821   7.417   1.598   3.248 -0.6685  0.2704 -0.0409
  193DOPC    HA23822   7.310   1.570   3.262 -0.6825  0.4998  0.3041
  193DOPC    HB23823   7.423   1.696   3.299 -0.2712  1.4205 -2.1524
  193DOPC    C223824   7.527   1.503   3.317 -0.0904 -0.2183 -0.7085
  193DOPC    HS23825   7.515   1.402   3.271 -1.1410  0.7538 -2.7433
  193DOPC   O2123826   7.504   1.496   3.456 -0.1499  0.1178 -0.4853
  193DOPC   C2123827   7.392   1.431   3.494  0.0066 -0.5543  0.3296
  193DOPC   O2223828   7.313   1.375   3.418  0.4202  0.2501 -0.0210
  193DOPC   C2223829   7.369   1.441   3.646 -0.3293 -0.1180  0.0803
  193DOPC   H2R23830   7.371   1.335   3.679 -1.4411 -1.0362 -2.4973
  193DOPC   H2S23831   7.270   1.482   3.674 -0.6934 -0.7167 -0.3054
  193DOPC    C323832   7.673   1.557   3.293 -0.1752  0.5766 -0.4643
  193DOPC    HX23833   7.683   1.611   3.197  3.8371 -0.4183 -0.7626
  193DOPC    HY23834   7.736   1.467   3.302 -1.5529 -0.2606  1.7672
  193DOPC   O3123835   7.726   1.641   3.405  0.3173  0.1040  0.0610
  193DOPC   C3123836   7.718   1.766   3.393  0.0803 -0.0462 -0.7884
  193DOPC   O3223837   7.679   1.828   3.300  1.0150 -0.4518 -0.1327
  193DOPC   C3223838   7.785   1.837   3.516  1.2915  0.7040 -0.4637
  193DOPC   H2X23839   7.879   1.885   3.481  2.0052 -0.7700 -0.6578
  193DOPC   H2Y23840   7.708   1.915   3.533  0.7742  0.1998 -0.4791
  193DOPC   C2323841   7.477   1.522   3.724  0.0120  0.1906 -0.0411
  193DOPC   H3R23842   7.487   1.624   3.680 -0.9549 -0.2196 -1.2515
  193DOPC   H3S23843   7.568   1.460   3.705 -0.1478 -0.0732  0.0508
  193DOPC   C2423844   7.458   1.529   3.872  0.2444 -0.5917 -0.5775
  193DOPC   H4R23845   7.361   1.584   3.875 -0.4015 -1.6082 -2.1842
  193DOPC   H4S23846   7.533   1.591   3.926 -1.6136  0.4133  1.0351
  193DOPC   C2523847   7.432   1.400   3.947 -0.2818  0.3581 -0.0037
  193DOPC   H5R23848   7.352   1.338   3.901 -0.2856  0.6262 -0.3643
  193DOPC   H5S23849   7.387   1.422   4.045 -0.7639 -1.8143  0.2998
  193DOPC   C2623850   7.553   1.321   3.998 -0.2292  0.6198  0.0244
  193DOPC   H6R23851   7.627   1.380   4.057 -2.1858 -1.0044  4.5483
  193DOPC   H6S23852   7.613   1.289   3.910  1.3492  0.0609  1.2465
  193DOPC   C2723853   7.510   1.195   4.072 -0.4119  0.3093  0.1137
  193DOPC   H7R23854   7.598   1.129   4.083  0.3583  1.1351 -0.8665
  193DOPC   H7S23855   7.445   1.146   3.996  1.2017  0.8260 -1.6619
  193DOPC   C2823856   7.435   1.212   4.209 -0.4248  0.1811 -0.4462
  193DOPC   H8R23857   7.411   1.111   4.249 -1.7021  0.3433 -0.7568
  193DOPC   H8S23858   7.345   1.275   4.194 -0.0711  0.5494 -1.0616
  193DOPC   C2923859   7.539   1.277   4.303  0.0593 -0.4363  0.1616
  193DOPC   H9R23860   7.645   1.279   4.272  0.3570  1.7640  1.0810
  193DOPC  C21023861   7.509   1.330   4.424 -0.2490 -0.0208 -1.0416
  193DOPC  H10R23862   7.590   1.382   4.476 -1.9749  0.4333  1.3633
  193DOPC  C21123863   7.371   1.332   4.485 -0.0985 -0.0691  0.5215
  193DOPC  H11R23864   7.286   1.275   4.442 -0.6737  1.0829  0.0877
  193DOPC  H11S23865   7.340   1.439   4.497  1.6471  0.6482 -0.9885
  193DOPC  C21223866   7.397   1.287   4.634 -0.3548  0.6466  0.0933
  193DOPC  H12R23867   7.311   1.330   4.689 -0.0540  0.5272  0.6620
  193DOPC  H12S23868   7.488   1.339   4.673  3.0612 -2.9699 -2.2589
  193DOPC  C21323869   7.398   1.140   4.665 -0.1585  0.1327 -0.3998
  193DOPC  H13R23870   7.497   1.090   4.665  0.0274  0.4958 -0.3282
  193DOPC  H13S23871   7.329   1.099   4.588  0.2782 -0.7626 -0.3185
  193DOPC  C21423872   7.316   1.107   4.791 -0.4772  0.0893  0.6431
  193DOPC  H14R23873   7.220   1.163   4.797 -0.4648  0.5072 -1.7507
  193DOPC  H14S23874   7.373   1.122   4.885 -1.8914 -1.0981  1.7257
  193DOPC  C21523875   7.288   0.956   4.796 -0.2559  0.5316  0.4077
  193DOPC  H15R23876   7.390   0.915   4.779 -0.5924  0.2952 -1.2086
  193DOPC  H15S23877   7.229   0.924   4.707 -0.4279 -1.5139  1.2059
  193DOPC  C21623878   7.227   0.907   4.923 -0.3339 -0.3595  0.4423
  193DOPC  H16R23879   7.130   0.954   4.950 -0.1719 -0.7993  1.8715
  193DOPC  H16S23880   7.291   0.945   5.005 -0.4591 -0.6217  0.6626
  193DOPC  C21723881   7.234   0.760   4.943 -0.7172  0.5392 -0.2141
  193DOPC  H17R23882   7.339   0.723   4.936 -1.2392 -0.9616 -0.4656
  193DOPC  H17S23883   7.176   0.700   4.870 -0.2302  0.7904 -0.8124
  193DOPC  C21823884   7.184   0.723   5.083 -0.1423 -0.2877 -1.0781
  193DOPC  H18R23885   7.221   0.797   5.157  0.3960 -2.0046  0.4495
  193DOPC  H18S23886   7.227   0.624   5.108  0.9935  0.0814 -1.4876
  193DOPC  H18T23887   7.073   0.727   5.089 -0.1790 -1.4732 -0.7914
  193DOPC   C3323888   7.801   1.763   3.652  0.3444 -0.6837  0.1389
  193DOPC   H3X23889   7.872   1.681   3.625  0.4066 -0.1646 -1.3928
  193DOPC   H3Y23890   7.709   1.709   3.683  2.4020 -3.1709  2.4621
  193DOPC   C3423891   7.853   1.852   3.769  0.6057 -0.3684 -0.2770
  193DOPC   H4X23892   7.769   1.919   3.798 -0.0762 -0.9084 -0.9576
  193DOPC   H4Y23893   7.935   1.921   3.742 -1.5248  2.7082  0.5699
  193DOPC   C3523894   7.894   1.776   3.901 -0.6733 -0.1291 -0.5625
  193DOPC   H5X23895   7.947   1.857   3.954  0.4742 -1.0193 -0.2970
  193DOPC   H5Y23896   7.969   1.696   3.882  0.4746  0.7442  0.1875
  193DOPC   C3623897   7.778   1.737   3.986  0.6059  0.9126 -0.8914
  193DOPC   H6X23898   7.703   1.818   3.989 -0.2499  0.1466 -1.1803
  193DOPC   H6Y23899   7.730   1.653   3.932  0.4429  1.0785 -1.0036
  193DOPC   C3723900   7.820   1.695   4.122 -0.5414  0.0201 -0.2730
  193DOPC   H7X23901   7.887   1.607   4.110  0.4408  0.7857 -0.4595
  193DOPC   H7Y23902   7.886   1.765   4.177 -1.7323  0.9069  0.0809
  193DOPC   C3823903   7.706   1.660   4.218 -0.2698  0.4540  0.2146
  193DOPC   H8X23904   7.745   1.618   4.313  1.0630 -1.8815 -1.2679
  193DOPC   H8Y23905   7.660   1.572   4.168  0.3668  0.9657 -1.3409
  193DOPC   C3923906   7.624   1.774   4.260 -0.4349  0.0895  0.0901
  193DOPC   H9X23907   7.636   1.863   4.196  0.1231  0.3748  0.5775
  193DOPC  C31023908   7.563   1.798   4.376 -0.4470  0.1834  0.4258
  193DOPC  H10X23909   7.512   1.894   4.392 -0.2572  0.1945  0.9623
  193DOPC  C31123910   7.552   1.719   4.501 -0.6407  0.5540 -0.0575
  193DOPC  H11X23911   7.634   1.645   4.511 -0.0407  1.3594  1.3938
  193DOPC  H11Y23912   7.463   1.653   4.503 -0.0379 -0.2804 -0.3025
  193DOPC  C31223913   7.564   1.811   4.622 -0.1340  0.2146 -0.3743
  193DOPC  H12X23914   7.513   1.908   4.605 -0.9344 -0.0294  0.5442
  193DOPC  H12Y23915   7.671   1.836   4.639 -0.2200 -0.3527  1.1404
  193DOPC  C31323916   7.509   1.743   4.752  0.1554  0.2668 -0.3338
  193DOPC  H13X23917   7.405   1.705   4.747  0.4590 -0.9536  1.5646
  193DOPC  H13Y23918   7.576   1.654   4.759 -0.7812 -0.5076 -0.9050
  193DOPC  C31423919   7.526   1.825   4.884  0.0082 -0.0490  0.8064
  193DOPC  H14X23920   7.634   1.847   4.895  0.7312 -3.2367  0.8318
  193DOPC  H14Y23921   7.477   1.924   4.869  1.3241  0.5406  0.2864
  193DOPC  C31523922   7.474   1.768   5.016 -0.7629  0.1698 -0.5485
  193DOPC  H15X23923   7.520   1.832   5.094  1.2498  2.0746 -3.1200
  193DOPC  H15Y23924   7.527   1.671   5.027  1.3518  1.3930  0.9306
  193DOPC  C31623925   7.320   1.740   5.030 -0.7622 -0.0637  0.5906
  193DOPC  H16X23926   7.273   1.837   5.004 -0.6074  0.5180  2.3546
  193DOPC  H16Y23927   7.283   1.661   4.960 -0.5121 -0.4804  0.9215
  193DOPC  C31723928   7.287   1.704   5.172  0.0131  0.2038  0.1060
  193DOPC  H17X23929   7.340   1.611   5.202  1.9824  1.7094  1.5374
  193DOPC  H17Y23930   7.313   1.785   5.243 -1.3837  1.0737 -0.3216
  193DOPC  C31823931   7.135   1.679   5.180 -0.0596 -0.0585 -0.0189
  193DOPC  H18X23932   7.088   1.767   5.131 -0.5592 -0.7087 -0.7484
  193DOPC  H18Y23933   7.111   1.587   5.122  0.9516 -1.4849  1.7325
  193DOPC  H18Z23934   7.103   1.669   5.285 -0.6490  1.1374 -0.0747
  194DOPC     N23935   2.263   0.814   2.743 -0.1112 -0.1759 -0.9293
  194DOPC   C1223936   2.311   0.762   2.880  0.0026 -0.1282  0.1572
  194DOPC  H12A23937   2.365   0.838   2.934  2.3324  0.5229 -2.7971
  194DOPC  H12B23938   2.385   0.687   2.856 -1.1556 -0.8931 -1.2023
  194DOPC   C1323939   2.375   0.869   2.664  0.4283  0.0239  0.1828
  194DOPC  H13A23940   2.437   0.932   2.727  0.3268  0.2806  0.0297
  194DOPC  H13B23941   2.432   0.791   2.616 -0.6188 -1.6757  1.6051
  194DOPC  H13C23942   2.341   0.945   2.595 -1.5965  0.8779  2.0093
  194DOPC   C1423943   2.172   0.925   2.768 -0.2586 -0.1246  0.3521
  194DOPC  H14A23944   2.217   1.003   2.828 -0.1519 -0.7968  1.1666
  194DOPC  H14B23945   2.139   0.970   2.676 -0.8109  0.4744  0.8331
  194DOPC  H14C23946   2.084   0.896   2.824 -0.5363  1.9880  1.1180
  194DOPC   C1523947   2.197   0.702   2.666 -0.2429  0.9786 -1.0974
  194DOPC  H15A23948   2.263   0.617   2.658 -0.1629  1.1072 -1.8392
  194DOPC  H15B23949   2.172   0.720   2.563  0.2666 -0.3455 -1.4708
  194DOPC  H15C23950   2.109   0.667   2.718 -0.1200  2.6140  0.3023
  194DOPC   C1123951   2.217   0.692   2.978  0.3939  0.5868  0.3492
  194DOPC  H11A23952   2.155   0.612   2.934 -0.6245  1.9471 -0.7997
  194DOPC  H11B23953   2.275   0.632   3.052  2.1582 -0.9849 -2.1629
  194DOPC     P23954   2.176   0.895   3.138 -0.3562 -0.0639 -0.3624
  194DOPC   O1323955   2.050   0.956   3.177  0.1847  0.0383 -0.2880
  194DOPC   O1423956   2.279   0.981   3.080 -0.6258  0.2244 -0.1955
  194DOPC   O1223957   2.129   0.787   3.034  0.0636  0.1952 -0.8023
  194DOPC   O1123958   2.236   0.809   3.258 -0.2074 -0.1099  0.8783
  194DOPC    C123959   2.143   0.719   3.319 -0.1693  0.5517  0.0214
  194DOPC    HA23960   2.184   0.619   3.345  1.2762  1.3098  0.7358
  194DOPC    HB23961   2.053   0.692   3.259 -0.0900  2.0455 -0.8081
  194DOPC    C223962   2.078   0.770   3.451  0.4001 -0.1230 -0.3359
  194DOPC    HS23963   2.038   0.870   3.423  0.9650  0.3226  0.4059
  194DOPC   O2123964   2.186   0.788   3.545  0.3493 -0.0395 -0.0840
  194DOPC   C2123965   2.148   0.860   3.647  0.6379 -0.6862 -0.5420
  194DOPC   O2223966   2.055   0.943   3.647 -0.6229 -0.2669 -0.1735
  194DOPC   C2223967   2.243   0.838   3.762  0.2293 -0.2330 -1.2843
  194DOPC   H2R23968   2.348   0.855   3.730  0.3441  0.9561 -0.3185
  194DOPC   H2S23969   2.224   0.731   3.787  1.2354 -0.5113 -1.6419
  194DOPC    C323970   1.957   0.681   3.498  0.0314  0.6558 -0.0585
  194DOPC    HX23971   1.876   0.703   3.426 -0.5431  0.7442  0.6041
  194DOPC    HY23972   1.917   0.708   3.599 -0.1420 -0.5433  0.1995
  194DOPC   O3123973   1.993   0.541   3.493 -0.2588 -0.1499 -0.4623
  194DOPC   C3123974   1.907   0.453   3.453 -0.3941 -0.0106  0.7970
  194DOPC   O3223975   1.805   0.485   3.390  0.2892  0.2023  0.3079
  194DOPC   C3223976   1.966   0.310   3.460 -0.1682 -0.1133 -0.1363
  194DOPC   H2X23977   2.027   0.306   3.368  1.9904 -0.0551  1.2292
  194DOPC   H2Y23978   2.034   0.312   3.548 -0.6705  0.2320  0.2554
  194DOPC   C2323979   2.217   0.928   3.895  0.4368 -0.7213  0.5142
  194DOPC   H3R23980   2.108   0.951   3.899 -0.0858 -2.9640  0.6963
  194DOPC   H3S23981   2.272   1.022   3.876  1.2683 -1.1791  0.6222
  194DOPC   C2423982   2.259   0.853   4.023  0.1822 -0.0354  0.0720
  194DOPC   H4R23983   2.356   0.802   4.008  0.1192  0.6038 -3.4938
  194DOPC   H4S23984   2.180   0.789   4.069  1.3787 -0.5184  1.5251
  194DOPC   C2523985   2.279   0.961   4.133 -0.2644  0.1124  0.5174
  194DOPC   H5R23986   2.182   1.009   4.159 -0.2720  0.2344  0.2668
  194DOPC   H5S23987   2.361   1.030   4.105 -0.1669 -0.8169 -1.6822
  194DOPC   C2623988   2.335   0.895   4.263 -0.2409  0.5652 -0.3105
  194DOPC   H6R23989   2.437   0.859   4.239 -0.3555  0.9845 -1.5228
  194DOPC   H6S23990   2.276   0.816   4.314 -1.5277  2.0357  0.5557
  194DOPC   C2723991   2.343   1.004   4.371 -0.1965 -0.3559 -0.5322
  194DOPC   H7R23992   2.245   1.054   4.383  0.6051  1.2265 -0.3833
  194DOPC   H7S23993   2.403   1.092   4.338 -0.4797 -0.6076 -1.7798
  194DOPC   C2823994   2.417   0.953   4.498 -0.1208 -0.3655  0.1015
  194DOPC   H8R23995   2.514   0.914   4.459 -1.5301 -4.8155  0.4568
  194DOPC   H8S23996   2.361   0.869   4.544  1.3376  0.2465  3.2724
  194DOPC   C2923997   2.432   1.058   4.604 -0.2709  0.0595 -0.8331
  194DOPC   H9R23998   2.432   1.162   4.567  0.2997  0.5661  0.5465
  194DOPC  C21023999   2.464   1.045   4.736  0.4654 -0.6044 -0.2291
  194DOPC  H10R24000   2.455   1.129   4.807 -0.2482 -0.6956 -0.2043
  194DOPC  C21124001   2.500   0.927   4.821  0.0567  0.4175  0.4174
  194DOPC  H11R24002   2.488   0.837   4.756  3.0890 -0.3025  0.7296
  194DOPC  H11S24003   2.435   0.909   4.909  0.1975  1.8836  0.8437
  194DOPC  C21224004   2.644   0.927   4.877 -0.1517 -0.0866  0.0432
  194DOPC  H12R24005   2.672   1.023   4.926 -0.0653 -0.4998  0.8202
  194DOPC  H12S24006   2.711   0.917   4.789 -0.0511 -0.3813  0.1530
  194DOPC  C21324007   2.672   0.805   4.962 -0.0391  0.3899 -0.4164
  194DOPC  H13R24008   2.663   0.707   4.911 -1.9266  1.1853 -1.6962
  194DOPC  H13S24009   2.612   0.806   5.056  2.8980 -1.7772  1.6815
  194DOPC  C21424010   2.812   0.802   5.018 -0.0980 -0.1141  0.2660
  194DOPC  H14R24011   2.833   0.902   5.062 -0.5335  0.4132 -0.6914
  194DOPC  H14S24012   2.878   0.785   4.931  1.7337  2.4157  1.0409
  194DOPC  C21524013   2.836   0.692   5.117 -0.0858 -0.3943  0.2623
  194DOPC  H15R24014   2.766   0.702   5.203 -0.7138  0.1627 -0.3054
  194DOPC  H15S24015   2.940   0.700   5.157  0.6801  0.3076 -1.7268
  194DOPC  C21624016   2.835   0.552   5.062 -0.5269  0.7298  0.1773
  194DOPC  H16R24017   2.901   0.557   4.972  0.2061  1.7052  0.7477
  194DOPC  H16S24018   2.736   0.512   5.033 -0.5050  0.7689  0.0464
  194DOPC  C21724019   2.891   0.446   5.168  0.9342 -0.0783  0.4000
  194DOPC  H17R24020   2.816   0.435   5.250  0.5014  0.9599  0.1660
  194DOPC  H17S24021   2.987   0.487   5.205  0.3532  1.4331  0.3232
  194DOPC  C21824022   2.904   0.312   5.098  1.1370 -0.8136  0.6142
  194DOPC  H18R24023   2.960   0.241   5.162  0.9706 -2.1679 -0.6989
  194DOPC  H18S24024   2.962   0.322   5.003 -0.1999 -0.6295 -0.2117
  194DOPC  H18T24025   2.809   0.268   5.062  2.0002 -1.0721 -1.5581
  194DOPC   C3324026   1.860   0.207   3.450  0.3968  0.2049  0.0432
  194DOPC   H3X24027   1.805   0.230   3.356 -0.3833 -0.1734  0.3980
  194DOPC   H3Y24028   1.780   0.216   3.527  0.7151  1.3058  0.2700
  194DOPC   C3424029   1.922   0.062   3.453  0.1250 -0.0216 -0.0449
  194DOPC   H4X24030   2.017   0.046   3.398 -0.7107 -1.4239 -1.1464
  194DOPC   H4Y24031   1.843  -0.004   3.411 -1.0205  0.8145  0.7071
  194DOPC   C3524032   1.939   0.017   3.600 -0.0749 -0.2663  0.5603
  194DOPC   H5X24033   1.854   0.054   3.661 -0.2404  0.3779 -0.0455
  194DOPC   H5Y24034   2.029   0.064   3.647 -0.7406  0.3129  1.2757
  194DOPC   C3624035   1.961  -0.134   3.605 -0.6990  0.0110 -0.2287
  194DOPC   H6X24036   1.877  -0.194   3.565 -1.2806  0.5680  0.1423
  194DOPC   H6Y24037   2.042  -0.167   3.536 -0.3591 -1.7809  0.9512
  194DOPC   C3724038   1.990  -0.184   3.748  0.1898  0.0899 -0.3219
  194DOPC   H7X24039   1.902  -0.158   3.810 -0.5379 -1.5815 -0.5994
  194DOPC   H7Y24040   1.987  -0.295   3.744 -2.3721  0.1052 -0.2912
  194DOPC   C3824041   2.124  -0.151   3.809  0.1609 -0.0664 -0.7561
  194DOPC   H8X24042   2.126  -0.040   3.805  1.0129  0.0123  0.9502
  194DOPC   H8Y24043   2.200  -0.190   3.738  0.7618  0.9526 -0.7070
  194DOPC   C3924044   2.141  -0.202   3.954  0.2576  0.2255  0.2514
  194DOPC   H9X24045   2.052  -0.250   3.997 -0.6772  0.5645 -1.2162
  194DOPC  C31024046   2.246  -0.163   4.028  0.1010 -1.2383 -0.2690
  194DOPC  H10X24047   2.262  -0.191   4.133 -0.4388  1.1102  0.5039
  194DOPC  C31124048   2.350  -0.070   3.980 -0.0015 -0.1811  0.9271
  194DOPC  H11X24049   2.344  -0.049   3.871  1.4459  0.5571  0.9643
  194DOPC  H11Y24050   2.443  -0.131   3.988  0.0552 -0.3050 -0.4426
  194DOPC  C31224051   2.358   0.054   4.060  0.2885 -0.3080 -0.3178
  194DOPC  H12X24052   2.398   0.035   4.162 -2.0825  5.0509  2.0390
  194DOPC  H12Y24053   2.261   0.101   4.087  1.0871 -0.0966  2.4807
  194DOPC  C31324054   2.459   0.151   4.015 -0.5221 -0.1623 -0.9121
  194DOPC  H13X24055   2.557   0.120   4.057 -1.0967  0.3775  0.9599
  194DOPC  H13Y24056   2.446   0.156   3.905 -1.2876 -1.4270 -0.8993
  194DOPC  C31424057   2.434   0.286   4.081 -0.4943  0.1842 -0.2122
  194DOPC  H14X24058   2.335   0.328   4.052 -0.1031  1.9073  0.8212
  194DOPC  H14Y24059   2.443   0.288   4.191  0.2443 -0.5644 -0.2542
  194DOPC  C31524060   2.531   0.391   4.039 -0.4441  0.4720 -0.3073
  194DOPC  H15X24061   2.508   0.422   3.935  0.1436 -1.5618 -1.0928
  194DOPC  H15Y24062   2.630   0.341   4.043 -0.2357  0.8707 -0.4295
  194DOPC  C31624063   2.527   0.524   4.118  0.2255  0.2983  0.1485
  194DOPC  H16X24064   2.427   0.572   4.109 -0.1424 -0.7126 -1.6415
  194DOPC  H16Y24065   2.551   0.496   4.223 -3.6905  1.5145  1.5456
  194DOPC  C31724066   2.636   0.622   4.076 -0.1771 -0.6988 -0.3824
  194DOPC  H17X24067   2.638   0.712   4.140 -0.1128 -0.6266 -0.4860
  194DOPC  H17Y24068   2.735   0.575   4.093  0.3636  0.9280  1.3371
  194DOPC  C31824069   2.636   0.669   3.926 -0.1429  0.2082  0.6669
  194DOPC  H18X24070   2.658   0.579   3.866  2.4856  1.4328 -0.3698
  194DOPC  H18Y24071   2.543   0.720   3.894  0.9184  2.1109  0.4396
  194DOPC  H18Z24072   2.720   0.738   3.903  0.2558 -0.6033 -0.3777
  195DOPC     N24073   5.848   6.989   2.674 -0.1133  0.8994  0.4440
  195DOPC   C1224074   5.774   7.056   2.783 -0.7114  0.0456 -0.0970
  195DOPC  H12A24075   5.686   6.998   2.808 -1.4303  1.3972  0.6370
  195DOPC  H12B24076   5.711   7.135   2.746 -1.8200  1.2470  3.8855
  195DOPC   C1324077   5.893   6.858   2.707  0.5175 -0.3765 -0.2224
  195DOPC  H13A24078   5.816   6.783   2.719 -1.2403  1.4749  0.5691
  195DOPC  H13B24079   5.967   6.829   2.633  0.3362 -0.7080 -0.2798
  195DOPC  H13C24080   5.942   6.869   2.802 -1.2589  0.4781  0.6422
  195DOPC   C1424081   5.970   7.078   2.647 -0.1116  0.0832 -0.2638
  195DOPC  H14A24082   6.032   7.022   2.578 -0.6597 -1.1068  0.1711
  195DOPC  H14B24083   5.943   7.168   2.594 -0.1331  1.0411  1.2988
  195DOPC  H14C24084   6.020   7.107   2.738 -0.1026 -2.8779  0.7832
  195DOPC   C1524085   5.768   6.970   2.551  0.1191 -0.3246  0.2049
  195DOPC  H15A24086   5.675   6.915   2.561 -1.3005  2.2460  2.6838
  195DOPC  H15B24087   5.824   6.923   2.472 -0.2383 -0.6397  0.1308
  195DOPC  H15C24088   5.747   7.069   2.515 -0.3543 -1.5997 -3.3758
  195DOPC   C1124089   5.834   7.093   2.910 -0.5829  0.3201 -0.0302
  195DOPC  H11A24090   5.777   7.077   3.004 -0.4764 -0.8324 -0.1425
  195DOPC  H11B24091   5.915   7.019   2.927 -0.1333  0.5706 -1.0063
  195DOPC     P24092   5.814   7.364   2.927 -0.1342  0.0200 -0.4687
  195DOPC   O1324093   5.673   7.339   2.891  0.6052  0.0968  0.1484
  195DOPC   O1424094   5.867   7.477   2.849 -0.7038  0.2186 -0.3135
  195DOPC   O1224095   5.891   7.228   2.895  0.4671 -0.1788  0.3648
  195DOPC   O1124096   5.823   7.385   3.083  0.0987 -0.3761 -0.2034
  195DOPC    C124097   5.826   7.281   3.186 -0.0112  1.1000  0.4683
  195DOPC    HA24098   5.909   7.208   3.168 -0.6745 -0.0497  1.9201
  195DOPC    HB24099   5.740   7.212   3.179  1.5142 -0.9225  0.6938
  195DOPC    C224100   5.841   7.337   3.330  0.2516 -0.1058  0.0133
  195DOPC    HS24101   5.880   7.255   3.393 -0.2045 -0.1969  0.1806
  195DOPC   O2124102   5.712   7.371   3.380 -0.4776  0.0101 -0.4053
  195DOPC   C2124103   5.704   7.365   3.516  0.2829  0.6321  0.2373
  195DOPC   O2224104   5.798   7.339   3.589  0.2150  0.4328 -0.1129
  195DOPC   C2224105   5.555   7.391   3.564 -0.0567  0.9382 -0.2480
  195DOPC   H2R24106   5.492   7.310   3.523  0.2280  0.0283  1.0468
  195DOPC   H2S24107   5.528   7.489   3.518  0.4778 -0.2830 -3.3852
  195DOPC    C324108   5.945   7.457   3.323  0.0679 -0.6428  0.0254
  195DOPC    HX24109   5.909   7.542   3.262  1.1816 -0.6037 -0.5953
  195DOPC    HY24110   6.039   7.417   3.279 -0.3317  0.3047 -1.7751
  195DOPC   O3124111   5.976   7.507   3.463 -0.0329  0.1979  0.7328
  195DOPC   C3124112   6.058   7.436   3.537 -0.5727 -0.4924 -0.1468
  195DOPC   O3224113   6.135   7.347   3.498 -0.2622  0.1059 -0.3898
  195DOPC   C3224114   6.050   7.490   3.675  0.0624 -0.4496 -0.0727
  195DOPC   H2X24115   6.108   7.584   3.683  0.6395 -0.6943 -1.2684
  195DOPC   H2Y24116   5.949   7.529   3.700  0.3911  0.0972  0.4299
  195DOPC   C2324117   5.552   7.374   3.721 -0.1789 -0.4614 -0.2585
  195DOPC   H3R24118   5.584   7.272   3.752  0.4451  0.1123  1.0693
  195DOPC   H3S24119   5.449   7.374   3.763  0.2757 -2.2953  0.9659
  195DOPC   C2424120   5.623   7.489   3.796  0.0253 -0.3943 -0.1003
  195DOPC   H4R24121   5.600   7.591   3.758 -3.0275 -0.3240  1.5631
  195DOPC   H4S24122   5.731   7.467   3.787  0.5441  1.6531  0.6134
  195DOPC   C2524123   5.572   7.490   3.944  0.4317 -0.3512  0.0326
  195DOPC   H5R24124   5.471   7.533   3.955  0.9159  0.8950 -0.2660
  195DOPC   H5S24125   5.636   7.569   3.989 -1.7612 -0.0686  2.8859
  195DOPC   C2624126   5.583   7.360   4.019  0.5066  0.6337 -0.3326
  195DOPC   H6R24127   5.686   7.322   4.003  0.1723 -0.7943  0.6721
  195DOPC   H6S24128   5.518   7.283   3.971  0.5296  1.3553 -1.5666
  195DOPC   C2724129   5.553   7.380   4.168  0.2951  1.1166  0.1650
  195DOPC   H7R24130   5.441   7.383   4.168  0.2572  1.0687 -1.8081
  195DOPC   H7S24131   5.590   7.481   4.196 -0.5039  2.1983 -2.4069
  195DOPC   C2824132   5.601   7.274   4.258  0.9407 -0.5924  0.0230
  195DOPC   H8R24133   5.706   7.248   4.233  1.1229 -0.8569  1.0249
  195DOPC   H8S24134   5.543   7.187   4.220 -2.7205  1.5247  0.2852
  195DOPC   C2924135   5.580   7.310   4.403  0.3146  0.3345  0.5096
  195DOPC   H9R24136   5.475   7.312   4.437  0.3530  1.2137  0.6159
  195DOPC  C21024137   5.680   7.316   4.497 -0.5159 -0.1325 -0.1130
  195DOPC  H10R24138   5.657   7.353   4.598  1.6414  2.8209 -0.5580
  195DOPC  C21124139   5.824   7.292   4.477  0.9135  0.1267 -0.2407
  195DOPC  H11R24140   5.877   7.365   4.542 -2.1873  1.8443  0.5863
  195DOPC  H11S24141   5.868   7.322   4.380  2.3791 -2.2713 -0.3884
  195DOPC  C21224142   5.850   7.150   4.506 -0.4892 -0.2808 -0.3742
  195DOPC  H12R24143   5.802   7.089   4.426 -0.1889 -0.5129 -0.3784
  195DOPC  H12S24144   5.793   7.118   4.597  2.4441  0.7604  2.0009
  195DOPC  C21324145   5.999   7.131   4.537 -0.3408  0.2168  0.5791
  195DOPC  H13R24146   6.038   7.200   4.615 -0.0374  1.5932 -0.7346
  195DOPC  H13S24147   6.061   7.149   4.446 -2.2765 -1.6019 -1.1981
  195DOPC  C21424148   6.027   6.985   4.577 -0.3820  0.7304 -0.2841
  195DOPC  H14R24149   5.968   6.967   4.669 -0.3498 -0.2874 -0.4558
  195DOPC  H14S24150   6.131   6.970   4.613  0.6033 -0.8894 -3.4561
  195DOPC  C21524151   6.012   6.876   4.467  0.1913  0.3779 -0.3333
  195DOPC  H15R24152   5.918   6.899   4.412 -1.0824 -1.7006  0.8549
  195DOPC  H15S24153   6.015   6.773   4.508  2.3735  0.5806  0.0997
  195DOPC  C21624154   6.119   6.886   4.357 -0.3647  0.3081  0.0804
  195DOPC  H16R24155   6.103   6.982   4.303  1.1337  1.1624  1.0919
  195DOPC  H16S24156   6.113   6.811   4.275  0.9112  0.1422  0.1218
  195DOPC  C21724157   6.258   6.876   4.404 -0.0012 -0.5305 -0.0176
  195DOPC  H17R24158   6.278   6.775   4.446  1.1436  0.4869  2.0327
  195DOPC  H17S24159   6.279   6.951   4.484 -0.3158 -0.5174  0.0546
  195DOPC  C21824160   6.364   6.905   4.304  0.1166 -0.0858  0.0671
  195DOPC  H18R24161   6.464   6.919   4.351 -0.4288  2.4593  0.5968
  195DOPC  H18S24162   6.345   7.001   4.252  2.9144 -0.5197 -1.9338
  195DOPC  H18T24163   6.367   6.824   4.228  0.3752 -1.1097  1.1284
  195DOPC   C3324164   6.093   7.386   3.780 -0.1862 -0.0238  0.5446
  195DOPC   H3X24165   6.196   7.360   3.746 -0.8560  1.7812 -3.4859
  195DOPC   H3Y24166   6.037   7.292   3.759 -0.2430  0.6861 -3.1227
  195DOPC   C3424167   6.091   7.436   3.926  0.5635  0.9600  0.6425
  195DOPC   H4X24168   6.145   7.533   3.923  1.8368  0.2466 -0.0484
  195DOPC   H4Y24169   6.140   7.361   3.992 -0.9652  0.1400  0.8902
  195DOPC   C3524170   5.950   7.451   3.985 -0.2574  0.3048  0.1460
  195DOPC   H5X24171   5.891   7.358   3.969 -1.0382  1.0408 -1.4396
  195DOPC   H5Y24172   5.890   7.537   3.949  0.6797  0.8563 -0.1242
  195DOPC   C3624173   5.950   7.487   4.138 -0.2407  0.5420  0.5821
  195DOPC   H6X24174   5.850   7.468   4.182  1.0034 -4.3961  1.9052
  195DOPC   H6Y24175   6.006   7.401   4.180  0.8309  1.3029  0.7581
  195DOPC   C3724176   6.020   7.615   4.186  0.3421 -1.1404 -0.1256
  195DOPC   H7X24177   6.128   7.599   4.166  0.2632 -1.5124 -0.2663
  195DOPC   H7Y24178   5.993   7.700   4.119 -0.2134 -2.4087 -1.5583
  195DOPC   C3824179   6.002   7.648   4.334 -0.2523 -0.5911 -0.3069
  195DOPC   H8X24180   6.070   7.734   4.350  0.7224 -1.0979 -1.6103
  195DOPC   H8Y24181   6.045   7.558   4.383 -0.8489 -1.7167 -1.7721
  195DOPC   C3924182   5.860   7.683   4.373 -0.1528 -0.4549 -0.0202
  195DOPC   H9X24183   5.784   7.634   4.311 -0.8056 -0.3784  0.7046
  195DOPC  C31024184   5.820   7.757   4.476  0.3750  0.6094 -0.0913
  195DOPC  H10X24185   5.713   7.779   4.486  0.7764  3.7719 -1.3701
  195DOPC  C31124186   5.917   7.814   4.577  0.0583  0.2649 -0.3073
  195DOPC  H11X24187   5.862   7.880   4.647  0.0272 -0.9268  0.8194
  195DOPC  H11Y24188   5.999   7.871   4.527 -0.1736 -0.5890 -1.7159
  195DOPC  C31224189   5.983   7.709   4.665  0.0175  0.0735 -0.2175
  195DOPC  H12X24190   6.045   7.639   4.606  0.4286  1.0853 -1.0117
  195DOPC  H12Y24191   5.908   7.640   4.709  0.8414 -0.4826  0.3598
  195DOPC  C31324192   6.067   7.771   4.781  0.6174  0.2012 -0.2669
  195DOPC  H13X24193   6.132   7.696   4.831  0.7524  0.4928  0.0032
  195DOPC  H13Y24194   6.132   7.850   4.738 -1.9085  2.3168 -0.4770
  195DOPC  C31424195   5.976   7.845   4.891 -0.0317  0.0415  0.4553
  195DOPC  H14X24196   5.951   7.948   4.857 -0.1810 -1.1916 -3.5878
  195DOPC  H14Y24197   5.882   7.785   4.893  0.2898 -0.4711  2.1361
  195DOPC  C31524198   6.044   7.837   5.027 -0.2433  0.1348  0.5588
  195DOPC  H15X24199   6.139   7.893   5.025  0.4813 -1.0719  0.3797
  195DOPC  H15Y24200   6.088   7.739   5.055 -1.3211 -0.7883 -0.8511
  195DOPC  C31624201   5.965   7.905   5.142 -1.2270  0.6505  1.0639
  195DOPC  H16X24202   6.042   7.949   5.209  1.1727 -0.3023 -0.9434
  195DOPC  H16Y24203   5.916   7.997   5.104 -2.7653 -0.4899  0.1711
  195DOPC  C31724204   5.862   7.809   5.213  0.0228  0.0238 -0.4338
  195DOPC  H17X24205   5.812   7.755   5.129  1.4453  0.8807 -1.8758
  195DOPC  H17Y24206   5.905   7.728   5.277 -0.5351  0.8044  0.9822
  195DOPC  C31824207   5.757   7.876   5.302 -0.6633 -0.4789  0.1699
  195DOPC  H18X24208   5.699   7.799   5.358 -3.4070  0.3588 -1.2930
  195DOPC  H18Y24209   5.794   7.944   5.382 -3.0866  0.1966  0.8045
  195DOPC  H18Z24210   5.687   7.940   5.243 -1.9349 -0.0404  2.0411
  196DOPC     N24211   0.817   0.899   2.765 -0.2613  0.4043 -0.1985
  196DOPC   C1224212   0.710   0.879   2.865  0.5994 -0.0346 -0.3893
  196DOPC  H12A24213   0.714   0.776   2.898  0.6094  0.3207  0.7264
  196DOPC  H12B24214   0.615   0.898   2.817 -0.4913  3.0685  2.6491
  196DOPC   C1324215   0.819   1.044   2.723  0.1284 -0.2549  0.5724
  196DOPC  H13A24216   0.726   1.073   2.677  0.0969 -0.8092  0.2762
  196DOPC  H13B24217   0.845   1.117   2.798 -4.2503  0.2298  1.8544
  196DOPC  H13C24218   0.897   1.062   2.650  0.4841  1.1242  1.2496
  196DOPC   C1424219   0.805   0.818   2.643 -0.0500  0.3630 -0.3085
  196DOPC  H14A24220   0.708   0.820   2.595  0.0204  2.3083 -0.4635
  196DOPC  H14B24221   0.871   0.848   2.562 -2.2973 -0.5757 -2.6366
  196DOPC  H14C24222   0.833   0.715   2.654 -0.4322  0.3869  0.9925
  196DOPC   C1524223   0.950   0.873   2.839 -0.5164 -0.0435  0.0924
  196DOPC  H15A24224   0.955   0.933   2.928 -0.4714  0.9136 -0.5386
  196DOPC  H15B24225   1.044   0.885   2.786 -0.5774  0.2689  0.0529
  196DOPC  H15C24226   0.949   0.771   2.876 -0.8264  0.4768  1.5855
  196DOPC   C1124227   0.709   0.969   2.988 -0.2860  0.0971  0.6172
  196DOPC  H11A24228   0.707   1.073   2.949  1.9972 -0.2569 -0.6263
  196DOPC  H11B24229   0.610   0.951   3.035 -0.7081  0.3450 -0.1514
  196DOPC     P24230   0.907   1.066   3.139 -0.1249  0.1989  0.1205
  196DOPC   O1324231   0.825   1.183   3.185  0.3152  0.7341 -0.0405
  196DOPC   O1424232   1.009   1.089   3.033  0.3424  0.1505  0.3945
  196DOPC   O1224233   0.811   0.947   3.081  0.4690 -0.0543 -1.2312
  196DOPC   O1124234   0.963   0.996   3.265 -0.2729  0.0051  0.0148
  196DOPC    C124235   0.868   0.930   3.356  0.3165 -0.2716 -0.0878
  196DOPC    HA24236   0.844   0.829   3.316  1.7760 -1.3468  1.5588
  196DOPC    HB24237   0.771   0.983   3.354 -0.3858 -1.5434 -1.0658
  196DOPC    C224238   0.928   0.938   3.496 -0.3755  0.3450  0.1608
  196DOPC    HS24239   1.012   0.865   3.502 -0.7855  0.0088  3.2649
  196DOPC   O2124240   0.831   0.921   3.601  0.5252 -0.3159  0.0562
  196DOPC   C2124241   0.773   0.799   3.600 -0.1371  0.2463  0.3640
  196DOPC   O2224242   0.800   0.712   3.523 -0.1869  0.1496  0.6630
  196DOPC   C2224243   0.660   0.795   3.708  0.4238 -0.3155  0.5136
  196DOPC   H2R24244   0.642   0.690   3.738 -2.8581  0.0107  0.0306
  196DOPC   H2S24245   0.565   0.829   3.663 -0.7671 -2.4164  1.3125
  196DOPC    C324246   0.982   1.077   3.519  0.2637  0.4933  1.1132
  196DOPC    HX24247   0.899   1.142   3.484  0.9289 -0.1954 -1.9486
  196DOPC    HY24248   1.059   1.113   3.447  0.0582  1.9051  1.5524
  196DOPC   O3124249   1.007   1.118   3.657  0.1436  0.5708 -0.1425
  196DOPC   C3124250   1.121   1.054   3.711  0.2424  0.8985 -0.0119
  196DOPC   O3224251   1.186   0.965   3.655  0.1130 -0.2523 -1.0551
  196DOPC   C3224252   1.143   1.098   3.856 -0.7545  0.0085 -0.1474
  196DOPC   H2X24253   1.207   1.189   3.859 -2.0951  1.0310 -1.1766
  196DOPC   H2Y24254   1.045   1.120   3.904 -1.0797 -1.9977  0.1766
  196DOPC   C2324255   0.687   0.878   3.835 -0.3188  0.6220  0.2902
  196DOPC   H3R24256   0.690   0.988   3.822  0.8675  0.5177 -0.4575
  196DOPC   H3S24257   0.787   0.845   3.872 -0.3755 -1.3940 -1.2036
  196DOPC   C2424258   0.575   0.850   3.929 -0.5056  0.5752 -0.0464
  196DOPC   H4R24259   0.585   0.747   3.968  0.1103  0.3951 -0.6457
  196DOPC   H4S24260   0.482   0.852   3.868 -1.0648 -2.8460  0.4867
  196DOPC   C2524261   0.573   0.948   4.048 -0.5834 -0.1322 -0.0651
  196DOPC   H5R24262   0.476   0.937   4.102 -1.3551  0.6536 -1.2404
  196DOPC   H5S24263   0.567   1.051   4.008 -0.6902  0.3997  1.2754
  196DOPC   C2624264   0.699   0.932   4.137  0.5070  0.5716  0.1575
  196DOPC   H6R24265   0.785   0.929   4.067  0.6315 -1.8285  0.3359
  196DOPC   H6S24266   0.683   0.833   4.185  1.4518  0.8404  1.0570
  196DOPC   C2724267   0.701   1.032   4.250  0.8908  0.1172 -0.3919
  196DOPC   H7R24268   0.617   1.007   4.319  0.2742  0.7586 -0.8962
  196DOPC   H7S24269   0.691   1.137   4.214 -1.9419 -0.6352 -2.1028
  196DOPC   C2824270   0.844   1.025   4.313  0.2251 -0.7007 -0.2510
  196DOPC   H8R24271   0.912   1.037   4.226  1.3295  3.1511  0.9377
  196DOPC   H8S24272   0.864   0.923   4.353  0.5536 -0.0715  1.2501
  196DOPC   C2924273   0.897   1.138   4.404 -0.6266 -0.2927 -0.2414
  196DOPC   H9R24274   0.888   1.238   4.359  0.5321 -0.5814 -1.1733
  196DOPC  C21024275   0.948   1.114   4.529 -0.1511 -0.0026  0.3653
  196DOPC  H10R24276   0.967   1.205   4.588  0.0818 -0.3767  0.8767
  196DOPC  C21124277   0.968   0.984   4.595  0.8544  0.0535  0.3657
  196DOPC  H11R24278   1.058   0.925   4.568 -1.0142 -3.1554  0.5896
  196DOPC  H11S24279   0.892   0.910   4.563 -0.0141  2.7669 -5.1528
  196DOPC  C21224280   0.972   0.989   4.753 -0.0116  0.0855  0.2980
  196DOPC  H12R24281   0.882   1.043   4.790 -1.8108 -2.3793 -0.2140
  196DOPC  H12S24282   1.059   1.052   4.780 -1.7690  1.3213  3.6024
  196DOPC  C21324283   0.985   0.845   4.816 -0.6153 -0.1996 -0.1808
  196DOPC  H13R24284   1.084   0.804   4.788 -0.2758 -1.0847  2.0864
  196DOPC  H13S24285   0.905   0.790   4.762  0.2259 -2.5156  0.8184
  196DOPC  C21424286   0.957   0.836   4.966 -0.5364 -0.2775 -0.5350
  196DOPC  H14R24287   0.977   0.731   4.998 -0.0766 -0.2707 -0.8088
  196DOPC  H14S24288   0.850   0.864   4.983  0.1381  1.3714  1.4308
  196DOPC  C21524289   1.043   0.935   5.049  0.2040  0.1468  0.6695
  196DOPC  H15R24290   1.027   0.899   5.152  1.7550 -0.9633  0.5643
  196DOPC  H15S24291   1.005   1.038   5.032 -1.0601 -0.4073 -0.0041
  196DOPC  C21624292   1.195   0.934   5.024  0.3254  0.1379 -0.3947
  196DOPC  H16R24293   1.219   0.972   4.922  0.9432  2.3276  0.5062
  196DOPC  H16S24294   1.228   0.829   5.038 -0.5097 -0.1891 -0.8169
  196DOPC  C21724295   1.278   1.023   5.123 -0.4047  0.2366  0.3015
  196DOPC  H17R24296   1.375   0.973   5.145  0.3974  1.0223 -1.2411
  196DOPC  H17S24297   1.227   1.035   5.220  0.6865 -0.1992  0.9480
  196DOPC  C21824298   1.320   1.156   5.069 -0.0721 -0.4521 -0.2778
  196DOPC  H18R24299   1.390   1.204   5.141  0.8930 -3.9978  1.3340
  196DOPC  H18S24300   1.229   1.217   5.051 -0.3946 -0.6010  0.7578
  196DOPC  H18T24301   1.381   1.141   4.977 -0.4064 -0.3951 -0.5110
  196DOPC   C3324302   1.213   0.985   3.934  0.1279 -0.6410 -0.1247
  196DOPC   H3X24303   1.323   0.997   3.927  0.0589  0.3491  0.2697
  196DOPC   H3Y24304   1.191   0.882   3.900 -0.7487 -1.3208  2.3331
  196DOPC   C3424305   1.168   0.986   4.085 -0.3835 -0.1066 -0.4355
  196DOPC   H4X24306   1.202   0.888   4.124 -1.3821 -0.6378 -0.8520
  196DOPC   H4Y24307   1.057   0.986   4.085 -0.4094  0.5204  0.9525
  196DOPC   C3524308   1.224   1.103   4.164 -0.0964 -0.1785  0.2057
  196DOPC   H5X24309   1.175   1.109   4.264 -0.5837 -0.5483 -0.0049
  196DOPC   H5Y24310   1.201   1.197   4.111  0.0409 -0.7791 -0.9497
  196DOPC   C3624311   1.372   1.099   4.184  0.4059  0.2519  0.0378
  196DOPC   H6X24312   1.403   1.007   4.238 -0.7908  1.0357  2.2154
  196DOPC   H6Y24313   1.420   1.100   4.084  0.1509  2.6552 -0.1161
  196DOPC   C3724314   1.439   1.220   4.261 -0.1386 -0.2924  0.7225
  196DOPC   H7X24315   1.449   1.310   4.196  0.1832 -1.3800 -0.7813
  196DOPC   H7Y24316   1.370   1.250   4.343 -0.1039  1.2561  0.2273
  196DOPC   C3824317   1.586   1.190   4.308 -0.7860 -0.0801  0.3438
  196DOPC   H8X24318   1.578   1.109   4.383 -0.1715  0.9881  1.5980
  196DOPC   H8Y24319   1.605   1.282   4.367 -0.2341  0.8793 -1.2437
  196DOPC   C3924320   1.691   1.156   4.205 -0.3687  0.0620  0.1607
  196DOPC   H9X24321   1.660   1.166   4.100 -2.6128  0.3818  0.7943
  196DOPC  C31024322   1.822   1.130   4.241  0.0642 -0.1665  0.0381
  196DOPC  H10X24323   1.898   1.097   4.169  0.9108 -2.1563  1.7453
  196DOPC  C31124324   1.887   1.132   4.378 -0.1713  0.3115 -0.8907
  196DOPC  H11X24325   1.813   1.151   4.460  0.3612 -0.1092 -0.2998
  196DOPC  H11Y24326   1.967   1.207   4.392 -0.1954  0.3194 -0.7907
  196DOPC  C31224327   1.933   0.987   4.410  0.3474  0.2427 -0.5469
  196DOPC  H12X24328   2.010   0.957   4.336 -0.2102 -0.7591 -0.7236
  196DOPC  H12Y24329   1.854   0.913   4.391  2.2410 -2.3832  1.1211
  196DOPC  C31324330   1.997   0.964   4.551  0.6326  0.3083  0.2762
  196DOPC  H13X24331   2.099   1.008   4.557  0.7972 -0.1303  0.8811
  196DOPC  H13Y24332   1.946   1.037   4.618 -0.5371 -1.3807  1.3132
  196DOPC  C31424333   1.990   0.828   4.620 -0.1605 -0.1308 -0.9959
  196DOPC  H14X24334   1.884   0.804   4.641  0.2703 -1.1020  0.2349
  196DOPC  H14Y24335   2.028   0.752   4.548  1.5146  2.0932 -2.6279
  196DOPC  C31524336   2.067   0.823   4.755 -0.8955  0.2375  0.2864
  196DOPC  H15X24337   2.023   0.879   4.840 -0.7852 -0.9080  1.1307
  196DOPC  H15Y24338   2.170   0.858   4.730 -1.0661 -0.6354 -1.8863
  196DOPC  C31624339   2.080   0.687   4.818  0.6655  0.2412 -0.2088
  196DOPC  H16X24340   1.978   0.654   4.848  0.5171 -0.4828 -1.4569
  196DOPC  H16Y24341   2.108   0.608   4.746 -1.4282 -0.0681 -0.7648
  196DOPC  C31724342   2.164   0.683   4.939 -0.3147 -1.1378  0.3136
  196DOPC  H17X24343   2.267   0.722   4.925 -0.4965 -0.7602 -0.0195
  196DOPC  H17Y24344   2.122   0.755   5.012  0.5922  0.7387 -0.9259
  196DOPC  C31824345   2.152   0.548   4.999  0.0231  0.1373 -0.0743
  196DOPC  H18X24346   2.218   0.538   5.089 -0.9708  1.6302  0.8752
  196DOPC  H18Y24347   2.046   0.537   5.031 -0.3917  4.6133  0.7421
  196DOPC  H18Z24348   2.180   0.463   4.934 -2.0403 -0.2935 -0.4650
  197DOPC     N24349   2.026   7.295   2.623  0.8553  0.0078 -0.3756
  197DOPC   C1224350   1.992   7.218   2.746 -0.8905  0.7403  0.2073
  197DOPC  H12A24351   2.050   7.127   2.750 -1.3466  0.4064 -0.6675
  197DOPC  H12B24352   1.892   7.181   2.739 -0.0772 -1.2101 -3.5793
  197DOPC   C1324353   2.170   7.339   2.636  0.4476  0.5110 -0.1139
  197DOPC  H13A24354   2.182   7.407   2.554 -2.1736 -0.1028 -1.1126
  197DOPC  H13B24355   2.189   7.379   2.735  0.4530 -2.5736  1.2716
  197DOPC  H13C24356   2.234   7.252   2.626  2.0359  1.4670  1.2328
  197DOPC   C1424357   1.937   7.417   2.600  0.4069  0.0427 -0.2634
  197DOPC  H14A24358   1.971   7.477   2.517  4.0554  0.4529  1.3381
  197DOPC  H14B24359   1.836   7.384   2.579  0.4240 -0.8261  0.9165
  197DOPC  H14C24360   1.925   7.481   2.686 -1.7314 -0.2768 -0.2567
  197DOPC   C1524361   2.015   7.210   2.494  0.3327  0.7325 -0.8781
  197DOPC  H15A24362   2.074   7.252   2.413  4.4628  0.9569  1.9288
  197DOPC  H15B24363   1.911   7.198   2.470 -0.2735 -0.0446  1.8258
  197DOPC  H15C24364   2.062   7.113   2.500  3.1139  2.0449  0.9733
  197DOPC   C1124365   2.016   7.288   2.884 -0.0216  0.1361  0.3669
  197DOPC  H11A24366   2.003   7.218   2.968 -2.8321 -1.5910 -1.3612
  197DOPC  H11B24367   2.124   7.310   2.895  0.4720 -0.9078 -1.7747
  197DOPC     P24368   1.801   7.404   2.966  0.3725 -0.0629 -0.2368
  197DOPC   O1324369   1.726   7.285   2.914 -0.2180  0.2392 -0.1336
  197DOPC   O1424370   1.734   7.534   2.959  0.7807 -0.4083  0.1565
  197DOPC   O1224371   1.947   7.411   2.897  0.1314 -0.1028 -0.3867
  197DOPC   O1124372   1.838   7.361   3.107  0.0413  0.3076 -0.2870
  197DOPC    C124373   1.924   7.445   3.192 -0.0043 -0.7843  0.6819
  197DOPC    HA24374   1.862   7.495   3.270  1.1060  2.0399 -0.1505
  197DOPC    HB24375   1.965   7.534   3.141  1.8255 -2.5308 -1.0782
  197DOPC    C224376   2.037   7.350   3.243 -0.4241  0.2142  0.2270
  197DOPC    HS24377   2.047   7.268   3.169  0.1640  0.9876 -0.5762
  197DOPC   O2124378   2.011   7.305   3.379 -0.4345 -0.0330 -0.1082
  197DOPC   C2124379   2.027   7.176   3.388  0.0791  0.4961  0.4326
  197DOPC   O2224380   2.068   7.102   3.302 -0.5020  0.1438 -0.0078
  197DOPC   C2224381   1.973   7.128   3.521  0.0498  0.1046  0.4251
  197DOPC   H2R24382   1.867   7.155   3.504  0.3515 -0.4726 -3.4713
  197DOPC   H2S24383   2.021   7.192   3.597  2.0295 -1.5415  0.6646
  197DOPC    C324384   2.180   7.423   3.237  1.0930  0.3442  0.2847
  197DOPC    HX24385   2.209   7.461   3.137  1.3144  2.2097  1.0118
  197DOPC    HY24386   2.256   7.346   3.263 -0.3001 -1.0241  0.4942
  197DOPC   O3124387   2.191   7.535   3.328  0.7975 -0.1052 -0.5788
  197DOPC   C3124388   2.309   7.597   3.314  0.4873  0.3427 -0.6237
  197DOPC   O3224389   2.394   7.560   3.233 -0.3863 -0.2455  0.1699
  197DOPC   C3224390   2.317   7.698   3.424 -0.3367  0.2689  0.2293
  197DOPC   H2X24391   2.279   7.790   3.375 -1.7172 -0.2303  0.3212
  197DOPC   H2Y24392   2.249   7.668   3.507  0.1733 -2.0345 -0.0983
  197DOPC   C2324393   1.997   6.975   3.551  0.2055  0.1668 -0.2692
  197DOPC   H3R24394   2.103   6.958   3.522  0.1613  0.4710 -0.6228
  197DOPC   H3S24395   1.923   6.919   3.490  0.4600  0.4879 -0.8876
  197DOPC   C2424396   1.977   6.940   3.704 -0.1463  1.0897  0.6365
  197DOPC   H4R24397   2.016   7.027   3.761  1.6506  0.3814  0.5631
  197DOPC   H4S24398   2.035   6.847   3.721 -0.0198  0.7602 -1.3275
  197DOPC   C2524399   1.829   6.913   3.744 -0.8835  0.5291  0.5775
  197DOPC   H5R24400   1.802   6.808   3.719  2.2610 -0.3400  0.4754
  197DOPC   H5S24401   1.764   6.986   3.692  0.7378 -0.0540 -2.4763
  197DOPC   C2624402   1.820   6.911   3.897 -0.4580  0.1056  0.2473
  197DOPC   H6R24403   1.892   6.833   3.930 -0.8810 -0.7690 -0.8192
  197DOPC   H6S24404   1.721   6.867   3.925 -1.3567  2.2023  0.5344
  197DOPC   C2724405   1.839   7.039   3.975 -0.0237 -0.4784  0.4148
  197DOPC   H7R24406   1.935   7.087   3.945  0.4482 -2.3213 -1.2221
  197DOPC   H7S24407   1.844   7.011   4.082  2.1138 -0.5234  0.3525
  197DOPC   C2824408   1.732   7.152   3.966  1.0888 -0.0231 -0.3767
  197DOPC   H8R24409   1.641   7.102   4.005  1.6852 -0.1978  0.8426
  197DOPC   H8S24410   1.710   7.177   3.860  0.8542  3.3540  0.3470
  197DOPC   C2924411   1.776   7.281   4.035  0.5329 -0.4323  0.3596
  197DOPC   H9R24412   1.875   7.315   4.000 -0.3584 -0.7846 -2.8569
  197DOPC  C21024413   1.711   7.356   4.120 -0.6296 -0.0368 -0.0122
  197DOPC  H10R24414   1.752   7.455   4.147  0.5115 -1.0830  2.4236
  197DOPC  C21124415   1.572   7.339   4.176 -0.1317 -0.0429 -0.4922
  197DOPC  H11R24416   1.522   7.250   4.132  1.0702 -0.5842 -0.7955
  197DOPC  H11S24417   1.517   7.428   4.139  1.1288  1.5466  1.2801
  197DOPC  C21224418   1.576   7.335   4.326  1.0827 -0.1561 -0.0576
  197DOPC  H12R24419   1.636   7.250   4.366 -0.2032 -1.3595 -0.6229
  197DOPC  H12S24420   1.473   7.323   4.366  1.0015 -2.6144 -0.8601
  197DOPC  C21324421   1.628   7.461   4.390  0.4379  0.0977  0.1889
  197DOPC  H13R24422   1.595   7.552   4.336  2.1729  1.3151  1.0539
  197DOPC  H13S24423   1.739   7.464   4.381  0.3949 -0.6796 -0.8886
  197DOPC  C21424424   1.583   7.472   4.536 -0.0566 -0.0004  0.3170
  197DOPC  H14R24425   1.581   7.375   4.590  0.4205  0.2830  0.8598
  197DOPC  H14S24426   1.476   7.502   4.534  0.3276  1.3899 -0.6607
  197DOPC  C21524427   1.656   7.573   4.621  0.1647 -0.3741  0.1505
  197DOPC  H15R24428   1.618   7.675   4.601  0.9390  0.3357  2.1041
  197DOPC  H15S24429   1.766   7.572   4.610 -0.0077 -1.4561 -1.9350
  197DOPC  C21624430   1.615   7.553   4.768  0.3721  0.1631 -0.4284
  197DOPC  H16R24431   1.507   7.527   4.767  0.4199 -0.0768  0.2104
  197DOPC  H16S24432   1.626   7.652   4.818  0.0695  0.9791 -1.9294
  197DOPC  C21724433   1.697   7.444   4.837  0.0360  0.0333  0.1956
  197DOPC  H17R24434   1.803   7.448   4.805 -0.4628  0.7288 -1.4594
  197DOPC  H17S24435   1.665   7.343   4.803  0.1276 -0.0330  0.3072
  197DOPC  C21824436   1.700   7.440   4.990 -0.4000  0.3617  0.8958
  197DOPC  H18R24437   1.605   7.411   5.039  0.1074 -0.8564  1.1887
  197DOPC  H18S24438   1.730   7.534   5.043  0.1488  0.8243 -0.2003
  197DOPC  H18T24439   1.766   7.358   5.026 -0.1760  0.3004  0.3498
  197DOPC   C3324440   2.457   7.739   3.452 -0.1480 -0.0319  0.6223
  197DOPC   H3X24441   2.455   7.843   3.492 -1.3144  0.7602 -1.3401
  197DOPC   H3Y24442   2.521   7.727   3.362  0.2308 -5.1174  1.2943
  197DOPC   C3424443   2.534   7.648   3.552  0.1477 -0.1799  0.8909
  197DOPC   H4X24444   2.580   7.574   3.483  0.2465 -0.4958  1.2933
  197DOPC   H4Y24445   2.464   7.589   3.615 -0.9269  1.0534  0.8894
  197DOPC   C3524446   2.645   7.711   3.635 -0.2378 -0.3761 -0.0660
  197DOPC   H5X24447   2.600   7.785   3.705  0.7939  1.4628 -1.2665
  197DOPC   H5Y24448   2.713   7.766   3.566 -2.2423  0.1348 -1.7404
  197DOPC   C3624449   2.725   7.602   3.699 -0.2716 -0.2553 -0.3814
  197DOPC   H6X24450   2.662   7.530   3.754 -0.6589  0.3085 -0.0766
  197DOPC   H6Y24451   2.775   7.557   3.610 -0.7976 -0.9510 -0.3277
  197DOPC   C3724452   2.835   7.656   3.796 -0.1026 -0.0948  0.1153
  197DOPC   H7X24453   2.894   7.728   3.736 -1.0312  1.5053  1.0733
  197DOPC   H7Y24454   2.781   7.713   3.874 -2.5320  1.9856 -2.8229
  197DOPC   C3824455   2.913   7.555   3.878 -0.3781 -0.7017 -0.3048
  197DOPC   H8X24456   2.982   7.608   3.948 -0.3638 -0.2119 -0.6901
  197DOPC   H8Y24457   2.986   7.502   3.813  2.0185  0.0802  1.5831
  197DOPC   C3924458   2.833   7.455   3.960 -0.3376  0.6309  0.0702
  197DOPC   H9X24459   2.802   7.368   3.899  1.4951  0.1770 -0.2649
  197DOPC  C31024460   2.820   7.449   4.095  0.2125 -0.2826 -0.1716
  197DOPC  H10X24461   2.749   7.374   4.131 -0.9800  1.0967  0.4199
  197DOPC  C31124462   2.876   7.548   4.188  0.3451 -0.4725 -0.0432
  197DOPC  H11X24463   2.829   7.646   4.164 -2.5305 -1.2206  2.0131
  197DOPC  H11Y24464   2.985   7.567   4.182  0.5080 -1.2035  0.4397
  197DOPC  C31224465   2.856   7.516   4.337 -0.2437 -0.5310  0.1791
  197DOPC  H12X24466   2.898   7.601   4.394 -1.9910  3.1646 -3.5018
  197DOPC  H12Y24467   2.916   7.424   4.356 -0.6866 -0.6979  0.8002
  197DOPC  C31324468   2.708   7.486   4.373 -0.0969  0.3213 -0.4697
  197DOPC  H13X24469   2.644   7.570   4.338 -0.0349  0.6294  0.1583
  197DOPC  H13Y24470   2.683   7.394   4.316  0.2992 -0.5934  0.8003
  197DOPC  C31424471   2.678   7.460   4.521 -0.2286 -0.6969 -0.3892
  197DOPC  H14X24472   2.716   7.362   4.555 -0.5916 -0.4750  0.7181
  197DOPC  H14Y24473   2.739   7.536   4.575  0.2040 -0.7680 -0.7722
  197DOPC  C31524474   2.534   7.486   4.575 -0.3183 -0.0297  0.1994
  197DOPC  H15X24475   2.463   7.416   4.526  0.9844 -0.5333 -1.0283
  197DOPC  H15Y24476   2.501   7.585   4.538 -2.4402 -0.1961  1.4513
  197DOPC  C31624477   2.514   7.481   4.721  0.1887 -0.1732  0.7002
  197DOPC  H16X24478   2.546   7.381   4.758 -1.1135 -0.9914 -0.3155
  197DOPC  H16Y24479   2.586   7.552   4.768  0.6164  0.8479 -1.3789
  197DOPC  C31724480   2.372   7.514   4.763  0.3356  0.3454 -0.4739
  197DOPC  H17X24481   2.305   7.523   4.675 -0.7275  0.8089  0.3619
  197DOPC  H17Y24482   2.336   7.432   4.829  0.7612  0.2525 -0.3497
  197DOPC  C31824483   2.362   7.651   4.834  0.8977  0.2270 -0.2471
  197DOPC  H18X24484   2.455   7.708   4.811  1.2497  0.0183  0.6261
  197DOPC  H18Y24485   2.269   7.706   4.805  0.4444 -0.2394  0.3036
  197DOPC  H18Z24486   2.352   7.655   4.945 -1.5059 -0.9276 -0.3568
  198DOPC     N24487   7.207   7.167   2.707 -0.1537  0.8747  0.4446
  198DOPC   C1224488   7.226   7.185   2.852 -0.2180 -0.0602 -0.1963
  198DOPC  H12A24489   7.287   7.271   2.878 -0.6537  0.6210 -1.3565
  198DOPC  H12B24490   7.280   7.101   2.892 -0.6424 -0.4751 -0.4983
  198DOPC   C1324491   7.146   7.035   2.684 -0.3569 -0.1592 -0.4636
  198DOPC  H13A24492   7.062   7.031   2.752 -0.0922  1.9619  0.0631
  198DOPC  H13B24493   7.110   7.020   2.583  0.9572 -1.8573 -0.7376
  198DOPC  H13C24494   7.218   6.958   2.707  0.1260 -0.0495 -1.5188
  198DOPC   C1424495   7.338   7.169   2.639 -0.2520 -0.1487 -0.5753
  198DOPC  H14A24496   7.326   7.166   2.532 -1.1662  1.3938 -0.5370
  198DOPC  H14B24497   7.400   7.253   2.666 -0.1429 -0.5850  0.6214
  198DOPC  H14C24498   7.391   7.081   2.674  0.5008  1.3330  2.3969
  198DOPC   C1524499   7.127   7.281   2.647  0.8545 -0.1883  0.1230
  198DOPC  H15A24500   7.112   7.277   2.541  0.6985 -0.7594  0.1653
  198DOPC  H15B24501   7.183   7.370   2.671  1.3887 -0.9195  1.7715
  198DOPC  H15C24502   7.029   7.290   2.694  0.4510  2.9149 -1.0573
  198DOPC   C1124503   7.105   7.209   2.946 -0.4037 -0.2456 -0.3653
  198DOPC  H11A24504   7.161   7.222   3.041  1.2011 -0.3238 -1.2479
  198DOPC  H11B24505   7.057   7.303   2.914  0.4427  0.6317  0.8359
  198DOPC     P24506   7.024   6.993   3.060  0.2614  0.0309  0.0213
  198DOPC   O1324507   7.164   6.972   3.105 -0.0459 -0.4887 -0.4682
  198DOPC   O1424508   6.956   6.873   3.010  0.6694 -0.1051 -0.6531
  198DOPC   O1224509   7.007   7.103   2.947  0.3366 -0.0900  0.0204
  198DOPC   O1124510   6.948   7.054   3.179  0.5746  0.0337  0.2847
  198DOPC    C124511   6.990   7.160   3.268  0.0105 -0.0007  0.3696
  198DOPC    HA24512   6.977   7.259   3.219 -0.3556  0.4917  1.4511
  198DOPC    HB24513   7.096   7.147   3.300  0.4369 -1.1505 -1.3395
  198DOPC    C224514   6.918   7.154   3.402  0.5304 -0.4581  0.5282
  198DOPC    HS24515   6.959   7.232   3.470  1.0599  0.2715 -0.6001
  198DOPC   O2124516   6.923   7.020   3.462 -0.3627 -0.3765  0.3048
  198DOPC   C2124517   7.031   7.000   3.536 -0.0895 -0.3620 -0.2389
  198DOPC   O2224518   7.115   7.086   3.565  0.1540  0.4862  0.5218
  198DOPC   C2224519   7.032   6.862   3.596 -0.1170 -0.6305  0.8892
  198DOPC   H2R24520   7.026   6.784   3.517  1.0949 -0.9373  1.0778
  198DOPC   H2S24521   6.933   6.849   3.646 -1.6985 -1.4628 -2.1768
  198DOPC    C324522   6.771   7.192   3.365 -0.0817 -0.4242  0.3262
  198DOPC    HX24523   6.739   7.111   3.295  2.1530 -0.1307 -1.1563
  198DOPC    HY24524   6.764   7.290   3.314 -2.3008  0.7544  2.6822
  198DOPC   O3124525   6.693   7.188   3.487 -0.3070 -0.1867  0.6919
  198DOPC   C3124526   6.621   7.080   3.511  0.4685 -0.6297  0.5904
  198DOPC   O3224527   6.602   6.990   3.432 -0.0494  0.1072  0.2336
  198DOPC   C3224528   6.564   7.094   3.646  0.7144  0.1899 -0.2148
  198DOPC   H2X24529   6.622   7.049   3.729 -0.8168 -1.7886 -0.1335
  198DOPC   H2Y24530   6.564   7.205   3.658  0.0977  0.1238  0.5275
  198DOPC   C2324531   7.147   6.829   3.697 -0.0668  0.0418  0.5330
  198DOPC   H3R24532   7.248   6.831   3.653  0.9733 -2.5553  2.5665
  198DOPC   H3S24533   7.128   6.722   3.719 -2.8215  0.1732 -0.7958
  198DOPC   C2424534   7.153   6.915   3.825 -0.1949  0.3916 -0.4892
  198DOPC   H4R24535   7.051   6.958   3.837 -0.2351  0.2979 -0.4971
  198DOPC   H4S24536   7.211   7.008   3.806 -1.1767  1.0131 -0.4804
  198DOPC   C2524537   7.195   6.845   3.947 -0.3362  0.0050  0.2236
  198DOPC   H5R24538   7.303   6.819   3.942  0.6832  3.8444 -2.7020
  198DOPC   H5S24539   7.136   6.751   3.947 -0.9334  0.3720  0.1516
  198DOPC   C2624540   7.139   6.903   4.078 -0.2702  1.0025 -0.7891
  198DOPC   H6R24541   7.150   6.837   4.167 -0.4042  0.6021 -1.0696
  198DOPC   H6S24542   7.031   6.922   4.063 -0.8757  1.0352  2.6715
  198DOPC   C2724543   7.200   7.044   4.122  1.2277  0.2513 -0.5078
  198DOPC   H7R24544   7.132   7.089   4.198 -0.8947 -2.6912 -0.4889
  198DOPC   H7S24545   7.198   7.104   4.028  0.5127 -0.9712 -1.3118
  198DOPC   C2824546   7.342   7.015   4.166 -0.4555 -0.0359 -0.3496
  198DOPC   H8R24547   7.395   6.987   4.073 -2.0338  0.4971 -1.4645
  198DOPC   H8S24548   7.331   6.927   4.232 -0.7621 -0.3861 -0.8546
  198DOPC   C2924549   7.405   7.137   4.236 -0.2233 -0.0128  0.8896
  198DOPC   H9R24550   7.455   7.215   4.176  0.5773 -0.4372  0.9817
  198DOPC  C21024551   7.406   7.163   4.367  0.5426 -0.4230  0.8149
  198DOPC  H10R24552   7.453   7.253   4.408  0.4127  0.1131 -0.1971
  198DOPC  C21124553   7.350   7.084   4.479 -0.0069 -0.5172 -0.1903
  198DOPC  H11R24554   7.424   7.070   4.560 -1.6354 -1.6830  1.1708
  198DOPC  H11S24555   7.327   6.981   4.445 -0.7969 -0.1626 -0.7668
  198DOPC  C21224556   7.225   7.143   4.552 -0.7809 -0.2142  0.1472
  198DOPC  H12R24557   7.134   7.124   4.491 -1.1059  1.0918  0.1917
  198DOPC  H12S24558   7.232   7.253   4.571 -0.9286  0.0081 -0.9809
  198DOPC  C21324559   7.209   7.074   4.685  0.3873  0.0045 -0.2755
  198DOPC  H13R24560   7.302   7.076   4.747 -0.6044  0.4163  1.2413
  198DOPC  H13S24561   7.199   6.968   4.652  1.2265 -0.4746  0.9435
  198DOPC  C21424562   7.081   7.089   4.768  0.1111 -0.5372  0.1453
  198DOPC  H14R24563   7.062   7.191   4.807 -1.0886 -0.2523 -1.1117
  198DOPC  H14S24564   7.091   7.020   4.855  1.8872 -3.0632 -1.8879
  198DOPC  C21524565   6.949   7.060   4.688  0.5244  0.5743  0.3792
  198DOPC  H15R24566   6.955   6.964   4.633 -0.3813  0.9552 -0.4226
  198DOPC  H15S24567   6.938   7.137   4.609  2.7496  1.3708  0.7689
  198DOPC  C21624568   6.821   7.077   4.772  0.0462  0.4098 -0.4812
  198DOPC  H16R24569   6.807   7.186   4.788  1.9836  0.9348 -1.8764
  198DOPC  H16S24570   6.839   7.026   4.869  1.2690 -2.0423 -1.8947
  198DOPC  C21724571   6.695   7.013   4.702 -0.3076 -1.5091 -0.8698
  198DOPC  H17R24572   6.702   7.045   4.596 -0.1859  2.1813  0.0814
  198DOPC  H17S24573   6.600   7.062   4.732  0.4059 -0.3604 -0.3752
  198DOPC  C21824574   6.677   6.857   4.715  0.1391 -0.6700 -0.4668
  198DOPC  H18R24575   6.778   6.818   4.693  0.7015  0.9030 -0.7832
  198DOPC  H18S24576   6.607   6.813   4.640 -0.5503 -0.0541 -0.2050
  198DOPC  H18T24577   6.643   6.830   4.817  0.0612 -0.4792 -0.4418
  198DOPC   C3324578   6.413   7.043   3.664 -0.2335 -0.0333 -0.3603
  198DOPC   H3X24579   6.423   6.932   3.660 -1.0850 -0.4921  4.3286
  198DOPC   H3Y24580   6.341   7.083   3.589 -0.2508  0.0684 -0.2899
  198DOPC   C3424581   6.351   7.092   3.799 -0.3813  0.0480  0.3688
  198DOPC   H4X24582   6.334   7.202   3.801 -1.8478 -0.1385 -0.5148
  198DOPC   H4Y24583   6.441   7.072   3.862  0.8535 -0.4615 -1.4617
  198DOPC   C3524584   6.227   7.018   3.848  0.4056  0.2156  0.3236
  198DOPC   H5X24585   6.146   7.051   3.780  1.4812 -0.1869 -1.2008
  198DOPC   H5Y24586   6.205   7.064   3.946 -1.7917  1.0374 -0.5130
  198DOPC   C3624587   6.242   6.860   3.855 -0.9274 -0.1737  0.3700
  198DOPC   H6X24588   6.218   6.811   3.759 -0.1166 -1.5219  0.8188
  198DOPC   H6Y24589   6.347   6.836   3.884 -0.0216  2.9274  0.0163
  198DOPC   C3724590   6.142   6.794   3.953  0.0357 -0.2159  0.4961
  198DOPC   H7X24591   6.129   6.860   4.042 -3.0866 -0.9586  0.7032
  198DOPC   H7Y24592   6.046   6.792   3.897 -0.0535  1.5992  0.5153
  198DOPC   C3824593   6.170   6.644   3.988 -0.3845  0.3795 -0.1468
  198DOPC   H8X24594   6.072   6.600   4.016 -0.8778  1.1495 -0.6148
  198DOPC   H8Y24595   6.248   6.648   4.068  0.0997  2.0380 -0.6686
  198DOPC   C3924596   6.221   6.559   3.871  0.3925  0.2086 -0.6284
  198DOPC   H9X24597   6.171   6.600   3.782 -1.8605  2.0896  1.3734
  198DOPC  C31024598   6.302   6.457   3.881 -0.1681 -0.0481  0.3151
  198DOPC  H10X24599   6.342   6.406   3.792  0.0711 -0.3709  0.6062
  198DOPC  C31124600   6.374   6.396   3.998 -0.1361 -0.1209 -0.2004
  198DOPC  H11X24601   6.304   6.382   4.083 -1.7338 -1.4013 -1.6670
  198DOPC  H11Y24602   6.446   6.469   4.042  1.8248 -2.2943  0.3857
  198DOPC  C31224603   6.457   6.268   3.986 -0.8540  0.1484 -0.1063
  198DOPC  H12X24604   6.502   6.236   4.083 -0.3772  0.9221 -0.0623
  198DOPC  H12Y24605   6.542   6.264   3.915 -0.9623 -2.0126 -0.1924
  198DOPC  C31324606   6.359   6.150   3.950 -0.4844 -0.5537 -0.1915
  198DOPC  H13X24607   6.292   6.165   4.037 -0.0522  0.9909 -0.0816
  198DOPC  H13Y24608   6.306   6.171   3.854 -0.8616  1.5375  0.4309
  198DOPC  C31424609   6.412   6.007   3.961 -0.2001  0.2516 -0.1922
  198DOPC  H14X24610   6.492   6.000   3.883  0.5791  1.4987  0.4756
  198DOPC  H14Y24611   6.465   5.995   4.058 -0.7895  0.2791  0.1324
  198DOPC  C31524612   6.302   5.910   3.939  0.2637  0.6200 -0.0347
  198DOPC  H15X24613   6.250   5.932   3.843 -0.2678 -0.3298  0.0188
  198DOPC  H15Y24614   6.227   5.914   4.022  1.8874 -1.9330  1.7051
  198DOPC  C31624615   6.356   5.764   3.924  0.5181 -0.1154 -0.0736
  198DOPC  H16X24616   6.398   5.747   3.822  3.1932 -0.6510  1.0053
  198DOPC  H16Y24617   6.439   5.751   3.997  2.0422 -0.5697 -1.8001
  198DOPC  C31724618   6.252   5.653   3.941 -0.0896  0.7113 -0.1204
  198DOPC  H17X24619   6.225   5.645   4.048 -0.6328  1.5959 -0.1789
  198DOPC  H17Y24620   6.161   5.686   3.887 -2.0661  1.1083  3.2387
  198DOPC  C31824621   6.298   5.515   3.893 -0.6712  0.0195 -0.1792
  198DOPC  H18X24622   6.329   5.517   3.786  0.0106  0.3412  0.0179
  198DOPC  H18Y24623   6.372   5.468   3.961  0.4365  1.5979 -0.2476
  198DOPC  H18Z24624   6.210   5.448   3.893 -0.4794 -0.2338  0.1249
  199DOPC     N24625   6.241   7.678   2.699  0.3691  0.2516  0.2730
  199DOPC   C1224626   6.181   7.658   2.838 -0.5038 -0.0451  0.1201
  199DOPC  H12A24627   6.097   7.592   2.825 -0.6171 -0.8080  3.6583
  199DOPC  H12B24628   6.136   7.753   2.866  0.5961  0.4498  0.2536
  199DOPC   C1324629   6.157   7.769   2.621  0.1698 -0.4514  0.6439
  199DOPC  H13A24630   6.063   7.725   2.590  0.5292 -0.2929 -0.7445
  199DOPC  H13B24631   6.140   7.865   2.667  2.1358  1.1966 -1.8368
  199DOPC  H13C24632   6.202   7.801   2.529  0.1908 -0.1621  0.7553
  199DOPC   C1424633   6.246   7.545   2.634 -0.9291  0.0795 -0.4154
  199DOPC  H14A24634   6.307   7.476   2.691  0.8463  0.0781 -2.2143
  199DOPC  H14B24635   6.152   7.493   2.622 -0.9200 -0.4744  1.5113
  199DOPC  H14C24636   6.287   7.545   2.534 -0.9561 -0.8458 -0.4408
  199DOPC   C1524637   6.375   7.739   2.708 -0.4633 -0.4912  0.2449
  199DOPC  H15A24638   6.361   7.821   2.777 -0.5668 -0.5669  0.3131
  199DOPC  H15B24639   6.411   7.783   2.617 -2.5675 -1.6555 -1.2269
  199DOPC  H15C24640   6.450   7.672   2.750  0.6516  1.2523  1.1726
  199DOPC   C1124641   6.270   7.608   2.949  0.7628  0.7958  0.2086
  199DOPC  H11A24642   6.195   7.563   3.018 -0.5764  0.1931 -1.5614
  199DOPC  H11B24643   6.349   7.532   2.930  1.9207  2.3156 -1.2580
  199DOPC     P24644   6.290   7.832   3.106 -0.1825 -0.0143 -0.5662
  199DOPC   O1324645   6.215   7.934   3.028  0.5348 -0.0146  0.2504
  199DOPC   O1424646   6.413   7.873   3.178 -0.1014  0.2506 -0.1859
  199DOPC   O1224647   6.339   7.717   3.008  0.0213  0.0158  0.0756
  199DOPC   O1124648   6.194   7.766   3.213 -0.9267  0.2366 -0.1211
  199DOPC    C124649   6.248   7.675   3.312 -0.1662  0.0960 -0.5257
  199DOPC    HA24650   6.335   7.619   3.270 -1.6427 -2.1313 -0.8005
  199DOPC    HB24651   6.174   7.594   3.333  1.1847 -0.5850  2.0495
  199DOPC    C224652   6.285   7.749   3.440  0.0894 -0.0936 -0.0699
  199DOPC    HS24653   6.366   7.824   3.430 -0.3179  0.4324  0.4822
  199DOPC   O2124654   6.333   7.652   3.531 -0.4501  0.0136 -0.0754
  199DOPC   C2124655   6.457   7.604   3.512  0.1832 -0.9717 -0.1922
  199DOPC   O2224656   6.536   7.647   3.431 -0.2846  0.7428  0.4656
  199DOPC   C2224657   6.474   7.475   3.593  0.3028 -0.5964 -0.3891
  199DOPC   H2R24658   6.478   7.395   3.516 -0.2413 -0.5482 -0.4749
  199DOPC   H2S24659   6.377   7.445   3.638  0.9948 -1.2195  0.7096
  199DOPC    C324660   6.166   7.840   3.498  0.0844  0.2228  0.2779
  199DOPC    HX24661   6.073   7.779   3.506 -0.3070  0.8587  0.5841
  199DOPC    HY24662   6.144   7.916   3.420  0.4008  0.2335  0.1988
  199DOPC   O3124663   6.186   7.902   3.627  0.2777  0.4268  0.3960
  199DOPC   C3124664   6.270   8.012   3.629  0.4912 -0.1195  0.5483
  199DOPC   O3224665   6.328   8.053   3.531 -0.1468  0.2657 -0.3431
  199DOPC   C3224666   6.280   8.058   3.778 -0.0830  0.4103  0.2433
  199DOPC   H2X24667   6.389   8.076   3.785 -0.0143 -0.2520  0.8707
  199DOPC   H2Y24668   6.217   8.150   3.777  0.8144  1.0460 -1.3025
  199DOPC   C2324669   6.594   7.493   3.684  0.6425  0.1822 -0.4174
  199DOPC   H3R24670   6.672   7.551   3.632  0.4277 -0.0732 -1.0261
  199DOPC   H3S24671   6.629   7.395   3.724 -1.8064 -0.2518  0.8327
  199DOPC   C2424672   6.560   7.571   3.807  0.0485 -0.3885  0.1192
  199DOPC   H4R24673   6.523   7.675   3.789 -0.9431 -0.5640  1.0492
  199DOPC   H4S24674   6.650   7.588   3.870  0.7963 -0.2023 -0.9626
  199DOPC   C2524675   6.463   7.505   3.908  0.4677  0.5587  0.4723
  199DOPC   H5R24676   6.492   7.400   3.930  0.7753  0.1221 -1.7437
  199DOPC   H5S24677   6.359   7.504   3.866  0.3046 -0.5465  0.8694
  199DOPC   C2624678   6.449   7.576   4.044 -0.9327  0.2650  0.2645
  199DOPC   H6R24679   6.340   7.595   4.055 -1.3567 -1.3253 -0.8543
  199DOPC   H6S24680   6.489   7.678   4.026  0.5763 -0.4884 -0.7603
  199DOPC   C2724681   6.525   7.506   4.165 -0.6128  0.2287 -0.8381
  199DOPC   H7R24682   6.540   7.585   4.241  2.4556 -2.3073  1.4582
  199DOPC   H7S24683   6.631   7.486   4.137 -0.3399 -0.2268  0.4544
  199DOPC   C2824684   6.451   7.386   4.218  0.7332  0.1353 -0.1922
  199DOPC   H8R24685   6.522   7.316   4.269 -0.5281 -0.8324  0.2786
  199DOPC   H8S24686   6.415   7.330   4.129 -3.6900  2.2892 -0.0070
  199DOPC   C2924687   6.330   7.417   4.301 -0.1866  0.7939 -0.4485
  199DOPC   H9R24688   6.235   7.424   4.246 -1.2037  0.0273  1.1421
  199DOPC  C21024689   6.327   7.424   4.435  0.0976 -0.0780 -0.7064
  199DOPC  H10R24690   6.235   7.460   4.483  0.0596  1.8666 -2.1190
  199DOPC  C21124691   6.441   7.398   4.530 -0.0150  0.1027 -0.1862
  199DOPC  H11R24692   6.434   7.447   4.630  0.5792  0.1557 -0.1680
  199DOPC  H11S24693   6.532   7.437   4.478  0.5497 -0.1952  0.5566
  199DOPC  C21224694   6.464   7.252   4.571  0.4874 -0.4532 -0.1202
  199DOPC  H12R24695   6.560   7.235   4.625 -0.3234 -0.3446  1.4050
  199DOPC  H12S24696   6.486   7.198   4.476  0.9219  1.1608 -0.9731
  199DOPC  C21324697   6.363   7.184   4.654  0.4773 -0.1756 -0.2110
  199DOPC  H13R24698   6.389   7.076   4.660  0.4664 -0.1720 -0.0948
  199DOPC  H13S24699   6.256   7.192   4.625  0.2059  0.1798  0.8291
  199DOPC  C21424700   6.353   7.249   4.794 -0.6353 -0.6474 -0.4154
  199DOPC  H14R24701   6.311   7.351   4.783  1.0652  0.3451  1.6900
  199DOPC  H14S24702   6.456   7.265   4.833 -0.1656  0.3396 -1.9567
  199DOPC  C21524703   6.273   7.172   4.895  0.2889  0.3967  0.2657
  199DOPC  H15R24704   6.314   7.069   4.896  1.5638  0.7297 -3.1604
  199DOPC  H15S24705   6.167   7.165   4.860  0.4692  1.2189 -0.4561
  199DOPC  C21624706   6.256   7.239   5.033 -0.2668  0.0148 -0.2127
  199DOPC  H16R24707   6.190   7.326   5.018 -0.8240 -0.4812 -0.6575
  199DOPC  H16S24708   6.354   7.284   5.060 -0.5286  0.5725 -0.1800
  199DOPC  C21724709   6.199   7.140   5.144  0.0734 -0.1194 -0.3887
  199DOPC  H17R24710   6.170   7.196   5.236 -0.5821  0.3727 -0.8858
  199DOPC  H17S24711   6.274   7.062   5.169  1.4807  0.6491 -2.0258
  199DOPC  C21824712   6.074   7.058   5.101 -0.3080 -0.8929  0.0114
  199DOPC  H18R24713   5.984   7.123   5.103  0.6581  0.5270 -0.5897
  199DOPC  H18S24714   6.066   6.977   5.177 -0.4739 -1.2972 -0.4326
  199DOPC  H18T24715   6.084   6.999   5.007 -0.9808 -0.5156 -0.3058
  199DOPC   C3324716   6.250   7.961   3.892 -0.0874  0.2720  0.3035
  199DOPC   H3X24717   6.320   7.875   3.882 -0.5047 -0.3165  2.1203
  199DOPC   H3Y24718   6.144   7.929   3.888 -0.1626  0.4013  1.0825
  199DOPC   C3424719   6.268   8.033   4.027 -0.3302 -1.0495 -0.6789
  199DOPC   H4X24720   6.183   8.104   4.037  1.6161  1.0910  1.9107
  199DOPC   H4Y24721   6.361   8.093   4.029 -1.3746  0.6478  1.7076
  199DOPC   C3524722   6.268   7.929   4.145  0.5620  0.7892 -0.0375
  199DOPC   H5X24723   6.308   7.832   4.106 -0.4267  1.7096 -3.7778
  199DOPC   H5Y24724   6.159   7.914   4.163  0.6883 -1.9329 -0.9797
  199DOPC   C3624725   6.355   7.979   4.262  0.1675 -0.0472 -0.2369
  199DOPC   H6X24726   6.458   7.968   4.221  0.7108  0.7907  0.8751
  199DOPC   H6Y24727   6.320   8.080   4.292  0.2608 -0.0881  0.0097
  199DOPC   C3724728   6.329   7.889   4.393 -0.6314 -0.5641  0.2952
  199DOPC   H7X24729   6.230   7.918   4.434 -1.0126  0.8537 -1.5181
  199DOPC   H7Y24730   6.332   7.785   4.353  0.2302 -0.2304 -0.5451
  199DOPC   C3824731   6.422   7.906   4.516 -0.4585 -0.5762 -0.0497
  199DOPC   H8X24732   6.391   8.008   4.547 -0.1699 -0.0685 -1.4048
  199DOPC   H8Y24733   6.525   7.903   4.475 -1.2791  2.6392 -2.7963
  199DOPC   C3924734   6.385   7.802   4.622  0.1960 -0.9780  0.3511
  199DOPC   H9X24735   6.356   7.705   4.578  1.2443 -1.0057 -0.2959
  199DOPC  C31024736   6.401   7.811   4.755  0.4920 -0.2563  0.0023
  199DOPC  H10X24737   6.380   7.728   4.826 -1.2693  1.5546  1.7491
  199DOPC  C31124738   6.453   7.938   4.824  1.3067 -0.6446 -0.0774
  199DOPC  H11X24739   6.524   7.992   4.759  0.1313 -0.5058 -1.3016
  199DOPC  H11Y24740   6.503   7.903   4.916 -0.3705  0.1473  1.1906
  199DOPC  C31224741   6.346   8.055   4.874 -0.2284  0.4769  0.4203
  199DOPC  H12X24742   6.249   8.020   4.914 -0.4657 -0.1254 -0.6489
  199DOPC  H12Y24743   6.310   8.100   4.779  2.5615 -0.1564 -1.0802
  199DOPC  C31324744   6.419   8.158   4.955 -0.3718  0.2259  0.5795
  199DOPC  H13X24745   6.482   8.108   5.032 -0.3033 -0.7349 -0.0841
  199DOPC  H13Y24746   6.491   8.216   4.893 -0.6136 -0.0114  0.0721
  199DOPC  C31424747   6.334   8.269   5.018 -0.3280  0.9295  0.2589
  199DOPC  H14X24748   6.284   8.320   4.933  0.7405 -0.9322 -1.5690
  199DOPC  H14Y24749   6.262   8.230   5.092 -0.2334  0.1723 -0.0387
  199DOPC  C31524750   6.425   8.375   5.102 -0.2286  0.2141  0.5118
  199DOPC  H15X24751   6.507   8.413   5.037 -1.5420 -0.2479 -1.5114
  199DOPC  H15Y24752   6.460   8.326   5.196  0.5595 -1.4506 -0.5999
  199DOPC  C31624753   6.338   8.498   5.134 -0.0258  0.1229 -0.4274
  199DOPC  H16X24754   6.309   8.537   5.034  0.9048 -2.8759 -2.0085
  199DOPC  H16Y24755   6.247   8.470   5.193  1.3895 -0.2709  1.6770
  199DOPC  C31724756   6.412   8.618   5.204 -0.1405  0.4739  0.0425
  199DOPC  H17X24757   6.479   8.661   5.126 -1.9024  0.7585 -1.3606
  199DOPC  H17Y24758   6.333   8.694   5.220 -1.5222 -1.1776  1.4992
  199DOPC  C31824759   6.489   8.577   5.327  0.4750 -0.5293 -0.3376
  199DOPC  H18X24760   6.552   8.656   5.374 -0.4391 -0.4808  0.8507
  199DOPC  H18Y24761   6.418   8.537   5.402 -0.7066  0.9552 -0.6193
  199DOPC  H18Z24762   6.564   8.499   5.302  0.8415  0.0540 -1.1102
  200DOPC     N24763   1.241   0.346   2.619 -0.3764  0.3082  0.4409
  200DOPC   C1224764   1.147   0.305   2.738 -0.6543  0.0356 -0.2370
  200DOPC  H12A24765   1.059   0.252   2.705 -0.2762 -1.7956  1.5262
  200DOPC  H12B24766   1.109   0.398   2.777 -2.2091 -1.1287  1.1526
  200DOPC   C1324767   1.154   0.381   2.496 -0.4405 -0.3396 -0.4926
  200DOPC  H13A24768   1.081   0.452   2.531 -0.3468 -1.2621  1.7290
  200DOPC  H13B24769   1.220   0.427   2.424  0.5617 -0.9306  0.0222
  200DOPC  H13C24770   1.100   0.295   2.458 -0.6850 -0.7467  0.7322
  200DOPC   C1424771   1.324   0.224   2.581 -0.6379  0.3739  0.8444
  200DOPC  H14A24772   1.405   0.238   2.511 -0.5302  0.0493  0.9073
  200DOPC  H14B24773   1.350   0.165   2.667 -0.2815 -0.4897  0.1570
  200DOPC  H14C24774   1.256   0.158   2.529 -1.1247  1.3211  0.2359
  200DOPC   C1524775   1.322   0.463   2.642  0.2044  0.2841 -0.0816
  200DOPC  H15A24776   1.263   0.553   2.658  1.6936  1.1479  0.8200
  200DOPC  H15B24777   1.378   0.490   2.554 -0.1693 -0.7359 -0.6453
  200DOPC  H15C24778   1.389   0.447   2.725  0.6572 -0.0522 -0.5068
  200DOPC   C1124779   1.194   0.221   2.856 -1.1020 -0.1711  0.0556
  200DOPC  H11A24780   1.114   0.216   2.933 -1.5263  2.2704 -0.1515
  200DOPC  H11B24781   1.220   0.117   2.826  0.5904  0.7286 -1.8948
  200DOPC     P24782   1.324   0.394   3.010  0.3477  0.0797 -0.3196
  200DOPC   O1324783   1.193   0.427   3.064  0.2425  0.2856 -0.2582
  200DOPC   O1424784   1.392   0.507   2.953 -0.2584 -0.2571 -0.2526
  200DOPC   O1224785   1.321   0.276   2.906 -0.1179  0.4572 -0.4335
  200DOPC   O1124786   1.405   0.326   3.133 -0.4230 -0.0382 -0.3691
  200DOPC    C124787   1.375   0.199   3.185  0.6489  0.3228 -0.7056
  200DOPC    HA24788   1.458   0.126   3.170  0.5087  0.2266 -1.0202
  200DOPC    HB24789   1.278   0.168   3.141 -0.2896  0.3699  1.2164
  200DOPC    C224790   1.366   0.211   3.336  0.2046 -0.6299  0.4760
  200DOPC    HS24791   1.348   0.110   3.377  0.8032  0.3924  3.5329
  200DOPC   O2124792   1.246   0.282   3.363 -0.1266 -0.0426 -0.1582
  200DOPC   C2124793   1.187   0.254   3.480 -0.1313  0.8737 -0.1748
  200DOPC   O2224794   1.218   0.160   3.556 -0.3251 -0.7760 -0.0680
  200DOPC   C2224795   1.080   0.351   3.519 -0.0389  0.5377  0.4304
  200DOPC   H2R24796   0.980   0.305   3.506  0.3514 -0.5410  1.1133
  200DOPC   H2S24797   1.093   0.438   3.452 -0.5612  0.9124  0.8082
  200DOPC    C324798   1.489   0.279   3.398 -0.3062 -0.3387  0.0516
  200DOPC    HX24799   1.488   0.388   3.381  3.2786 -0.6326 -3.4441
  200DOPC    HY24800   1.569   0.240   3.332 -2.0088  0.3544 -2.5673
  200DOPC   O3124801   1.510   0.229   3.534  0.2072 -0.1408 -0.6804
  200DOPC   C3124802   1.492   0.324   3.626 -0.3951  0.4138  0.1004
  200DOPC   O3224803   1.435   0.429   3.609  0.6587  0.0026  0.2880
  200DOPC   C3224804   1.552   0.271   3.750  0.1216  0.5468 -0.4888
  200DOPC   H2X24805   1.491   0.185   3.786 -1.7692  2.3103  0.7978
  200DOPC   H2Y24806   1.653   0.229   3.731  1.2132  2.1194  1.5155
  200DOPC   C2324807   1.084   0.405   3.666 -0.0309 -0.7237  0.6062
  200DOPC   H3R24808   1.190   0.414   3.697 -0.2230  0.4315  0.9932
  200DOPC   H3S24809   1.017   0.341   3.726 -4.0037  2.3029 -0.1308
  200DOPC   C2424810   1.032   0.548   3.664 -0.3728  0.0804 -0.3973
  200DOPC   H4R24811   0.924   0.545   3.638 -0.5514  0.5617  0.2472
  200DOPC   H4S24812   1.082   0.608   3.585  1.4859 -1.9295 -0.8537
  200DOPC   C2524813   1.057   0.622   3.802  0.2862 -0.5103  0.5223
  200DOPC   H5R24814   0.998   0.713   3.777 -2.2215 -1.7816  1.4170
  200DOPC   H5S24815   1.166   0.644   3.804  0.4350 -0.8627 -1.6237
  200DOPC   C2624816   0.991   0.549   3.919 -0.1383 -0.6253  0.2584
  200DOPC   H6R24817   1.052   0.464   3.957  0.3537  0.4704  2.0874
  200DOPC   H6S24818   0.889   0.527   3.882 -1.7138  3.6705  1.3899
  200DOPC   C2724819   0.981   0.637   4.039 -0.1217 -0.0894 -0.1351
  200DOPC   H7R24820   0.939   0.736   4.012 -0.0812 -0.1022 -0.2461
  200DOPC   H7S24821   1.089   0.654   4.055 -0.2111  0.4693 -0.1016
  200DOPC   C2824822   0.898   0.583   4.155  0.5763  0.6086 -0.9313
  200DOPC   H8R24823   0.929   0.477   4.172 -1.8299 -0.0388 -0.1496
  200DOPC   H8S24824   0.792   0.587   4.121  0.0241  2.7181  0.8407
  200DOPC   C2924825   0.920   0.664   4.281  0.6753 -0.0193 -0.2671
  200DOPC   H9R24826   0.978   0.757   4.271  2.2112 -0.8364  0.6892
  200DOPC  C21024827   0.872   0.634   4.400  0.0115 -0.4552  1.1941
  200DOPC  H10R24828   0.897   0.707   4.479  0.2298  0.0556  0.6615
  200DOPC  C21124829   0.779   0.518   4.439  0.5411  0.2494  0.0619
  200DOPC  H11R24830   0.788   0.434   4.367  0.0980 -0.0956  0.4049
  200DOPC  H11S24831   0.675   0.556   4.434  0.2932 -0.4057  0.1842
  200DOPC  C21224832   0.814   0.486   4.590  0.4724  0.2074 -0.6812
  200DOPC  H12R24833   0.753   0.398   4.619 -1.8356  0.8735 -3.0958
  200DOPC  H12S24834   0.773   0.570   4.651 -0.5126 -0.0138 -1.0259
  200DOPC  C21324835   0.968   0.457   4.615 -0.6224 -0.6646  0.0975
  200DOPC  H13R24836   1.017   0.554   4.593  0.2991 -0.3628  3.0681
  200DOPC  H13S24837   0.997   0.371   4.551  1.5740  1.2271 -1.6070
  200DOPC  C21424838   1.005   0.439   4.767  0.2381  0.5716  0.3013
  200DOPC  H14R24839   0.952   0.352   4.811 -0.4624  0.4635 -0.7106
  200DOPC  H14S24840   0.967   0.531   4.816 -0.8699 -0.2489  1.0368
  200DOPC  C21524841   1.155   0.443   4.797  0.5390 -0.2134  0.0775
  200DOPC  H15R24842   1.193   0.547   4.784  0.2357 -0.3634 -2.5016
  200DOPC  H15S24843   1.215   0.370   4.737 -0.3558 -0.6963 -0.2472
  200DOPC  C21624844   1.181   0.411   4.946 -0.1162  0.1576 -0.5357
  200DOPC  H16R24845   1.149   0.314   4.989  0.2631  0.7247  1.0800
  200DOPC  H16S24846   1.116   0.481   5.003 -0.1811 -0.3309  0.0076
  200DOPC  C21724847   1.322   0.436   5.001 -0.7332 -0.0081  0.7350
  200DOPC  H17R24848   1.337   0.546   5.004  3.5866 -0.4244  0.5657
  200DOPC  H17S24849   1.393   0.388   4.931 -0.7668  1.8799 -0.6797
  200DOPC  C21824850   1.349   0.400   5.156 -0.2946  0.0049  0.3328
  200DOPC  H18R24851   1.257   0.426   5.213 -1.6277 -0.8441 -1.3480
  200DOPC  H18S24852   1.435   0.463   5.186 -0.7452  1.9414 -2.1371
  200DOPC  H18T24853   1.368   0.291   5.164  0.3734 -0.1051 -2.0624
  200DOPC   C3324854   1.582   0.367   3.856 -0.1409 -0.7844 -0.0571
  200DOPC   H3X24855   1.661   0.436   3.820 -0.0079 -1.3633 -0.9142
  200DOPC   H3Y24856   1.632   0.315   3.940  2.1999  1.3193 -0.0371
  200DOPC   C3424857   1.467   0.443   3.917  0.0981 -0.2673 -0.1767
  200DOPC   H4X24858   1.377   0.384   3.890 -0.4905 -0.3900  1.8918
  200DOPC   H4Y24859   1.464   0.542   3.866 -1.2441 -0.8880 -1.3753
  200DOPC   C3524860   1.466   0.441   4.072 -0.1554 -0.2383 -0.0940
  200DOPC   H5X24861   1.569   0.461   4.110 -0.1324 -0.6732  0.0801
  200DOPC   H5Y24862   1.433   0.337   4.092 -1.4063 -0.4944 -3.0634
  200DOPC   C3624863   1.363   0.538   4.134 -0.9087  0.0693  0.2469
  200DOPC   H6X24864   1.392   0.644   4.118 -0.9932 -0.0987 -1.1095
  200DOPC   H6Y24865   1.265   0.535   4.082 -1.2540  1.0996  0.8205
  200DOPC   C3724866   1.349   0.531   4.288  0.2473 -0.3710 -0.2221
  200DOPC   H7X24867   1.256   0.587   4.308  0.3209 -0.3689  0.1185
  200DOPC   H7Y24868   1.343   0.433   4.341 -0.6045  0.4332  1.2464
  200DOPC   C3824869   1.467   0.594   4.369 -0.2992  0.0314 -0.2636
  200DOPC   H8X24870   1.562   0.549   4.331 -0.0600  0.4026 -0.1120
  200DOPC   H8Y24871   1.457   0.563   4.475 -0.6637 -0.2023 -0.3661
  200DOPC   C3924872   1.469   0.742   4.349 -0.4271 -0.4196 -0.4635
  200DOPC   H9X24873   1.504   0.778   4.251 -2.7666  1.1044 -0.8100
  200DOPC  C31024874   1.423   0.835   4.436 -0.0834  0.5689 -0.1683
  200DOPC  H10X24875   1.430   0.944   4.417 -0.8312  1.1006  2.3117
  200DOPC  C31124876   1.365   0.797   4.569  0.2443  0.5760  0.1642
  200DOPC  H11X24877   1.314   0.701   4.548  0.2603  0.8131 -0.9922
  200DOPC  H11Y24878   1.293   0.875   4.601  0.2757  0.9139 -0.5840
  200DOPC  C31224879   1.478   0.790   4.670  0.5353 -0.3077  0.2379
  200DOPC  H12X24880   1.570   0.751   4.622 -0.0383 -1.2803 -0.1071
  200DOPC  H12Y24881   1.451   0.714   4.747  2.7465 -1.1013  0.3149
  200DOPC  C31324882   1.506   0.924   4.742 -0.2509  0.5364 -0.9570
  200DOPC  H13X24883   1.408   0.974   4.760 -0.2707 -0.5006  2.4693
  200DOPC  H13Y24884   1.557   0.902   4.838  0.1151  0.4406 -1.1737
  200DOPC  C31424885   1.594   1.027   4.661 -0.3517 -0.3853  0.6089
  200DOPC  H14X24886   1.693   0.985   4.634 -0.7419 -0.4500 -0.7606
  200DOPC  H14Y24887   1.547   1.051   4.564  0.8575 -0.3085  0.0159
  200DOPC  C31524888   1.614   1.158   4.744  1.1596 -0.0267 -0.0122
  200DOPC  H15X24889   1.676   1.137   4.834 -1.4134  1.5033  2.2575
  200DOPC  H15Y24890   1.513   1.188   4.777  0.0271 -1.0018 -2.3464
  200DOPC  C31624891   1.689   1.272   4.678  0.1561  0.8046 -0.0983
  200DOPC  H16X24892   1.799   1.254   4.676  0.1780  0.9517 -0.4176
  200DOPC  H16Y24893   1.658   1.282   4.572 -1.8496 -1.1175  0.2427
  200DOPC  C31724894   1.670   1.404   4.757 -0.6404 -0.2501  0.6631
  200DOPC  H17X24895   1.567   1.427   4.792 -0.3058  0.8511  0.9750
  200DOPC  H17Y24896   1.732   1.393   4.847  0.2633 -3.8153 -0.2564
  200DOPC  C31824897   1.719   1.517   4.668 -0.3100 -0.7735  0.3153
  200DOPC  H18X24898   1.829   1.502   4.663 -0.2492 -0.0312 -1.8500
  200DOPC  H18Y24899   1.670   1.520   4.568  1.6044  1.3276 -0.6338
  200DOPC  H18Z24900   1.705   1.613   4.721 -1.0204 -0.0722 -1.0891
  201SOD    SOD24901   2.566   5.032   0.939  0.6135  0.4255 -0.3617
  202SOD    SOD24902   4.558   2.629   7.299 -0.2132  0.0708  0.6089
  203SOD    SOD24903   0.200   4.307   8.139 -0.2607  0.4901  0.3791
  204SOD    SOD24904   5.013   5.666   9.245 -0.1936 -0.6750  0.6675
  205SOD    SOD24905   2.261   5.650   7.449  0.2303 -0.1264  0.1231
  206SOD    SOD24906   2.692   2.269   2.058  0.1315  0.1141 -0.7619
  207SOD    SOD24907   1.347   0.456   8.508 -0.0585  0.2362 -0.0422
  208SOD    SOD24908   0.603   2.932   9.905  0.0049  0.0009 -0.0234
  209SOD    SOD24909   5.860   6.704   1.706 -0.1733  0.0908  0.0537
  210SOD    SOD24910   7.019   6.426   8.831  0.0752 -0.0811 -0.4693
  211SOD    SOD24911   1.423   0.963   0.801  0.3845 -0.0545  0.2451
  212SOD    SOD24912   2.761   6.354   8.975 -0.3881  0.0700  0.1716
  213SOD    SOD24913   4.080   5.293   7.190 -0.2764  0.1325  0.4251
  214SOD    SOD24914   3.590   6.475   2.169 -0.0993  0.4410  0.0921
  215SOD    SOD24915   7.602   3.990   7.060  0.4394  0.2546 -0.7887
  216SOD    SOD24916   0.019   7.337   0.364  0.1524 -0.0129  0.0255
  217SOD    SOD24917   3.921   1.520   9.421  0.3615 -1.0295  0.0146
  218SOD    SOD24918   0.940   2.581   7.357  0.1308  0.6935 -0.5040
  219SOD    SOD24919   0.051   7.320   8.579  0.0128  0.3797  0.3181
  220SOD    SOD24920   3.677   4.374   8.677  0.3790  0.2960  0.6613
  221SOD    SOD24921   0.747   4.675   0.794  0.0102 -0.5533  0.0527
  222SOD    SOD24922   6.732   5.463   7.286  0.0775 -0.3277  0.4301
  223SOD    SOD24923   4.146   7.452   9.327  0.1334 -0.0931  0.2455
  224SOD    SOD24924   7.103   1.568   9.829  0.5125 -0.1291  0.1162
  225SOD    SOD24925   1.948   3.841   1.547 -0.0436  0.2567 -0.0641
  226SOD    SOD24926   2.875   1.429   8.114  0.1610  0.2875 -0.2689
  227CLA    CLA24927   7.539   5.326   9.904  0.2074  0.1501  0.1594
  228CLA    CLA24928   7.650   7.065   1.089  0.0393 -0.1254  0.1480
  229CLA    CLA24929   1.900   5.558   8.039  0.0573 -0.0955 -0.1091
  230CLA    CLA24930   1.472   4.404   1.520  0.1169 -0.4075  0.0245
  231CLA    CLA24931   2.641   2.439   0.850  0.2723 -0.0996 -0.0278
  232CLA    CLA24932   3.734   3.765   7.825 -0.2601 -0.0823 -0.0722
  233CLA    CLA24933   1.015   2.773   9.725 -0.3187 -0.1945  0.2364
  234CLA    CLA24934   1.860   6.258   9.620  0.0506  0.1255  0.0047
  235CLA    CLA24935   5.944   7.238   1.691 -0.1767  0.0610 -0.2719
  236CLA    CLA24936   0.270   1.729   9.849 -0.0283  0.0756  0.1530
  237CLA    CLA24937   7.448   4.783   8.525 -0.2049  0.0640 -0.3301
  238CLA    CLA24938   5.922   7.292   0.776 -0.0014 -0.1290 -0.1265
  239CLA    CLA24939   0.021   7.121   9.922 -0.5969 -0.0086 -0.0544
  240CLA    CLA24940   2.836   5.778   8.720  0.3938 -0.1078  0.0714
  241CLA    CLA24941   3.062   1.529   8.281  0.0132 -0.2530 -0.0138
  242CLA    CLA24942   4.261   6.353   9.292  0.2921  0.3860 -0.0382
  243CLA    CLA24943   3.461   1.547   9.243 -0.0753  0.4069  0.0082
  244CLA    CLA24944   0.561   0.405   8.043 -0.1524  0.1236 -0.4088
  245CLA    CLA24945   5.513   7.054   8.414 -0.1074  0.2482 -0.2923
  246CLA    CLA24946   6.337   7.319   9.310  0.2273 -0.0605 -0.1261
  247CLA    CLA24947   2.079   2.222   9.345  0.0756 -0.1867  0.1171
  248CLA    CLA24948   2.689   6.358   9.228  0.0742  0.1317  0.0718
  249CLA    CLA24949   3.425   1.481   1.756 -0.1950 -0.2408  0.1247
  250CLA    CLA24950   1.931   3.868   8.404  0.0769 -0.3694 -0.1328
  251CLA    CLA24951   7.295   6.553   7.650 -0.2134  0.0366 -0.1203
  252CLA    CLA24952   2.663   2.642   9.487  0.0088  0.5006  0.3824
  253TIP3   OH224953   2.760   4.443   0.314  0.2006  0.1708  0.1004
  253TIP3    H124954   2.764   4.389   0.235  0.6020  0.8320 -0.3480
  253TIP3    H224955   2.812   4.520   0.292 -0.4188  0.7728  0.6883
  254TIP3   OH224956   0.307   4.189   2.488  0.1670  0.2708 -0.2077
  254TIP3    H124957   0.221   4.150   2.470  0.8003 -1.4465  0.3106
  254TIP3    H224958   0.305   4.272   2.442 -1.2535 -0.3644 -1.3871
  255TIP3   OH224959   2.025   5.112   7.657  0.4106  0.2278  0.2576
  255TIP3    H124960   2.109   5.067   7.664  1.6773  2.0760 -1.8006
  255TIP3    H224961   1.967   5.063   7.715  1.8313 -3.5367 -1.1939
  256TIP3   OH224962   2.331   4.993   1.508  0.3111 -0.8235  0.2337
  256TIP3    H124963   2.287   4.919   1.550  0.0687 -0.6449  0.2980
  256TIP3    H224964   2.342   4.966   1.417 -0.7475 -0.5190  0.0004
  257TIP3   OH224965   5.960   5.374   8.688  0.0014 -0.3463  0.1431
  257TIP3    H124966   5.984   5.388   8.597 -0.2716 -2.5487 -0.3250
  257TIP3    H224967   5.888   5.435   8.704  0.8480  0.9416 -0.7011
  258TIP3   OH224968   5.779   0.147   0.182 -0.4343  0.6584  0.2105
  258TIP3    H124969   5.813   0.086   0.117 -0.0707  1.8786 -0.7859
  258TIP3    H224970   5.783   0.233   0.139  0.2837  1.5832  2.0193
  259TIP3   OH224971   1.177   7.515   2.029  0.0365  0.2391 -0.2049
  259TIP3    H124972   1.195   7.593   1.978 -0.6634  0.2026 -0.5243
  259TIP3    H224973   1.222   7.529   2.112  0.1572  0.8499 -0.3713
  260TIP3   OH224974   3.647   0.984   1.813  0.2658 -0.0079  0.6733
  260TIP3    H124975   3.731   0.979   1.859  0.6297  1.1299  0.1518
  260TIP3    H224976   3.588   1.024   1.877  0.5457  0.7428  0.4674
  261TIP3   OH224977   7.297   1.311   7.263 -0.3524  0.6292 -0.6442
  261TIP3    H124978   7.261   1.326   7.350  1.7567 -0.3196  0.4867
  261TIP3    H224979   7.388   1.342   7.269 -0.2623  0.9161 -2.6489
  262TIP3   OH224980   2.406   5.472   7.020  0.2830  0.2228 -0.1991
  262TIP3    H124981   2.360   5.440   6.943  2.0573  1.3371 -1.8089
  262TIP3    H224982   2.440   5.393   7.062 -1.7087 -0.4848  0.1729
  263TIP3   OH224983   7.471   3.551   9.661  0.7097  0.0722 -0.7686
  263TIP3    H124984   7.509   3.627   9.616  0.9974  0.5216  0.2043
  263TIP3    H224985   7.377   3.570   9.665  0.9078  0.9729  0.4951
  264TIP3   OH224986   0.822   4.765   0.095 -0.1043 -0.3086  0.0955
  264TIP3    H124987   0.805   4.690   0.038  1.3995 -1.8693  1.5918
  264TIP3    H224988   0.735   4.804   0.110 -0.7813 -1.1218 -1.5016
  265TIP3   OH224989   3.197   0.066   2.939 -0.3094 -0.3512  0.0862
  265TIP3    H124990   3.231   0.148   2.976  1.4066 -0.8510 -0.2718
  265TIP3    H224991   3.264   0.040   2.875 -0.7871 -2.0621  0.2364
  266TIP3   OH224992   5.447   6.007   9.844  0.0919 -0.0873  0.0221
  266TIP3    H124993   5.376   6.009   9.780 -1.5628 -0.8798  1.7341
  266TIP3    H224994   5.446   5.918   9.879  2.9369 -0.5993 -0.8968
  267TIP3   OH224995   0.189   4.372   0.810  0.2804  0.7729  0.3905
  267TIP3    H124996   0.122   4.314   0.775  0.0171  0.7108  0.9886
  267TIP3    H224997   0.272   4.334   0.779  0.0196  1.4220 -1.2017
  268TIP3   OH224998   5.467   1.524   7.777 -0.1898 -0.2104 -0.0229
  268TIP3    H124999   5.438   1.614   7.792  1.1413  0.2951 -0.2897
  268TIP3    H225000   5.563   1.529   7.780 -0.0963 -1.9304  1.6644
  269TIP3   OH225001   2.814   6.131   8.964 -0.3172 -0.4117 -0.6059
  269TIP3    H125002   2.737   6.082   8.932 -1.2373  1.8333 -2.0858
  269TIP3    H225003   2.883   6.110   8.901 -0.9763  0.8354 -1.7959
  270TIP3   OH225004   7.279   1.737   8.835  0.0807  0.5863 -0.2247
  270TIP3    H125005   7.218   1.678   8.879  0.3715 -1.0226 -1.8726
  270TIP3    H225006   7.241   1.824   8.847 -1.1552 -0.0803  0.9839
  271TIP3   OH225007   6.471   6.851   9.559 -0.2259  0.7870  0.0516
  271TIP3    H125008   6.404   6.793   9.595  1.5246 -1.4675 -0.0641
  271TIP3    H225009   6.426   6.934   9.545 -2.4050  0.0371  1.9935
  272TIP3   OH225010   4.191   3.479   0.541  0.4277  0.0262  0.0134
  272TIP3    H125011   4.266   3.459   0.597  1.7230 -0.5825 -1.8223
  272TIP3    H225012   4.120   3.498   0.602  1.9606  0.2486  1.8357
  273TIP3   OH225013   4.619   2.412   0.696 -0.4192  0.0881 -0.3526
  273TIP3    H125014   4.625   2.370   0.781 -0.7405 -2.7827 -1.6289
  273TIP3    H225015   4.525   2.411   0.675 -0.5850  2.5850  0.0445
  274TIP3   OH225016   2.146   5.859   8.514 -0.0557 -0.5047  0.0556
  274TIP3    H125017   2.129   5.781   8.461 -2.8779 -0.0955  0.2089
  274TIP3    H225018   2.223   5.837   8.566  0.4459 -2.3760 -1.3918
  275TIP3   OH225019   3.769   6.885   8.317 -0.3680  0.3921  0.2380
  275TIP3    H125020   3.683   6.843   8.317 -0.1507 -0.0559 -0.3247
  275TIP3    H225021   3.775   6.928   8.403 -0.3481 -1.2242  1.0848
  276TIP3   OH225022   5.634   2.379   7.506 -0.5691  0.5170  0.2918
  276TIP3    H125023   5.542   2.375   7.480 -0.4066  1.1014 -0.4003
  276TIP3    H225024   5.669   2.456   7.461  0.5427 -0.3375 -0.3822
  277TIP3   OH225025   3.053   1.255   2.749  0.4499 -0.8105  0.0966
  277TIP3    H125026   3.111   1.255   2.825  0.8390  0.0276 -0.1958
  277TIP3    H225027   3.028   1.163   2.739  1.0206 -1.0487  0.7549
  278TIP3   OH225028   7.561   6.066   7.647 -0.4139 -0.4085  0.0777
  278TIP3    H125029   7.539   6.099   7.735  0.4304  0.8452 -0.1579
  278TIP3    H225030   7.654   6.082   7.637 -0.4005 -0.9733 -0.8856
  279TIP3   OH225031   1.760   4.433   3.015  0.5757 -0.4181  0.7863
  279TIP3    H125032   1.856   4.436   3.022  0.6481 -2.4553  1.3590
  279TIP3    H225033   1.730   4.427   3.106 -0.1875  1.0055  0.6673
  280TIP3   OH225034   4.504   0.644   1.893  0.1715 -0.3226 -0.7091
  280TIP3    H125035   4.578   0.666   1.837  0.0311  1.2560 -0.3038
  280TIP3    H225036   4.517   0.695   1.973 -2.0227  1.1073 -1.1516
  281TIP3   OH225037   6.575   4.948   9.780  0.0616 -0.2835 -0.1980
  281TIP3    H125038   6.588   4.860   9.744 -2.7114 -0.8761  0.0355
  281TIP3    H225039   6.563   4.934   9.874  0.4737  0.4626 -0.0241
  282TIP3   OH225040   1.444   0.575   8.874 -0.1117 -0.0529  0.3216
  282TIP3    H125041   1.397   0.648   8.914  0.1993  0.0848  0.4376
  282TIP3    H225042   1.448   0.508   8.942 -1.1753 -0.5391 -0.0624
  283TIP3   OH225043   3.708   1.318   7.360  0.2142  0.1084  0.0859
  283TIP3    H125044   3.716   1.322   7.456  1.1024  0.3824  0.0040
  283TIP3    H225045   3.685   1.227   7.342  1.4034 -0.2769  0.4696
  284TIP3   OH225046   6.526   7.628   1.810  0.2261 -0.3191  0.5336
  284TIP3    H125047   6.442   7.656   1.774  0.5842 -0.8150 -0.7182
  284TIP3    H225048   6.511   7.537   1.839  0.6227 -0.8292 -0.7846
  285TIP3   OH225049   2.700   0.354   6.717  0.0764  0.2070  0.1540
  285TIP3    H125050   2.629   0.383   6.773 -0.1876  0.1851 -0.1650
  285TIP3    H225051   2.780   0.384   6.760 -0.0679 -0.5926  1.0137
  286TIP3   OH225052   0.337   5.583   1.348  0.4247 -0.2199 -0.0612
  286TIP3    H125053   0.285   5.660   1.373  0.7876 -0.6471  2.2328
  286TIP3    H225054   0.275   5.525   1.305 -0.5484  0.1250  0.8362
  287TIP3   OH225055   2.857   6.620   9.283 -0.1005 -0.0144  0.5383
  287TIP3    H125056   2.809   6.540   9.304  0.8523 -0.1354  2.4386
  287TIP3    H225057   2.906   6.640   9.362  0.9948  1.5300 -0.4794
  288TIP3   OH225058   3.388   1.181   0.662 -0.0585  0.9520  0.0926
  288TIP3    H125059   3.471   1.134   0.660 -0.4698  0.1364 -2.8574
  288TIP3    H225060   3.412   1.273   0.655  0.5993  0.7972  0.2100
  289TIP3   OH225061   0.906   2.498   1.155  0.0146  0.1357  0.0944
  289TIP3    H125062   0.947   2.562   1.213 -1.2951  0.0148  1.1928
  289TIP3    H225063   0.833   2.546   1.115  0.8510  0.2027 -1.4463
  290TIP3   OH225064   2.753   4.170   8.167 -0.1116  0.5334 -0.1511
  290TIP3    H125065   2.770   4.172   8.261 -0.2394 -1.8230 -0.0090
  290TIP3    H225066   2.676   4.113   8.158  0.3181  0.1615 -1.7334
  291TIP3   OH225067   1.028   6.540   1.249 -0.0835 -0.3898  0.4556
  291TIP3    H125068   1.119   6.535   1.279  0.4750  1.1733 -0.8364
  291TIP3    H225069   0.976   6.539   1.329  0.9230 -2.9554  1.1954
  292TIP3   OH225070   4.462   2.715   0.772  0.6969  0.1086 -0.4029
  292TIP3    H125071   4.436   2.627   0.746 -0.2247  0.3069 -0.1838
  292TIP3    H225072   4.382   2.767   0.765  1.3981  1.1152 -1.2853
  293TIP3   OH225073   0.977   6.066   0.463 -0.3272 -0.4133  0.2416
  293TIP3    H125074   1.039   6.139   0.463 -1.1702  0.3355 -0.2592
  293TIP3    H225075   1.017   6.000   0.519  1.6342 -0.5750 -1.2207
  294TIP3   OH225076   2.825   7.456   8.136 -0.3487 -0.0435 -0.3272
  294TIP3    H125077   2.849   7.378   8.086  0.8036  0.0031  0.1194
  294TIP3    H225078   2.787   7.516   8.072 -0.5835 -0.6921 -0.8009
  295TIP3   OH225079   0.953   5.927   7.085  0.2956 -0.0937 -0.1431
  295TIP3    H125080   0.987   5.981   7.156 -0.3473  0.8873 -0.5736
  295TIP3    H225081   0.962   5.981   7.007 -0.5083 -0.5445 -0.5588
  296TIP3   OH225082   1.832   3.839   7.233  0.1925  0.3458  0.5870
  296TIP3    H125083   1.814   3.895   7.308  1.1130 -0.4866  1.4537
  296TIP3    H225084   1.836   3.750   7.269  0.6907 -0.0671 -0.4337
  297TIP3   OH225085   2.481   0.000   1.548 -0.5412  0.0731 -0.0508
  297TIP3    H125086   2.453   0.078   1.499 -2.7638  0.3147  1.4397
  297TIP3    H225087   2.501  -0.064   1.481  1.1382  1.8226 -1.3276
  298TIP3   OH225088   5.322   2.331   9.401  0.2503 -0.2377  1.0756
  298TIP3    H125089   5.395   2.390   9.421  0.0190  0.1436  0.8184
  298TIP3    H225090   5.363   2.255   9.360  0.5738 -0.3456  1.5976
  299TIP3   OH225091   0.752   0.343   2.164 -0.1163 -0.2641 -0.3981
  299TIP3    H125092   0.755   0.258   2.118 -0.3826 -1.2815  1.3803
  299TIP3    H225093   0.680   0.333   2.227  1.6228  0.2330  1.7812
  300TIP3   OH225094   2.118   6.999   7.609  0.3191  0.2518 -0.1034
  300TIP3    H125095   2.171   7.077   7.627 -1.2488  1.4825 -0.5261
  300TIP3    H225096   2.038   7.012   7.660 -0.1268 -0.9179 -0.4643
  301TIP3   OH225097   7.150   6.288   0.996  0.1647 -0.3211 -0.2317
  301TIP3    H125098   7.236   6.326   1.014 -0.2496  1.0789 -1.0423
  301TIP3    H225099   7.131   6.234   1.073  2.5924 -2.2860 -0.8494
  302TIP3   OH225100   1.410   6.249   8.971  0.2804  0.1052  0.5780
  302TIP3    H125101   1.328   6.284   9.004  0.9475  1.8889  0.4321
  302TIP3    H225102   1.467   6.244   9.047  0.3065 -0.3456  0.5320
  303TIP3   OH225103   3.235   1.646   2.135 -0.1106  0.3394  0.2793
  303TIP3    H125104   3.219   1.698   2.213 -0.3656  0.6478  0.0260
  303TIP3    H225105   3.200   1.560   2.155  0.4078  0.2302  0.7398
  304TIP3   OH225106   7.476   6.213   0.763  0.2990  0.3321 -0.0008
  304TIP3    H125107   7.538   6.197   0.835 -0.2480  1.4819  0.7555
  304TIP3    H225108   7.530   6.212   0.684  0.9955 -0.4242  0.4716
  305TIP3   OH225109   3.800   7.278   9.210  0.4489 -0.6051  0.1652
  305TIP3    H125110   3.740   7.219   9.164 -0.7097  1.7364 -1.4805
  305TIP3    H225111   3.837   7.333   9.142  0.1276  1.7697  1.8002
  306TIP3   OH225112   5.916   5.811   8.599  0.1051  0.5692  0.2398
  306TIP3    H125113   6.005   5.844   8.607 -0.2462  1.5298  0.3063
  306TIP3    H225114   5.898   5.813   8.505 -0.1047  1.0844  0.2895
  307TIP3   OH225115   6.239   0.773   1.896 -0.2911 -0.1787  0.3017
  307TIP3    H125116   6.259   0.692   1.848 -0.6912  0.1101 -0.3593
  307TIP3    H225117   6.289   0.764   1.977  1.8537  0.0965 -0.8860
  308TIP3   OH225118   0.876   1.619   7.746  0.8667 -0.1434  0.6705
  308TIP3    H125119   0.891   1.531   7.782 -2.6843 -1.2497 -0.1755
  308TIP3    H225120   0.860   1.603   7.653  0.1796  1.4121  0.5025
  309TIP3   OH225121   2.262   7.124   1.067 -0.3595  0.5166  0.0334
  309TIP3    H125122   2.171   7.153   1.058 -0.8199 -0.2910  1.5901
  309TIP3    H225123   2.256   7.040   1.114  1.1587  0.1257 -0.3955
  310TIP3   OH225124   5.836   7.251   0.349  0.0370 -0.2892 -0.2030
  310TIP3    H125125   5.762   7.267   0.292 -0.1514 -0.4330 -0.0003
  310TIP3    H225126   5.801   7.261   0.438 -0.0386 -1.5750 -0.0720
  311TIP3   OH225127   2.972   5.618   2.976  0.9235  0.2204  0.1803
  311TIP3    H125128   3.030   5.549   3.007 -0.4808 -3.1855 -3.8178
  311TIP3    H225129   3.021   5.699   2.991  2.7005 -1.4201  5.1303
  312TIP3   OH225130   3.602   6.196   1.285 -0.2085  0.2992  0.2348
  312TIP3    H125131   3.559   6.158   1.208  1.4659  0.6757 -0.9349
  312TIP3    H225132   3.598   6.127   1.352 -2.3215  0.2241  0.0977
  313TIP3   OH225133   1.196   1.781   8.379  0.0303 -0.2367 -0.2328
  313TIP3    H125134   1.206   1.738   8.464  0.7375  0.1497 -0.1127
  313TIP3    H225135   1.284   1.812   8.358 -0.3987  0.8380 -0.4907
  314TIP3   OH225136   5.302   0.636   1.647 -0.2148 -0.2322 -0.0220
  314TIP3    H125137   5.363   0.699   1.685 -1.2225  0.0329  1.2210
  314TIP3    H225138   5.223   0.687   1.629 -1.2519 -1.1924  1.5210
  315TIP3   OH225139   4.498   0.114   6.599  0.2862 -0.6594  0.1637
  315TIP3    H125140   4.435   0.044   6.616 -0.8001  0.1723 -0.2722
  315TIP3    H225141   4.572   0.095   6.657 -1.0853 -0.7490  1.9733
  316TIP3   OH225142   3.011   3.061   9.230 -0.0969 -0.0560  0.1735
  316TIP3    H125143   3.053   2.977   9.248  0.9496  0.1514 -1.1363
  316TIP3    H225144   2.967   3.049   9.147  0.4287  0.7934 -0.2488
  317TIP3   OH225145   5.576   0.117   1.922 -0.1145 -0.1369 -0.5612
  317TIP3    H125146   5.608   0.202   1.954  0.0006  0.1056 -1.3019
  317TIP3    H225147   5.539   0.136   1.836  1.7696 -1.1766 -1.6698
  318TIP3   OH225148   5.155   1.848   8.248 -0.5423 -0.2682 -0.2474
  318TIP3    H125149   5.145   1.943   8.258  1.9207 -0.0637  0.7219
  318TIP3    H225150   5.220   1.823   8.312 -0.4673 -2.5133 -1.1025
  319TIP3   OH225151   6.607   2.821   0.320 -0.0697 -0.6301 -0.0185
  319TIP3    H125152   6.631   2.738   0.280 -0.1390 -0.7564  0.2020
  319TIP3    H225153   6.515   2.810   0.346  0.1354 -0.7451  0.6716
  320TIP3   OH225154   2.033   6.288   2.277  0.1857  0.5713  0.2495
  320TIP3    H125155   2.027   6.310   2.370  1.2410  0.3108  0.3904
  320TIP3    H225156   2.127   6.284   2.260  0.0414 -1.6363 -0.2854
  321TIP3   OH225157   1.067   1.753   8.678  0.3486 -0.0739  0.5504
  321TIP3    H125158   1.014   1.805   8.739  0.9421  0.3991  0.6739
  321TIP3    H225159   1.005   1.726   8.610 -0.0133  0.6446  0.5799
  322TIP3   OH225160   3.982   7.442   2.610  0.2872  0.1464  0.7704
  322TIP3    H125161   4.048   7.511   2.617  1.0671 -0.1901 -2.0446
  322TIP3    H225162   4.019   7.379   2.549 -2.7703  0.1717 -1.3744
  323TIP3   OH225163   6.454   1.832   1.413  0.5716  0.5911  0.4773
  323TIP3    H125164   6.500   1.850   1.495 -0.1784 -3.1170  1.9232
  323TIP3    H225165   6.511   1.771   1.366 -0.4621  0.1244 -0.2211
  324TIP3   OH225166   5.623   5.843   8.646 -0.5427 -0.1075 -0.0165
  324TIP3    H125167   5.604   5.935   8.628  1.5833  0.8415  1.9775
  324TIP3    H225168   5.711   5.830   8.609  0.3683 -0.4533  2.1315
  325TIP3   OH225169   5.949   7.113   9.744  0.0536  0.5802 -0.0610
  325TIP3    H125170   5.962   7.205   9.722  0.2491  0.8194  1.0072
  325TIP3    H225171   5.947   7.111   9.840  5.9929 -1.2149  0.4408
  326TIP3   OH225172   4.298   7.517   0.833 -0.0441  0.0225 -0.5708
  326TIP3    H125173   4.251   7.438   0.862 -1.0428  0.5383 -0.7373
  326TIP3    H225174   4.311   7.568   0.913  1.7822 -0.8809 -0.2390
  327TIP3   OH225175   7.124   6.603   1.653 -0.1068 -0.4100  0.4880
  327TIP3    H125176   7.098   6.694   1.665  1.2089  0.4638 -2.2798
  327TIP3    H225177   7.057   6.552   1.698 -0.7950  1.8956  2.2706
  328TIP3   OH225178   5.416   7.342   3.039 -0.1606  0.1992 -0.0335
  328TIP3    H125179   5.498   7.339   2.990 -0.4253 -3.4690 -0.5071
  328TIP3    H225180   5.348   7.336   2.972 -0.6502 -0.9049  0.5374
  329TIP3   OH225181   6.349   5.773   8.082 -0.1730 -0.2419 -0.4663
  329TIP3    H125182   6.435   5.811   8.099  1.0320 -1.9382 -2.2682
  329TIP3    H225183   6.292   5.848   8.068  1.1954  0.9232  0.0215
  330TIP3   OH225184   5.937   7.617   0.618 -0.3718 -0.2170  0.1061
  330TIP3    H125185   5.861   7.559   0.626 -0.4943 -0.0967 -0.1552
  330TIP3    H225186   5.922   7.685   0.684 -0.0123 -0.7196  0.7040
  331TIP3   OH225187   3.840   6.506   0.745  0.0519 -0.0136 -0.5231
  331TIP3    H125188   3.764   6.449   0.732  0.4849 -1.1025  1.3104
  331TIP3    H225189   3.847   6.514   0.840  1.8668  0.5721 -0.6720
  332TIP3   OH225190   7.574   6.202   1.740  0.0977 -0.3815  1.0184
  332TIP3    H125191   7.656   6.229   1.782  0.2149 -1.4569  1.5334
  332TIP3    H225192   7.507   6.217   1.807  0.1967 -1.5075  1.4015
  333TIP3   OH225193   6.478   5.860   6.972 -0.4627 -0.1108 -0.4067
  333TIP3    H125194   6.454   5.950   6.992 -0.7818  0.4055 -2.7340
  333TIP3    H225195   6.561   5.867   6.925  0.9743 -1.3264  1.8017
  334TIP3   OH225196   4.465   7.322   8.706 -0.1870  0.7788 -0.3154
  334TIP3    H125197   4.379   7.283   8.693 -0.0751  0.2764  0.3839
  334TIP3    H225198   4.470   7.338   8.800  0.9397 -0.3285 -0.1503
  335TIP3   OH225199   3.814   3.349   7.279  0.6077  0.1060  0.0165
  335TIP3    H125200   3.906   3.368   7.296  0.9215  1.0220 -2.2910
  335TIP3    H225201   3.798   3.385   7.192 -1.8460 -0.3895  0.1871
  336TIP3   OH225202   4.758   0.203   7.215 -0.4366  0.1347 -0.3651
  336TIP3    H125203   4.840   0.164   7.245 -1.5810 -1.0941  1.3432
  336TIP3    H225204   4.706   0.129   7.182 -1.8278  0.4539  0.9820
  337TIP3   OH225205   4.901   6.370   9.679 -0.1003 -0.0031 -0.2403
  337TIP3    H125206   4.978   6.372   9.623  0.6190  0.2903  0.7345
  337TIP3    H225207   4.868   6.280   9.670  1.4086 -0.6874  0.7052
  338TIP3   OH225208   4.817   1.912   0.072  0.1684  0.1785 -0.0152
  338TIP3    H125209   4.744   1.886   0.128 -0.2983 -0.2890 -0.8123
  338TIP3    H225210   4.792   1.999   0.039 -1.0000 -0.7663 -1.8161
  339TIP3   OH225211   1.567   4.326   9.239  0.6604 -0.0034  0.0987
  339TIP3    H125212   1.533   4.379   9.312 -3.3632 -1.2443 -0.6191
  339TIP3    H225213   1.621   4.260   9.281  1.2353  1.3176  1.5608
  340TIP3   OH225214   2.811   2.272   9.026  0.5769  0.1588  0.2232
  340TIP3    H125215   2.875   2.204   9.047  0.1049 -0.7872 -1.2716
  340TIP3    H225216   2.820   2.336   9.097  2.0201 -0.7540  0.9087
  341TIP3   OH225217   3.712   3.448   7.851  0.6710  0.5282  0.7222
  341TIP3    H125218   3.790   3.430   7.799  0.3408  0.2723  0.3043
  341TIP3    H225219   3.702   3.543   7.847 -0.7824  0.3700 -1.8716
  342TIP3   OH225220   3.840   2.532   1.313  0.1613 -0.4627  0.3048
  342TIP3    H125221   3.859   2.445   1.277 -0.4093  0.1897 -1.7141
  342TIP3    H225222   3.907   2.588   1.275 -1.8871  0.6995 -1.8499
  343TIP3   OH225223   0.281   5.789   8.720 -1.0135 -0.5498  1.0245
  343TIP3    H125224   0.273   5.739   8.801  2.1627 -2.2276  0.4524
  343TIP3    H225225   0.311   5.726   8.655 -3.9530  0.6100 -1.7349
  344TIP3   OH225226   2.054   0.541   0.694  0.2516  0.1497  0.1054
  344TIP3    H125227   2.123   0.479   0.717  0.4509  0.2427 -0.2248
  344TIP3    H225228   2.048   0.535   0.598  0.0046  0.3552  0.1076
  345TIP3   OH225229   2.344   2.425   0.930 -0.1140 -0.6921 -0.5367
  345TIP3    H125230   2.309   2.392   0.847 -0.9061  0.1577 -0.5625
  345TIP3    H225231   2.435   2.446   0.910 -0.3180 -0.4088 -1.2340
  346TIP3   OH225232   6.284   6.760   1.275  0.4477  0.1475  0.1977
  346TIP3    H125233   6.193   6.734   1.289  0.4839 -0.3093 -0.3608
  346TIP3    H225234   6.336   6.695   1.322  0.5221 -0.5004 -0.7517
  347TIP3   OH225235   0.084   6.648   2.489 -0.3087  0.3546  0.1183
  347TIP3    H125236   0.046   6.643   2.577 -0.1257 -0.3770  0.1592
  347TIP3    H225237   0.150   6.717   2.495 -0.7634  0.7806  0.3699
  348TIP3   OH225238   1.532   0.114   1.285  0.3061 -0.4067 -0.0524
  348TIP3    H125239   1.462   0.053   1.308  0.2849  0.1161  1.3834
  348TIP3    H225240   1.500   0.159   1.207 -0.8780 -0.3391  0.4421
  349TIP3   OH225241   0.586   1.163   3.309  0.2071  0.2054  0.4787
  349TIP3    H125242   0.523   1.165   3.237  0.0795  0.0750  0.5856
  349TIP3    H225243   0.672   1.165   3.266  0.1326  1.1437  0.3540
  350TIP3   OH225244   5.950   2.452   0.350  0.1706  0.9933  0.0366
  350TIP3    H125245   6.013   2.516   0.317 -0.6736  2.6045  1.4091
  350TIP3    H225246   5.996   2.406   0.419  0.7241  0.1943 -0.8367
  351TIP3   OH225247   1.116   1.270   9.616 -0.0010  0.3046  0.0270
  351TIP3    H125248   1.080   1.182   9.604  0.5740 -0.2562  1.9584
  351TIP3    H225249   1.049   1.328   9.579 -0.3079 -0.9252 -1.4551
  352TIP3   OH225250   6.848   7.481   2.542 -0.6240  0.1813 -0.6856
  352TIP3    H125251   6.939   7.500   2.565 -0.0531 -3.2432  0.5239
  352TIP3    H225252   6.798   7.498   2.621 -0.7875  0.5408 -0.8635
  353TIP3   OH225253   2.067   1.155   2.599  0.1008  0.2444  0.0650
  353TIP3    H125254   2.103   1.217   2.663 -0.0878 -0.5751  0.9865
  353TIP3    H225255   1.994   1.114   2.645  1.1636 -1.7734  0.0557
  354TIP3   OH225256   2.647   1.611   9.510  0.1733  0.3633  0.3061
  354TIP3    H125257   2.651   1.629   9.604 -1.1126 -0.0289  0.4524
  354TIP3    H225258   2.632   1.517   9.505  0.5620  0.3329 -0.3067
  355TIP3   OH225259   0.331   3.748   7.895 -0.2171 -0.4169  0.7744
  355TIP3    H125260   0.379   3.714   7.819 -2.4731  0.0970 -0.9740
  355TIP3    H225261   0.361   3.838   7.904  1.2147 -0.9335  1.5420
  356TIP3   OH225262   2.054   1.000   9.010  0.2618  0.6297  0.7009
  356TIP3    H125263   1.973   0.975   9.053 -0.4817 -0.7190 -1.3053
  356TIP3    H225264   2.037   1.086   8.972  0.3324  1.0420  1.5812
  357TIP3   OH225265   6.448   0.431   2.033  0.2753  0.8510  0.0515
  357TIP3    H125266   6.430   0.439   2.127  0.9566  0.8971  0.1803
  357TIP3    H225267   6.470   0.339   2.022 -0.4603  0.6964 -0.1850
  358TIP3   OH225268   4.270   1.568   2.293 -0.3920  0.0315  0.5315
  358TIP3    H125269   4.333   1.546   2.362 -0.6018  1.7287  1.3120
  358TIP3    H225270   4.207   1.626   2.336 -2.4415 -1.5114 -0.2676
  359TIP3   OH225271   3.322   6.066   1.443  0.0630 -0.3140 -0.0382
  359TIP3    H125272   3.317   5.976   1.410  0.7268 -0.6065  0.6293
  359TIP3    H225273   3.410   6.074   1.479 -0.0997  0.5049  0.2117
  360TIP3   OH225274   7.583   4.815   7.167  0.0910 -0.4109  0.2503
  360TIP3    H125275   7.571   4.726   7.133  3.2125 -1.0103  0.4690
  360TIP3    H225276   7.529   4.817   7.246 -0.0362 -2.1302  0.2614
  361TIP3   OH225277   4.702   2.870   8.208  0.2177 -0.1856  0.1778
  361TIP3    H125278   4.711   2.906   8.120  0.5544 -1.0016 -0.1351
  361TIP3    H225279   4.608   2.857   8.220  0.0934  0.7520  0.2897
  362TIP3   OH225280   6.925   1.555   9.405 -0.2513 -0.5328  0.1411
  362TIP3    H125281   6.902   1.648   9.406  2.1183  0.1359 -0.0995
  362TIP3    H225282   7.008   1.551   9.356 -0.1132 -2.7324  0.4345
  363TIP3   OH225283   0.081   4.238   8.638 -0.0507 -0.0616  0.4258
  363TIP3    H125284   0.097   4.331   8.652 -2.1529  0.1596  1.6923
  363TIP3    H225285   0.076   4.228   8.543 -0.4507  1.2395  0.2906
  364TIP3   OH225286   1.002   4.220   1.512 -0.3944  0.5838  0.1195
  364TIP3    H125287   0.988   4.177   1.596 -1.7671 -0.4459 -0.5854
  364TIP3    H225288   0.925   4.275   1.499  0.6511  2.1707  0.3271
  365TIP3   OH225289   6.395   3.806   9.582  0.1372 -0.3933 -0.0619
  365TIP3    H125290   6.334   3.773   9.648 -0.3183  0.1223 -0.2150
  365TIP3    H225291   6.477   3.819   9.629 -0.0832 -0.3684  0.3177
  366TIP3   OH225292   2.644   6.619   8.147 -0.2936 -0.0113 -0.3321
  366TIP3    H125293   2.696   6.604   8.226 -0.7364 -1.6476 -0.3103
  366TIP3    H225294   2.595   6.699   8.166  1.4649  1.0297  0.0173
  367TIP3   OH225295   1.291   6.601   6.812 -0.1283 -0.2210  0.0898
  367TIP3    H125296   1.277   6.571   6.722 -1.2905  0.2565  0.0942
  367TIP3    H225297   1.221   6.559   6.862 -1.6572  2.1801  0.1473
  368TIP3   OH225298   6.458   4.673   8.949  0.5822  0.3247  0.0593
  368TIP3    H125299   6.525   4.629   8.896  0.9889 -1.1348  1.6977
  368TIP3    H225300   6.485   4.764   8.951  1.2907  0.1605 -1.1252
  369TIP3   OH225301   2.052   0.034   8.481  0.3397 -0.3091 -0.1984
  369TIP3    H125302   2.066   0.128   8.471 -0.8706 -0.3136 -2.4351
  369TIP3    H225303   2.120   0.006   8.543  1.6180  1.7864 -0.5627
  370TIP3   OH225304   4.802   3.481   0.373 -0.1548  0.2737 -0.1885
  370TIP3    H125305   4.753   3.519   0.299  0.4563  0.7277 -0.3705
  370TIP3    H225306   4.748   3.500   0.450 -0.9658 -0.4974 -0.5481
  371TIP3   OH225307   4.089   6.131   1.562 -0.0694  0.4309  0.6683
  371TIP3    H125308   4.093   6.201   1.628  2.1124  0.5499  0.4898
  371TIP3    H225309   4.144   6.061   1.598  0.9101  0.3688 -0.8623
  372TIP3   OH225310   1.945   7.656   8.896 -0.0453 -0.3570 -0.2114
  372TIP3    H125311   1.854   7.687   8.900  0.6356  1.6241  1.5456
  372TIP3    H225312   1.952   7.594   8.968  0.6036  1.4776  1.3915
  373TIP3   OH225313   6.022   2.200   3.008  0.7025 -0.0183 -0.0964
  373TIP3    H125314   6.092   2.151   2.965  0.0116 -2.4702  1.3299
  373TIP3    H225315   6.048   2.202   3.101 -0.2374  0.6724  0.1719
  374TIP3   OH225316   2.734   4.764   7.750 -0.5692  0.0830 -0.3642
  374TIP3    H125317   2.806   4.815   7.713 -0.3132  0.2110  0.3030
  374TIP3    H225318   2.760   4.749   7.841 -0.8510 -0.8526 -0.4336
  375TIP3   OH225319   2.444   4.581   1.656 -0.1014  0.3927  0.3929
  375TIP3    H125320   2.429   4.494   1.621  1.7451 -0.5387  1.7079
  375TIP3    H225321   2.521   4.613   1.610  0.5075  0.4105  1.3814
  376TIP3   OH225322   6.578   2.270   9.822  0.4389  0.0787 -0.2816
  376TIP3    H125323   6.605   2.260   9.731  0.9362  0.1410 -0.1406
  376TIP3    H225324   6.631   2.341   9.856  0.4154 -0.0942  0.1235
  377TIP3   OH225325   2.725   4.814   8.060 -0.3166 -0.2672  0.3823
  377TIP3    H125326   2.710   4.907   8.047  0.9301 -0.2588 -1.5142
  377TIP3    H225327   2.774   4.808   8.141 -0.3334  0.7321  0.4757
  378TIP3   OH225328   2.413   7.089   0.395  0.2693 -0.0632 -0.1936
  378TIP3    H125329   2.469   7.120   0.466  0.9174 -0.5548 -0.4775
  378TIP3    H225330   2.465   7.021   0.351 -1.1752 -1.7613  0.5717
  379TIP3   OH225331   5.960   6.277   0.704 -0.2288 -0.3161 -0.7246
  379TIP3    H125332   5.906   6.290   0.625 -0.7282 -2.4210 -0.7806
  379TIP3    H225333   6.035   6.227   0.673  1.2076  1.5367 -0.4029
  380TIP3   OH225334   0.075   7.137   0.232 -0.2970  0.0656  0.1529
  380TIP3    H125335   0.144   7.071   0.221 -0.2434  0.2303 -0.5758
  380TIP3    H225336   0.061   7.171   0.144 -0.7636  0.5901  0.4256
  381TIP3   OH225337   1.330   5.585   1.917  0.7066 -0.2586  0.2106
  381TIP3    H125338   1.366   5.664   1.957  2.1731  0.0991 -1.6716
  381TIP3    H225339   1.249   5.614   1.876  0.4052 -0.1198  0.8840
  382TIP3   OH225340   4.299   6.353   1.420  0.3733  0.6306 -0.6520
  382TIP3    H125341   4.372   6.413   1.404  0.9836  1.8615  4.8466
  382TIP3    H225342   4.223   6.410   1.432  0.0369 -0.0201  0.4217
  383TIP3   OH225343   1.022   1.809   7.091  0.2090 -0.0843  0.0565
  383TIP3    H125344   1.034   1.777   7.181  0.5504  0.8378  0.3477
  383TIP3    H225345   0.934   1.781   7.067 -0.9537  1.9164  1.6570
  384TIP3   OH225346   3.718   1.444   1.448  0.4134 -0.2091  0.0630
  384TIP3    H125347   3.672   1.524   1.471 -1.1839 -1.3203  0.9321
  384TIP3    H225348   3.652   1.375   1.453  2.1927 -1.9680  1.7075
  385TIP3   OH225349   2.448   2.825   8.946  0.0579 -0.0993 -0.5739
  385TIP3    H125350   2.369   2.873   8.923  0.3149 -0.0075 -1.2802
  385TIP3    H225351   2.416   2.745   8.989 -0.3897  0.3059 -0.1419
  386TIP3   OH225352   4.759   6.901   2.232  0.1121 -0.1679  0.6938
  386TIP3    H125353   4.812   6.979   2.218  0.6566 -1.0110 -3.2873
  386TIP3    H225354   4.823   6.829   2.231 -0.7371 -0.9517 -0.7610
  387TIP3   OH225355   2.708   4.712   2.337 -0.5530 -0.4360 -0.0565
  387TIP3    H125356   2.787   4.721   2.390  0.0179 -0.1882 -0.9318
  387TIP3    H225357   2.640   4.688   2.400 -0.3578  1.8789  1.1372
  388TIP3   OH225358   0.942   7.159   1.291 -0.8374 -0.1994 -0.1613
  388TIP3    H125359   0.990   7.198   1.365 -0.4150  0.0448 -0.5565
  388TIP3    H225360   0.901   7.081   1.328 -1.5977  0.5500  0.6151
  389TIP3   OH225361   1.524   5.018   0.218 -0.6734  0.1102 -0.0142
  389TIP3    H125362   1.619   5.006   0.223 -0.6311  0.3931 -0.1469
  389TIP3    H225363   1.499   5.044   0.306 -0.7595 -0.9013  0.2686
  390TIP3   OH225364   0.415   3.066   9.960 -0.4421 -0.1366 -0.2802
  390TIP3    H125365   0.373   3.145   9.995  1.8519 -0.2106  3.0139
  390TIP3    H225366   0.364   2.994   9.995 -0.3874 -0.1856 -0.3022
  391TIP3   OH225367   5.377   7.548   8.758 -0.4775 -0.0143  0.5337
  391TIP3    H125368   5.358   7.470   8.811 -1.3675 -0.9951 -1.1425
  391TIP3    H225369   5.392   7.514   8.670 -1.2978  1.7401 -0.3288
  392TIP3   OH225370   2.326   1.068   9.283  0.0446  0.0999  0.5237
  392TIP3    H125371   2.402   1.123   9.298  0.4590 -0.3267  0.0119
  392TIP3    H225372   2.362   0.982   9.261 -0.5814 -0.1064  0.2863
  393TIP3   OH225373   4.890   0.775   0.654 -0.0844  0.2356  0.2290
  393TIP3    H125374   4.960   0.841   0.657 -0.2504  0.4426 -0.5102
  393TIP3    H225375   4.823   0.812   0.597  0.2299 -0.9702 -0.9752
  394TIP3   OH225376   0.138   0.259   9.092  0.5649  0.1242 -0.7485
  394TIP3    H125377   0.179   0.223   9.171 -2.5517  1.2338  1.5824
  394TIP3    H225378   0.160   0.352   9.094  0.2780  0.1996 -1.0723
  395TIP3   OH225379   3.149   1.366   7.709 -0.3898 -0.4366 -0.2698
  395TIP3    H125380   3.119   1.448   7.670 -0.0086  0.4758  1.2593
  395TIP3    H225381   3.192   1.319   7.638 -0.5952  0.7005 -1.1607
  396TIP3   OH225382   2.961   0.624   1.861  0.1525  0.2103 -0.0867
  396TIP3    H125383   2.993   0.619   1.771  1.6415 -0.6062  0.4495
  396TIP3    H225384   3.016   0.691   1.902  1.0785 -1.0401  0.7862
  397TIP3   OH225385   2.911   7.160   7.469  0.2362  0.4559  0.1390
  397TIP3    H125386   2.848   7.100   7.429 -2.2085  2.3393  0.9537
  397TIP3    H225387   2.915   7.135   7.561  0.5286  0.4659  0.1308
  398TIP3   OH225388   6.053   2.422   7.306 -0.0809  0.0257 -0.0258
  398TIP3    H125389   6.050   2.516   7.327  0.5964 -0.1251  0.7771
  398TIP3    H225390   6.146   2.400   7.311 -0.3655 -0.9909  1.1643
  399TIP3   OH225391   4.142   2.629   2.228  0.3247 -0.8472 -0.5384
  399TIP3    H125392   4.062   2.575   2.226  1.4508 -2.5623 -1.8182
  399TIP3    H225393   4.205   2.575   2.276  1.2283 -0.2862 -1.0731
  400TIP3   OH225394   7.017   6.894   0.881  0.2447 -0.3102  0.1479
  400TIP3    H125395   6.986   6.868   0.968  2.7316  1.2348  1.6114
  400TIP3    H225396   6.960   6.967   0.856  0.1267 -0.1440  0.8940
  401TIP3   OH225397   4.249   5.254   9.953  0.0942 -0.4536  0.1204
  401TIP3    H125398   4.304   5.332   9.961  0.1942 -0.4513 -0.5340
  401TIP3    H225399   4.281   5.210   9.874 -0.0840 -1.0612  0.3781
  402TIP3   OH225400   3.809   5.310   0.370  0.1968  0.0791  0.1011
  402TIP3    H125401   3.866   5.243   0.407 -0.6247  0.0799  1.4343
  402TIP3    H225402   3.844   5.393   0.403 -0.7144  0.0605  1.1615
  403TIP3   OH225403   1.997   1.827   2.810  0.0595 -0.6342 -0.0690
  403TIP3    H125404   1.996   1.732   2.803 -0.5959 -0.6336 -0.0556
  403TIP3    H225405   1.919   1.848   2.863 -0.2126 -0.0518 -0.6899
  404TIP3   OH225406   1.985   2.477   8.763  0.0363  0.1557  0.3677
  404TIP3    H125407   1.946   2.419   8.828 -0.1890  0.0707  0.1586
  404TIP3    H225408   1.914   2.536   8.737 -0.2278 -0.5951 -0.7004
  405TIP3   OH225409   1.480   5.930   8.481 -0.6669 -0.1469  0.3654
  405TIP3    H125410   1.425   6.007   8.491  1.1844  1.2930  0.0464
  405TIP3    H225411   1.553   5.945   8.541  1.3755 -0.0494 -1.9805
  406TIP3   OH225412   1.623   4.880   0.920  0.1652 -0.1550  0.2650
  406TIP3    H125413   1.616   4.925   1.005  0.1548  1.7725 -0.6994
  406TIP3    H225414   1.554   4.814   0.923  0.1182 -0.0832  1.7271
  407TIP3   OH225415   6.554   2.687   8.527  0.5121 -0.3056  0.1494
  407TIP3    H125416   6.586   2.605   8.565  0.5854  0.2945  1.4257
  407TIP3    H225417   6.474   2.661   8.480  0.0530 -0.9777  1.2682
  408TIP3   OH225418   4.125   1.273   1.329  0.2515 -0.6808 -0.0941
  408TIP3    H125419   4.131   1.243   1.238 -0.1361 -1.9194  0.2712
  408TIP3    H225420   4.072   1.206   1.372  0.9373 -0.4189  1.1795
  409TIP3   OH225421   6.222   3.806   7.504 -0.3062 -0.3617  0.1858
  409TIP3    H125422   6.211   3.900   7.512 -0.9671 -0.2851 -1.4331
  409TIP3    H225423   6.251   3.778   7.591  2.1416  1.6174  0.1090
  410TIP3   OH225424   1.071   5.329   9.411 -0.0931  0.6372 -0.3368
  410TIP3    H125425   0.980   5.329   9.441 -0.1428  0.2853 -0.4812
  410TIP3    H225426   1.067   5.288   9.325  0.2721  0.1727 -0.1299
  411TIP3   OH225427   7.532   0.815   8.751 -0.0371 -0.4306 -0.7740
  411TIP3    H125428   7.511   0.722   8.762  1.9862 -0.7944  0.6001
  411TIP3    H225429   7.567   0.820   8.662 -1.1543 -0.7492 -1.2499
  412TIP3   OH225430   7.660   0.329   2.402 -0.6022  0.1250 -0.1838
  412TIP3    H125431   7.693   0.419   2.410 -0.0160 -0.0824 -0.2660
  412TIP3    H225432   7.681   0.304   2.312  0.1661 -0.4594  0.1461
  413TIP3   OH225433   3.305   1.369   8.108 -0.2870  0.3281  0.1443
  413TIP3    H125434   3.244   1.390   8.179  0.8947 -1.6624  1.8718
  413TIP3    H225435   3.368   1.441   8.107 -2.4088  2.2981 -1.5159
  414TIP3   OH225436   5.549   1.169   7.007  0.6717  0.6873 -0.4610
  414TIP3    H125437   5.477   1.107   6.992 -0.5438  1.8365  0.3427
  414TIP3    H225438   5.585   1.187   6.920  0.1717 -0.1364 -0.8445
  415TIP3   OH225439   1.899   1.885   1.515 -0.1026 -0.3238 -0.0886
  415TIP3    H125440   1.974   1.938   1.487 -1.1046  1.4201  0.3845
  415TIP3    H225441   1.845   1.944   1.567 -1.3436 -1.8012  0.3977
  416TIP3   OH225442   2.525   1.106   7.640 -0.3787 -0.3329  0.3507
  416TIP3    H125443   2.512   1.031   7.697 -1.3138  0.6305  1.4723
  416TIP3    H225444   2.557   1.175   7.698  1.3444 -0.0990 -0.8201
  417TIP3   OH225445   2.858   1.762   7.890  0.2408  0.1156  0.0963
  417TIP3    H125446   2.818   1.703   7.954  0.7375  0.1302  0.4321
  417TIP3    H225447   2.806   1.750   7.810 -0.3403  0.0458  0.4795
  418TIP3   OH225448   3.008   5.288   1.147 -0.4733  0.1145 -0.0484
  418TIP3    H125449   2.945   5.355   1.172  0.1957  1.2957 -1.4265
  418TIP3    H225450   2.991   5.216   1.208 -0.5921  1.8538  2.1039
  419TIP3   OH225451   0.869   2.290   2.103  0.6024 -0.5763  0.3282
  419TIP3    H125452   0.881   2.195   2.100 -1.4688 -0.8904  0.7910
  419TIP3    H225453   0.901   2.315   2.190  1.5909 -0.7467  0.0319
  420TIP3   OH225454   0.140   2.257   8.172 -0.1293  0.3989 -0.7632
  420TIP3    H125455   0.152   2.310   8.251  0.8241 -0.0009 -0.6243
  420TIP3    H225456   0.045   2.243   8.167 -0.0963 -1.1808  1.4295
  421TIP3   OH225457   0.044   0.681   1.138  0.0621 -0.8546  0.4193
  421TIP3    H125458   0.035   0.760   1.192 -2.0595 -0.1907 -0.7827
  421TIP3    H225459  -0.012   0.616   1.180  0.4392 -1.1669  0.4434
  422TIP3   OH225460   4.848   0.408   0.849  0.6159 -0.1723  0.3321
  422TIP3    H125461   4.796   0.484   0.874 -0.9451 -1.4216  1.0498
  422TIP3    H225462   4.877   0.427   0.760 -0.4878  0.8605  0.1702
  423TIP3   OH225463   1.791   4.344   7.889  0.4643 -0.3925 -0.6621
  423TIP3    H125464   1.721   4.315   7.831 -0.4246 -0.5239  0.4268
  423TIP3    H225465   1.757   4.424   7.930  1.5922  0.4245 -1.2438
  424TIP3   OH225466   5.659   4.977   8.886 -0.1022  0.4849 -0.7157
  424TIP3    H125467   5.706   4.943   8.962  0.3784 -1.2052 -1.7172
  424TIP3    H225468   5.728   5.010   8.828 -0.3485  0.3758 -1.0745
  425TIP3   OH225469   4.652   2.556   8.061  0.4486 -0.9043  0.0470
  425TIP3    H125470   4.572   2.608   8.073 -0.0017 -1.9889  2.1604
  425TIP3    H225471   4.639   2.512   7.976 -0.2984  0.4240 -0.5520
  426TIP3   OH225472   1.361   7.425   1.604  0.1427 -0.0617 -0.2165
  426TIP3    H125473   1.329   7.371   1.532 -1.4699  1.9281 -1.0875
  426TIP3    H225474   1.323   7.385   1.683 -0.8947 -0.3200 -0.8288
  427TIP3   OH225475   6.982   2.887   0.242  0.1751 -0.0414  0.2629
  427TIP3    H125476   6.955   2.817   0.301 -0.3829  0.2467  0.3507
  427TIP3    H225477   6.924   2.878   0.166 -1.0142  1.3139  0.9581
  428TIP3   OH225478   6.165   0.474   9.931  0.2476 -0.5052  0.1469
  428TIP3    H125479   6.259   0.464   9.949  0.8978  0.0218 -2.5410
  428TIP3    H225480   6.147   0.566   9.948  0.8042 -0.0621 -1.4645
  429TIP3   OH225481   1.152   6.288   9.063 -0.0536 -0.3667  0.0494
  429TIP3    H125482   1.087   6.343   9.106 -1.2648  0.5123 -2.6910
  429TIP3    H225483   1.105   6.249   8.989  2.2692 -0.4745 -1.4651
  430TIP3   OH225484   4.410   6.035   8.596  0.2749  0.3319  0.2345
  430TIP3    H125485   4.499   6.069   8.586 -0.1524  1.9401  1.6095
  430TIP3    H225486   4.395   5.984   8.515  1.9616  1.0730 -0.5928
  431TIP3   OH225487   2.357   7.027   9.088 -0.5175 -0.2383  0.2738
  431TIP3    H125488   2.362   7.065   9.176 -1.0353  0.0403  0.1899
  431TIP3    H225489   2.350   6.933   9.103  1.2921 -0.3795  0.4722
  432TIP3   OH225490   1.107   2.216   0.717  0.0170  0.4352  0.2413
  432TIP3    H125491   1.110   2.122   0.701 -0.4953  0.7349 -1.8319
  432TIP3    H225492   1.185   2.251   0.673 -0.3094  1.0753  0.1534
  433TIP3   OH225493   0.837   5.446   7.954 -0.7073 -0.2521  0.1417
  433TIP3    H125494   0.783   5.402   8.019  0.1186 -0.2621  0.8224
  433TIP3    H225495   0.857   5.531   7.992  2.3399 -1.3695  1.3257
  434TIP3   OH225496   5.286   5.606   9.689  0.2392  0.2477 -0.2328
  434TIP3    H125497   5.256   5.517   9.667  2.0873 -1.1176  2.2081
  434TIP3    H225498   5.235   5.630   9.766  0.8726  0.5957  0.0858
  435TIP3   OH225499   5.513   6.763   2.533  0.1333  0.1008  0.1778
  435TIP3    H125500   5.445   6.755   2.600  0.1490  2.3207  0.5396
  435TIP3    H225501   5.469   6.803   2.458  0.5202 -0.7106 -0.4997
  436TIP3   OH225502   1.925   3.804   2.526  0.0773  0.1745 -0.2786
  436TIP3    H125503   1.945   3.795   2.619 -1.0903  2.5763  0.2983
  436TIP3    H225504   2.009   3.791   2.482  0.3456 -2.8100  0.8788
  437TIP3   OH225505   0.335   4.305   2.743 -0.1085  0.3284 -0.6627
  437TIP3    H125506   0.249   4.276   2.773  0.1984  1.1414  1.1152
  437TIP3    H225507   0.338   4.281   2.650 -2.1913  0.1847 -0.7233
  438TIP3   OH225508   2.943   0.349   1.636  0.4040 -0.0829 -0.6557
  438TIP3    H125509   3.006   0.421   1.632  0.9798 -0.5443 -0.1103
  438TIP3    H225510   2.985   0.283   1.690 -1.0094  0.0330  0.6598
  439TIP3   OH225511   4.420   0.890   8.012  0.1212 -0.2549  0.1131
  439TIP3    H125512   4.336   0.872   7.970 -1.0402 -0.2365  2.2875
  439TIP3    H225513   4.447   0.974   7.974 -0.7000 -0.3884 -0.8198
  440TIP3   OH225514   1.531   7.047   1.618 -0.1197 -0.4190 -0.4307
  440TIP3    H125515   1.623   7.027   1.599 -0.0480 -0.5347  0.0296
  440TIP3    H225516   1.489   7.051   1.532  0.2464 -0.7079 -0.6244
  441TIP3   OH225517   1.098   4.415   1.249  0.3878 -0.2946  0.0310
  441TIP3    H125518   1.052   4.379   1.324  0.3497  0.3984  0.3487
  441TIP3    H225519   1.172   4.463   1.287  0.5685 -0.2313 -0.3946
  442TIP3   OH225520   7.209   0.323   7.982 -0.3704  0.1382  0.4501
  442TIP3    H125521   7.230   0.393   8.045  0.9682  0.1234  0.0534
  442TIP3    H225522   7.239   0.358   7.898 -0.5811 -0.5322  0.0947
  443TIP3   OH225523   2.790   3.106   8.128 -0.6943 -0.3081  0.2438
  443TIP3    H125524   2.789   3.067   8.041 -1.6295 -0.8423  0.4785
  443TIP3    H225525   2.750   3.192   8.116  0.1830  0.0733 -0.0400
  444TIP3   OH225526   4.333   0.675   0.266 -0.2727 -0.4444 -0.2141
  444TIP3    H125527   4.395   0.747   0.270 -0.6192 -0.2023  1.9554
  444TIP3    H225528   4.388   0.597   0.255  0.5199 -0.2830  2.1141
  445TIP3   OH225529   6.886   2.154   1.334 -1.0322  0.1962  0.1774
  445TIP3    H125530   6.945   2.176   1.262 -2.2541  1.9489 -0.3537
  445TIP3    H225531   6.921   2.202   1.409  0.1972 -1.5702  0.8068
  446TIP3   OH225532   7.525   1.344   2.161  0.1700  0.5469 -0.2158
  446TIP3    H125533   7.447   1.355   2.216 -0.2909 -0.4483 -0.6396
  446TIP3    H225534   7.491   1.312   2.078  1.0844 -0.8585 -0.1021
  447TIP3   OH225535   2.465   4.435   8.785 -0.3948 -0.0783 -0.3980
  447TIP3    H125536   2.483   4.514   8.734 -0.6351 -0.0785 -0.4823
  447TIP3    H225537   2.545   4.382   8.775  0.2152  0.6213  0.5624
  448TIP3   OH225538   1.293   4.161   2.557 -0.4950 -0.4079  0.1298
  448TIP3    H125539   1.230   4.142   2.626 -0.5280 -2.1989 -0.3479
  448TIP3    H225540   1.303   4.078   2.509  0.3840  0.4773 -1.3084
  449TIP3   OH225541   5.527   7.036   1.236 -0.4225 -0.0449  0.6943
  449TIP3    H125542   5.615   7.000   1.248  0.1603  0.8700 -0.6548
  449TIP3    H225543   5.535   7.096   1.162 -2.3225 -0.4341  0.1179
  450TIP3   OH225544   1.656   1.940   3.147  0.0405  0.2360 -0.2509
  450TIP3    H125545   1.580   1.960   3.093  1.0648  1.1471 -1.4159
  450TIP3    H225546   1.673   1.847   3.133  0.0781  0.3809 -1.2299
  451TIP3   OH225547   5.147   1.018   7.458  0.3776 -0.3988 -0.2978
  451TIP3    H125548   5.123   1.110   7.444 -0.7466 -0.9045 -1.9660
  451TIP3    H225549   5.079   0.984   7.516 -0.5044 -0.7115 -1.4777
  452TIP3   OH225550   5.986   2.409   8.213  0.3702 -0.0617  0.4047
  452TIP3    H125551   5.989   2.448   8.126 -2.4721 -0.3372  0.1012
  452TIP3    H225552   5.975   2.484   8.272 -0.7275 -0.0509  0.2118
  453TIP3   OH225553   2.659   7.325   7.650  0.0777  0.6255  0.0775
  453TIP3    H125554   2.686   7.341   7.559 -0.3689  0.4673 -0.0867
  453TIP3    H225555   2.716   7.255   7.680  1.1077  1.5551  0.3435
  454TIP3   OH225556   0.294   1.249   1.526  0.1543  0.3940 -0.5154
  454TIP3    H125557   0.282   1.188   1.454 -0.4077  0.3625 -0.3943
  454TIP3    H225558   0.206   1.271   1.555  0.3732  0.2201  0.3233
  455TIP3   OH225559   5.680   5.532   9.353 -0.7466 -0.0290  0.0696
  455TIP3    H125560   5.682   5.504   9.445  0.4556  2.4099  0.8798
  455TIP3    H225561   5.772   5.548   9.331 -0.7518 -2.5753 -2.3123
  456TIP3   OH225562   2.530   6.177   0.541 -0.0223  0.5047  0.0900
  456TIP3    H125563   2.454   6.125   0.514  0.7247  0.4667 -2.1528
  456TIP3    H225564   2.517   6.262   0.500  1.3109  0.3704 -0.6708
  457TIP3   OH225565   1.005   4.975   0.168  0.4926  0.1371  0.3053
  457TIP3    H125566   1.075   4.910   0.164  0.3158 -0.0326 -0.1491
  457TIP3    H225567   0.926   4.926   0.143  0.3526  0.5189 -0.0115
  458TIP3   OH225568   5.887   6.567   1.888 -0.3261  0.4344  0.0942
  458TIP3    H125569   5.805   6.549   1.934  0.0436 -0.9779  0.2379
  458TIP3    H225570   5.901   6.491   1.832  0.0983  1.3643 -1.1229
  459TIP3   OH225571   0.593   6.302   3.091 -0.2323  0.5478 -0.0200
  459TIP3    H125572   0.628   6.366   3.153 -1.0707  1.1643 -0.1701
  459TIP3    H225573   0.644   6.223   3.107  0.3563  1.0487  0.6417
  460TIP3   OH225574   5.783   4.648   8.681 -1.1673  0.7284 -0.1887
  460TIP3    H125575   5.799   4.657   8.587 -1.0247  0.6096 -0.1765
  460TIP3    H225576   5.864   4.680   8.721 -1.0805  0.4154 -0.1162
  461TIP3   OH225577   5.717   2.739   8.309  0.3897 -0.1789 -0.2596
  461TIP3    H125578   5.681   2.667   8.257  0.1008 -0.2129 -0.0153
  461TIP3    H225579   5.677   2.818   8.272 -0.0152 -0.2254  0.0772
  462TIP3   OH225580   7.194   3.846   9.875 -0.0535 -0.3224 -0.0748
  462TIP3    H125581   7.271   3.901   9.895  0.8326 -1.7418  0.5376
  462TIP3    H225582   7.180   3.859   9.781 -0.5584  1.7837  0.2403
  463TIP3   OH225583   4.004   0.073   9.814  0.3625 -0.1456 -0.3016
  463TIP3    H125584   4.085   0.097   9.768  0.8459  0.5747  0.8612
  463TIP3    H225585   4.034   0.024   9.890 -0.2275  0.7822  0.5551
  464TIP3   OH225586   5.504   0.469   0.754  0.0278  0.3046  0.7309
  464TIP3    H125587   5.455   0.405   0.805 -0.8317  0.4838  0.1432
  464TIP3    H225588   5.533   0.534   0.819 -0.2719  0.0475  1.1256
  465TIP3   OH225589   3.565   1.930   2.810 -0.1404  0.2130  0.3035
  465TIP3    H125590   3.640   1.877   2.837 -1.6893 -1.6897  1.1242
  465TIP3    H225591   3.560   1.999   2.876  0.5051 -0.0246  0.6081
  466TIP3   OH225592   3.637   1.414   8.182 -0.1957  0.5292 -0.5666
  466TIP3    H125593   3.596   1.439   8.265  1.4543  0.7294  0.2126
  466TIP3    H225594   3.599   1.475   8.118  0.6424  2.3294  0.5611
  467TIP3   OH225595   2.008   2.290   7.491 -0.5434  0.3583 -0.2011
  467TIP3    H125596   2.023   2.312   7.400  0.0259  1.6945  0.1927
  467TIP3    H225597   1.945   2.355   7.522 -0.2367  0.3312  0.5168
  468TIP3   OH225598   2.830   0.574   8.900 -0.1217  0.1508 -0.2708
  468TIP3    H125599   2.868   0.656   8.933  1.1899 -0.0637 -1.1666
  468TIP3    H225600   2.802   0.527   8.978 -0.7733  1.3840  0.2687
  469TIP3   OH225601   6.952   1.664   8.155 -0.0210  0.0868 -0.1328
  469TIP3    H125602   6.857   1.664   8.139 -0.2874  0.8932  1.2294
  469TIP3    H225603   6.981   1.751   8.127 -0.1294  0.7156  1.5667
  470TIP3   OH225604   2.649   4.585   8.399 -0.5129  0.4223  0.4748
  470TIP3    H125605   2.556   4.607   8.401 -0.8072 -0.6037  3.3861
  470TIP3    H225606   2.672   4.584   8.306 -3.2103  1.4057 -0.2900
  471TIP3   OH225607   0.708   2.592   8.451  0.0858  0.1242  0.4530
  471TIP3    H125608   0.643   2.523   8.464  0.6130 -0.4562  0.1069
  471TIP3    H225609   0.684   2.632   8.367 -0.0328  0.1492  0.4988
  472TIP3   OH225610   1.896   4.580   7.129  0.3866  0.0532  0.0073
  472TIP3    H125611   1.908   4.663   7.082  0.1529 -0.3637 -0.8141
  472TIP3    H225612   1.803   4.561   7.122  0.1275  0.5409  1.6519
  473TIP3   OH225613   0.844   6.025   9.312  0.2511 -0.6622 -0.0568
  473TIP3    H125614   0.803   5.953   9.358 -0.6086  0.4220  0.9401
  473TIP3    H225615   0.771   6.078   9.278  0.7816  0.8009  0.9594
  474TIP3   OH225616   5.752   7.569   9.463 -0.2099 -0.1226 -0.2073
  474TIP3    H125617   5.778   7.477   9.455  0.2526 -0.0646  0.5211
  474TIP3    H225618   5.810   7.604   9.531  0.0671  0.8761 -0.9346
  475TIP3   OH225619   1.471   4.770   0.349 -0.6935  0.2671  0.2577
  475TIP3    H125620   1.428   4.845   0.307  2.0834  1.4904 -0.6451
  475TIP3    H225621   1.531   4.736   0.283  1.8683  0.5420  2.2675
  476TIP3   OH225622   5.156   1.935   9.112  0.8076 -0.4828  0.3964
  476TIP3    H125623   5.102   1.940   9.191 -0.1622  2.5203 -0.3456
  476TIP3    H225624   5.246   1.934   9.146  0.3999  0.2810  1.5729
  477TIP3   OH225625   4.682   0.637   8.970 -0.7270 -0.3764  0.4442
  477TIP3    H125626   4.625   0.680   9.033 -3.1645 -0.2673 -1.6398
  477TIP3    H225627   4.626   0.621   8.894  2.1645  0.1633 -2.0151
  478TIP3   OH225628   0.846   1.011   8.228  0.4959 -0.3324 -0.1154
  478TIP3    H125629   0.761   0.978   8.198  0.6052 -0.5428 -0.2018
  478TIP3    H225630   0.846   1.103   8.203  0.9296 -0.6910 -1.5635
  479TIP3   OH225631   7.114   2.080   0.395  0.4703  0.0008  0.0395
  479TIP3    H125632   7.185   2.056   0.454 -0.6687  0.3981  1.6323
  479TIP3    H225633   7.092   1.999   0.349  1.6990 -0.1997 -0.2229
  480TIP3   OH225634   3.799   2.977   9.894 -0.0156  0.2017  0.1183
  480TIP3    H125635   3.864   2.966   9.825 -0.1916  4.0150 -0.8977
  480TIP3    H225636   3.715   2.982   9.847 -0.4600  0.1100  0.8829
  481TIP3   OH225637   6.383   6.658   2.047  0.3078 -0.3097  0.3790
  481TIP3    H125638   6.310   6.709   2.011 -0.2011 -0.1540  1.6058
  481TIP3    H225639   6.366   6.654   2.141  2.8736  1.4055  1.0107
  482TIP3   OH225640   7.091   3.134   1.887  0.4275 -0.1303  0.2955
  482TIP3    H125641   7.126   3.129   1.798 -0.3340 -1.0926  0.0311
  482TIP3    H225642   7.082   3.227   1.904 -0.1125  0.0576 -0.9179
  483TIP3   OH225643   3.641   3.352   9.191  0.0094  0.4500  0.4218
  483TIP3    H125644   3.698   3.406   9.246  1.2313 -1.2334  0.8800
  483TIP3    H225645   3.571   3.324   9.250  0.3431  0.1049  0.6591
  484TIP3   OH225646   5.264   7.291   0.621 -0.1513 -0.5359 -0.3726
  484TIP3    H125647   5.349   7.330   0.605  0.5891 -1.8720  0.1018
  484TIP3    H225648   5.281   7.220   0.683 -1.8676  0.1991  1.0338
  485TIP3   OH225649   2.542   3.542   2.097 -0.6991  0.8201  0.1538
  485TIP3    H125650   2.631   3.579   2.096 -0.7849  1.1924 -2.9645
  485TIP3    H225651   2.490   3.607   2.143  0.4688  0.9390  1.3986
  486TIP3   OH225652   3.326   7.267   7.979 -0.0148  0.5210  0.9804
  486TIP3    H125653   3.292   7.183   8.010 -0.0772  0.4783  0.7981
  486TIP3    H225654   3.248   7.318   7.958 -0.1058  1.5988  3.5490
  487TIP3   OH225655   3.130   2.480   7.590  0.6879 -0.5845  0.8551
  487TIP3    H125656   3.142   2.392   7.626  0.1138 -0.7225  0.7291
  487TIP3    H225657   3.207   2.494   7.535  0.2825 -1.4441  0.0238
  488TIP3   OH225658   5.424   1.950   9.196 -0.7005 -0.5910  0.3306
  488TIP3    H125659   5.452   1.890   9.265 -1.8554  0.7322  2.0182
  488TIP3    H225660   5.458   2.035   9.223  1.2799 -0.4461 -2.2332
  489TIP3   OH225661   6.685   1.618   8.035 -0.4849  0.2055 -0.7649
  489TIP3    H125662   6.651   1.543   7.986 -1.3112  0.4468 -0.5695
  489TIP3    H225663   6.650   1.694   7.990 -1.4835  0.4276  0.3506
  490TIP3   OH225664   3.190   5.369   8.795  0.6740 -0.2454 -0.0517
  490TIP3    H125665   3.255   5.369   8.724  1.3751 -0.7641  0.5825
  490TIP3    H225666   3.135   5.446   8.776  0.6178 -0.5790 -1.3591
  491TIP3   OH225667   4.009   4.753   0.332 -0.0354 -0.1859 -0.1030
  491TIP3    H125668   3.984   4.667   0.365 -0.4945 -0.2109 -0.5181
  491TIP3    H225669   4.105   4.751   0.330  0.2254  0.7296  3.7492
  492TIP3   OH225670   2.013   4.465   8.552  0.2268 -0.3967 -1.0045
  492TIP3    H125671   2.026   4.405   8.479 -0.2301 -0.6577 -0.8758
  492TIP3    H225672   2.091   4.454   8.606  0.0372 -1.0647 -0.8520
  493TIP3   OH225673   4.346   7.418   8.933 -0.6798  0.2936  0.0913
  493TIP3    H125674   4.306   7.473   8.866 -0.0536  1.0015  0.2789
  493TIP3    H225675   4.281   7.351   8.952 -1.5810  1.1436  0.0693
  494TIP3   OH225676   3.465   3.367   7.816 -0.3328 -0.2219  0.8049
  494TIP3    H125677   3.556   3.394   7.823 -0.1028 -1.2182  2.2200
  494TIP3    H225678   3.426   3.426   7.752  0.6705  1.9435  2.0811
  495TIP3   OH225679   0.096   4.763   1.927  0.4176  0.7793  0.3022
  495TIP3    H125680   0.186   4.732   1.929  0.6567  1.4146 -0.1698
  495TIP3    H225681   0.044   4.688   1.955  1.0369  0.2130 -0.0283
  496TIP3   OH225682   7.600   5.281   7.361  0.1709 -0.1334 -0.8601
  496TIP3    H125683   7.529   5.269   7.298  0.0292  0.3116 -0.7899
  496TIP3    H225684   7.563   5.251   7.444  0.1221 -0.0623 -0.8558
  497TIP3   OH225685   3.187   0.984   2.676  0.3281  0.5485  0.4365
  497TIP3    H125686   3.092   0.996   2.683  0.3512  1.0013  0.0400
  497TIP3    H225687   3.202   0.894   2.707 -0.1833  0.6019  0.8546
  498TIP3   OH225688   3.766   7.313   2.724 -0.5184  0.4354 -0.7104
  498TIP3    H125689   3.842   7.342   2.673 -0.7679  0.4878 -1.0555
  498TIP3    H225690   3.706   7.387   2.722 -1.1451 -0.0702 -1.5702
  499TIP3   OH225691   0.684   6.815   0.053  0.0717 -0.5718  0.4745
  499TIP3    H125692   0.679   6.859   0.138 -1.2287 -1.1872  0.7413
  499TIP3    H225693   0.656   6.725   0.071 -1.4289 -0.3948 -0.8043
  500TIP3   OH225694   0.003   2.625   8.814  0.1841 -0.0423  0.0138
  500TIP3    H125695   0.052   2.708   8.812  0.8441 -0.3952  1.0045
  500TIP3    H225696   0.024   2.584   8.731 -0.5861  1.0150 -0.7372
  501TIP3   OH225697   5.135   1.799   0.494 -0.1347  0.0349 -0.3451
  501TIP3    H125698   5.184   1.825   0.571  0.4103  0.1011 -0.7122
  501TIP3    H225699   5.056   1.853   0.496  0.0627  0.3124 -0.0507
  502TIP3   OH225700   1.113   7.665   6.773 -0.1192  0.0137  0.3957
  502TIP3    H125701   1.068   7.724   6.713 -0.1773 -1.2356 -0.8294
  502TIP3    H225702   1.046   7.602   6.800  0.7288 -1.6664 -1.1965
  503TIP3   OH225703   4.648   2.410   8.602  0.3571 -0.4729  0.3086
  503TIP3    H125704   4.573   2.440   8.551  0.7995 -0.7995 -0.5476
  503TIP3    H225705   4.617   2.413   8.693 -0.6465 -0.4665 -0.0134
  504TIP3   OH225706   0.997   0.975   9.860 -0.0798 -0.2932  0.2788
  504TIP3    H125707   0.947   0.921   9.799  1.0187 -0.5585 -0.3985
  504TIP3    H225708   1.001   0.923   9.941  0.3149 -0.8877 -0.1211
  505TIP3   OH225709   0.737   4.334   1.531 -0.9379  0.0702 -0.2779
  505TIP3    H125710   0.715   4.414   1.580  1.2503  0.0771  0.8449
  505TIP3    H225711   0.676   4.268   1.563 -1.5917  0.8603  0.1297
  506TIP3   OH225712   2.090   2.092   1.470 -0.1874 -0.0255 -0.9764
  506TIP3    H125713   2.071   2.186   1.471 -0.6248 -0.0659  1.7857
  506TIP3    H225714   2.173   2.084   1.517  0.7240 -0.9371 -2.6349
  507TIP3   OH225715   7.112   2.069   7.378 -0.3268  0.3259  0.0763
  507TIP3    H125716   7.180   2.131   7.406 -1.3175  0.8208  1.5348
  507TIP3    H225717   7.061   2.118   7.314  0.4049  0.1064 -0.6926
  508TIP3   OH225718   5.123   3.464   8.236  0.6732 -0.2562  0.2327
  508TIP3    H125719   5.190   3.530   8.217 -0.1361  0.2330 -1.0739
  508TIP3    H225720   5.160   3.383   8.201 -0.1182  0.3454 -2.1992
  509TIP3   OH225721   4.502   3.216   7.709 -0.2745  0.5970 -0.2564
  509TIP3    H125722   4.568   3.146   7.710 -1.1187 -0.2420  2.2588
  509TIP3    H225723   4.444   3.192   7.636 -1.7318 -2.5830  1.7431
  510TIP3   OH225724   4.329   5.941   0.470 -0.4751 -0.3172  0.0471
  510TIP3    H125725   4.388   5.876   0.508  0.3029  0.7802  0.7701
  510TIP3    H225726   4.343   6.020   0.522  1.9504  1.8597 -3.4691
  511TIP3   OH225727   1.896   6.493   9.204  0.0585  0.3366  0.1453
  511TIP3    H125728   1.807   6.519   9.181 -0.0741 -0.1709  0.0530
  511TIP3    H225729   1.952   6.552   9.154 -0.2298 -0.2436 -0.9051
  512TIP3   OH225730   7.414   6.363   1.026 -0.6885  0.5090  0.0078
  512TIP3    H125731   7.499   6.335   0.993 -0.8284  0.4225 -0.2863
  512TIP3    H225732   7.411   6.457   1.006 -0.6245  0.5296  0.0981
  513TIP3   OH225733   5.088   6.815   1.971 -0.2911  0.0251  0.2023
  513TIP3    H125734   5.115   6.795   2.061 -0.4505  1.4178  0.5905
  513TIP3    H225735   5.096   6.911   1.965 -1.5578  0.0863 -0.8392
  514TIP3   OH225736   2.058   7.310   0.963 -0.1059 -0.1178  0.2633
  514TIP3    H125737   1.969   7.284   0.941  0.0645  0.1603 -0.8759
  514TIP3    H225738   2.048   7.393   1.010 -0.4925 -0.6846  1.2039
  515TIP3   OH225739   4.167   3.686   8.871 -0.1160 -0.6358  0.0586
  515TIP3    H125740   4.107   3.646   8.807 -1.6843 -1.4705  1.9227
  515TIP3    H225741   4.125   3.669   8.956  2.1838 -0.1349  1.3701
  516TIP3   OH225742   2.112   5.310   0.781  0.1816 -0.1312  0.3931
  516TIP3    H125743   2.203   5.310   0.752  0.2073  0.4489  0.4702
  516TIP3    H225744   2.118   5.317   0.877  0.0714 -0.8805  0.4602
  517TIP3   OH225745   3.162   3.579   2.615  0.2057  0.3419  0.4394
  517TIP3    H125746   3.231   3.629   2.571  1.2130 -0.7950  0.6846
  517TIP3    H225747   3.175   3.597   2.708  0.6884 -0.5095  0.5408
  518TIP3   OH225748   0.188   2.483   2.436 -0.1594 -0.6361 -0.2242
  518TIP3    H125749   0.110   2.489   2.491 -1.2427 -2.0839 -1.4829
  518TIP3    H225750   0.175   2.551   2.369  1.4694  1.5689  1.5456
  519TIP3   OH225751   1.964   3.785   6.420 -0.3410  0.0627 -0.3834
  519TIP3    H125752   1.922   3.770   6.505  1.3401 -2.0461  0.1533
  519TIP3    H225753   1.969   3.880   6.413 -0.0748  0.3093  2.1323
  520TIP3   OH225754   7.190   5.878   0.342  0.5935  0.0696 -0.0008
  520TIP3    H125755   7.098   5.898   0.357  0.7834  0.4051  0.7903
  520TIP3    H225756   7.221   5.948   0.285  0.0032 -0.8821 -1.5318
  521TIP3   OH225757   1.449   3.438   2.255  0.2930 -0.0448 -0.3743
  521TIP3    H125758   1.364   3.394   2.257  0.1966  0.1593 -0.0532
  521TIP3    H225759   1.501   3.385   2.194 -0.0557 -0.1792 -0.5592
  522TIP3   OH225760   6.788   0.714   9.764  0.3811  0.7583 -0.5645
  522TIP3    H125761   6.835   0.640   9.724  2.0236  0.0756  2.3452
  522TIP3    H225762   6.786   0.693   9.857 -4.0721  1.7900 -0.2176
  523TIP3   OH225763   6.599   0.110   8.819  0.3433 -0.1382 -0.0483
  523TIP3    H125764   6.639   0.161   8.889  0.4645  1.4575 -1.2134
  523TIP3    H225765   6.510   0.094   8.850  0.8027 -0.7042  1.0577
  524TIP3   OH225766   7.505   2.395   9.898  0.2580 -0.3248 -0.2302
  524TIP3    H125767   7.512   2.457   9.826  1.1588 -1.2570 -0.9638
  524TIP3    H225768   7.587   2.404   9.946 -0.1355 -0.0535  0.4023
  525TIP3   OH225769   0.716   6.458   7.609 -0.4550  0.2997  0.0733
  525TIP3    H125770   0.688   6.368   7.622 -2.3495  0.7946 -0.3364
  525TIP3    H225771   0.642   6.511   7.637 -0.7628  1.6197 -2.8765
  526TIP3   OH225772   3.180   3.652   8.874 -0.1458 -0.2194  0.0856
  526TIP3    H125773   3.236   3.682   8.945  0.0687 -0.4211  0.0047
  526TIP3    H225774   3.172   3.727   8.815 -3.2669  1.1875  2.0757
  527TIP3   OH225775   1.400   1.300   1.617 -0.0076  0.2879  0.0759
  527TIP3    H125776   1.461   1.270   1.684 -0.7925 -2.7112 -0.4278
  527TIP3    H225777   1.314   1.292   1.658 -0.3434  0.5331 -0.5795
  528TIP3   OH225778   6.844   1.720   3.178  0.0029 -0.2883 -0.4681
  528TIP3    H125779   6.893   1.651   3.223 -1.6606  0.0716  2.1230
  528TIP3    H225780   6.902   1.796   3.180  0.3276 -0.5437  0.2933
  529TIP3   OH225781   4.690   5.022   8.302 -0.2494 -0.6669  0.1070
  529TIP3    H125782   4.615   5.004   8.245 -0.3115 -2.1293  0.6090
  529TIP3    H225783   4.710   4.938   8.343  0.2744  0.1753  1.6725
  530TIP3   OH225784   1.334   6.368   1.709  0.1219  0.3043 -0.1019
  530TIP3    H125785   1.367   6.319   1.784 -0.6201  0.6069  0.4380
  530TIP3    H225786   1.271   6.430   1.747  0.1551  0.8440 -0.9108
  531TIP3   OH225787   3.297   0.553   0.375  0.6917 -0.3991 -0.3993
  531TIP3    H125788   3.245   0.570   0.297  0.2018  1.5439  0.3172
  531TIP3    H225789   3.369   0.615   0.371 -0.1134  0.7297  1.3755
  532TIP3   OH225790   3.476   0.369   2.279 -0.3770 -0.1002 -0.4620
  532TIP3    H125791   3.426   0.326   2.209 -0.1889  2.6151 -2.4399
  532TIP3    H225792   3.410   0.399   2.340 -1.2293  2.2845 -2.3791
  533TIP3   OH225793   2.076   4.358   8.001  0.0559  0.3686  0.8503
  533TIP3    H125794   1.983   4.341   8.015 -0.0939  0.3184 -0.1591
  533TIP3    H225795   2.078   4.418   7.926  0.9244 -1.3295 -0.5362
  534TIP3   OH225796   6.309   1.050   9.979  0.5990  0.0020  0.2120
  534TIP3    H125797   6.359   1.029   9.900  1.1786  0.4905  0.4449
  534TIP3    H225798   6.275   1.138   9.964 -0.5299 -0.4706 -0.1057
  535TIP3   OH225799   7.566   6.241   2.542 -0.0372  0.0910 -0.0527
  535TIP3    H125800   7.605   6.293   2.613  1.2168  0.2693 -0.8399
  535TIP3    H225801   7.584   6.292   2.463  0.5653 -1.1687 -0.7550
  536TIP3   OH225802   5.637   2.173   2.055 -0.2298  0.0539 -0.1552
  536TIP3    H125803   5.673   2.164   2.143  0.9640 -3.0855 -0.8455
  536TIP3    H225804   5.593   2.090   2.038  0.1926  0.2776 -2.7758
  537TIP3   OH225805   3.787   0.720   9.323 -0.2579 -0.0532 -0.1029
  537TIP3    H125806   3.774   0.711   9.229  0.3864 -1.9735 -0.0387
  537TIP3    H225807   3.762   0.635   9.360 -0.0991  0.5200  1.4253
  538TIP3   OH225808   2.191   3.208   7.864  0.5005  0.6105 -0.0568
  538TIP3    H125809   2.194   3.135   7.926 -1.3822 -0.2698 -0.9311
  538TIP3    H225810   2.163   3.169   7.782 -1.5950  2.4276 -0.3018
  539TIP3   OH225811   2.288   4.566   0.937  0.7404  0.2040 -0.1588
  539TIP3    H125812   2.287   4.569   0.841 -0.5731 -1.0287 -0.2105
  539TIP3    H225813   2.240   4.645   0.963  3.0225  1.7857 -0.4034
  540TIP3   OH225814   2.220   6.365   0.279  1.0133  0.1594 -0.2539
  540TIP3    H125815   2.256   6.339   0.194  1.8273  1.5533 -0.3671
  540TIP3    H225816   2.137   6.407   0.259  0.5230 -0.7570 -0.2146
  541TIP3   OH225817   0.609   1.371   1.053 -0.6023  0.0521  0.4845
  541TIP3    H125818   0.633   1.449   1.002 -1.4975 -0.1928 -0.3435
  541TIP3    H225819   0.641   1.298   1.000  0.5125 -0.1551  1.4073
  542TIP3   OH225820   1.488   0.099   8.119 -0.0524  0.2086 -0.5914
  542TIP3    H125821   1.571   0.102   8.167 -0.4369 -0.6436  0.1538
  542TIP3    H225822   1.449   0.184   8.134 -0.1170 -0.0005  0.5527
  543TIP3   OH225823   2.377   1.599   9.150 -0.7031 -0.5235  0.4794
  543TIP3    H125824   2.407   1.656   9.220  1.9134 -2.6581  1.2671
  543TIP3    H225825   2.297   1.559   9.185  0.0199 -0.8104  1.8770
  544TIP3   OH225826   1.931   7.616   7.611  0.0487  0.0977  0.0759
  544TIP3    H125827   1.847   7.601   7.654  0.2460 -1.8813 -0.1629
  544TIP3    H225828   1.968   7.529   7.598  1.0013  0.7517 -2.0968
  545TIP3   OH225829   7.501   3.040   8.369  0.6290 -0.1010 -0.5775
  545TIP3    H125830   7.517   3.002   8.456 -2.0438 -1.0937 -0.4109
  545TIP3    H225831   7.481   3.132   8.386 -1.3234 -0.5929  0.1319
  546TIP3   OH225832   5.837   4.344   8.872 -0.0846 -0.3904  0.3606
  546TIP3    H125833   5.768   4.390   8.824  0.8890  1.2931  0.5013
  546TIP3    H225834   5.877   4.286   8.806  0.3246  0.8607 -0.5318
  547TIP3   OH225835   2.917   7.428   8.390  0.2450 -0.0117 -0.3798
  547TIP3    H125836   2.911   7.511   8.438  2.7299  0.3333 -0.5211
  547TIP3    H225837   2.867   7.443   8.309 -0.1482  0.9983  0.0331
  548TIP3   OH225838   0.171   0.588   9.611  0.4019 -0.4203  0.1262
  548TIP3    H125839   0.099   0.633   9.655  1.0544  0.2224  0.5497
  548TIP3    H225840   0.250   0.632   9.643  1.1318 -2.4428  1.2911
  549TIP3   OH225841   6.344   6.431   6.764 -0.5318  0.3178  0.2286
  549TIP3    H125842   6.330   6.404   6.673  0.4783 -0.2674  0.2293
  549TIP3    H225843   6.421   6.381   6.792  0.7316  2.3470  0.5970
  550TIP3   OH225844   5.880   0.599   7.942 -0.9605 -0.4355 -0.5901
  550TIP3    H125845   5.839   0.590   8.029 -0.8777  2.1198 -0.2068
  550TIP3    H225846   5.808   0.585   7.881 -1.4978 -0.1230 -0.0414
  551TIP3   OH225847   1.291   0.132   7.567  0.0951 -0.2922 -0.1097
  551TIP3    H125848   1.358   0.139   7.634  0.9483  0.0904 -0.9903
  551TIP3    H225849   1.295   0.215   7.519 -0.0566 -0.8092 -1.0425
  552TIP3   OH225850   6.287   7.314   1.422 -0.3796 -0.0235  0.1401
  552TIP3    H125851   6.342   7.391   1.407  2.0869 -1.4239  1.3056
  552TIP3    H225852   6.323   7.248   1.363 -0.9081 -0.9418  0.8308
  553TIP3   OH225853   7.571   1.620   9.408 -0.1463 -0.5208 -0.0192
  553TIP3    H125854   7.665   1.599   9.407  0.5460  2.1199  1.0190
  553TIP3    H225855   7.549   1.623   9.501 -1.3303 -1.2576 -0.2623
  554TIP3   OH225856   5.757   2.514   0.564  0.0985  0.5413 -0.0220
  554TIP3    H125857   5.785   2.427   0.593 -0.0797  1.1872  2.2366
  554TIP3    H225858   5.776   2.515   0.470 -0.7231 -2.2569 -0.3135
  555TIP3   OH225859   7.038   3.030   9.838  0.7242 -0.3658 -0.1162
  555TIP3    H125860   7.050   3.096   9.906 -2.5658 -1.3211  1.6131
  555TIP3    H225861   7.016   3.080   9.759  1.0829  0.6541  0.4163
  556TIP3   OH225862   4.234   4.599   7.465 -0.6620  0.7212  0.0204
  556TIP3    H125863   4.292   4.541   7.514 -0.0715  1.8387  0.6810
  556TIP3    H225864   4.241   4.683   7.509 -1.0921  1.4446 -1.2298
  557TIP3   OH225865   6.199   0.447   7.723 -0.1835 -0.4810  0.7631
  557TIP3    H125866   6.209   0.492   7.639  0.9179 -0.0701  1.1084
  557TIP3    H225867   6.116   0.399   7.714  0.4813 -1.3788 -0.9877
  558TIP3   OH225868   1.020   3.777   8.570  0.1499  0.2231  0.0239
  558TIP3    H125869   1.032   3.811   8.659  1.6697  3.0791 -1.1270
  558TIP3    H225870   1.109   3.765   8.537 -0.3609 -2.6094 -0.5967
  559TIP3   OH225871   2.948   0.226   1.388 -0.0773  0.1159 -0.0805
  559TIP3    H125872   3.016   0.159   1.387 -1.6774 -1.5856 -0.5411
  559TIP3    H225873   2.955   0.268   1.474 -0.5804 -2.3564  1.2390
  560TIP3   OH225874   2.332   3.525   9.746  0.6354 -0.7747  0.0941
  560TIP3    H125875   2.323   3.547   9.839  0.1431  0.3240 -0.1968
  560TIP3    H225876   2.305   3.433   9.741  3.1972 -1.7105  1.4241
  561TIP3   OH225877   5.126   0.623   7.651 -0.7434  0.1763 -0.2200
  561TIP3    H125878   5.210   0.608   7.696 -1.4210 -0.0601  1.0146
  561TIP3    H225879   5.143   0.598   7.560  0.7881  1.0740 -0.2104
  562TIP3   OH225880   3.247   5.584   0.551  0.1282  0.7332  0.2504
  562TIP3    H125881   3.251   5.532   0.471  1.2413  1.4646 -0.1972
  562TIP3    H225882   3.300   5.662   0.532 -0.2327  1.2973  1.4280
  563TIP3   OH225883   6.062   5.872   8.218  0.4190 -0.0682 -0.3721
  563TIP3    H125884   6.095   5.883   8.129  0.0027 -2.4740 -0.9028
  563TIP3    H225885   6.067   5.959   8.257  1.4028  0.8739 -2.4659
  564TIP3   OH225886   6.012   0.473   8.282 -0.9921 -0.4378  0.5008
  564TIP3    H125887   6.068   0.485   8.359  0.5075  0.5579 -0.6674
  564TIP3    H225888   5.983   0.562   8.261 -2.0909 -0.8110  0.3970
  565TIP3   OH225889   2.568   7.485   8.290  0.3472  0.8149  0.1128
  565TIP3    H125890   2.648   7.520   8.251  1.2067  0.5013  1.5269
  565TIP3    H225891   2.522   7.443   8.217  1.3589  1.1833 -0.7614
  566TIP3   OH225892   1.180   3.958   3.072  0.3171 -0.0314  0.3769
  566TIP3    H125893   1.116   4.013   3.026  0.6667 -0.8416 -1.1283
  566TIP3    H225894   1.243   3.932   3.005 -0.2469 -2.8907  0.8221
  567TIP3   OH225895   7.261   1.234   3.198  0.1713 -0.1193 -0.7106
  567TIP3    H125896   7.270   1.310   3.141  1.1337  0.5497  0.2875
  567TIP3    H225897   7.277   1.269   3.286 -0.2842 -1.3124 -0.1388
  568TIP3   OH225898   7.536   1.406   1.698 -0.3085  0.0546  0.5508
  568TIP3    H125899   7.455   1.380   1.654  0.3104  0.3250 -0.7904
  568TIP3    H225900   7.552   1.496   1.669 -1.4177  1.4006  3.6454
  569TIP3   OH225901   5.580   0.542   8.632 -0.1262  0.1381 -0.3963
  569TIP3    H125902   5.498   0.507   8.667 -0.9007  1.7023 -0.5435
  569TIP3    H225903   5.647   0.481   8.662 -1.2261 -0.6729  0.5164
  570TIP3   OH225904   0.887   6.227   8.875  0.3383  0.1885 -0.4645
  570TIP3    H125905   0.965   6.279   8.895 -0.0507  0.6637 -0.1444
  570TIP3    H225906   0.901   6.195   8.786 -0.1550  2.2330 -1.3277
  571TIP3   OH225907   1.504   1.651   2.027  0.4602  0.3056 -0.3498
  571TIP3    H125908   1.491   1.705   1.950  3.7792 -1.4708 -2.4118
  571TIP3    H225909   1.443   1.578   2.017  0.9062  0.0578 -1.3945
  572TIP3   OH225910   1.606   2.400   1.566  0.3115 -0.4490  0.3322
  572TIP3    H125911   1.546   2.356   1.626  0.3935 -0.0110  0.7332
  572TIP3    H225912   1.550   2.429   1.494 -0.3798  1.8003  1.6636
  573TIP3   OH225913   3.027   4.463   0.919  0.5766 -0.0930 -1.0140
  573TIP3    H125914   3.034   4.375   0.955 -0.9710  0.9335  2.1340
  573TIP3    H225915   2.957   4.456   0.853 -1.6235 -0.7855  1.2267
  574TIP3   OH225916   4.693   4.471   9.874  0.2541 -0.0869  0.5706
  574TIP3    H125917   4.751   4.409   9.830  1.7525  0.4479  1.7111
  574TIP3    H225918   4.624   4.417   9.911 -1.7617 -0.4868 -3.2587
  575TIP3   OH225919   6.714   2.464   1.486  0.6272 -0.3070 -0.3304
  575TIP3    H125920   6.731   2.474   1.392  1.5049 -0.4150 -0.1860
  575TIP3    H225921   6.673   2.378   1.494  2.0141 -0.9944 -0.4325
  576TIP3   OH225922   0.602   4.927   0.134 -0.2680 -0.1582  0.8666
  576TIP3    H125923   0.512   4.950   0.113  0.1340 -0.0547 -0.8255
  576TIP3    H225924   0.645   5.012   0.147  0.1059 -0.0871 -0.6584
  577TIP3   OH225925   7.147   0.141   1.622  0.0601  0.1612 -0.4672
  577TIP3    H125926   7.125   0.192   1.544 -1.3618  1.6823  0.8616
  577TIP3    H225927   7.241   0.156   1.635  0.0388  0.9212 -1.1690
  578TIP3   OH225928   1.724   5.833   2.364  0.0804  0.0669 -0.3401
  578TIP3    H125929   1.767   5.827   2.279  1.3914 -0.6112  0.3443
  578TIP3    H225930   1.780   5.782   2.423 -0.4600  1.0527  1.0689
  579TIP3   OH225931   4.552   1.024   6.917  0.4167 -0.1391 -0.1316
  579TIP3    H125932   4.521   0.933   6.917  0.8659 -0.2974 -0.5761
  579TIP3    H225933   4.643   1.017   6.948  0.0349  0.3147  1.1729
  580TIP3   OH225934   0.753   1.147   1.245  0.2671  0.1592 -0.1287
  580TIP3    H125935   0.720   1.152   1.156  1.2244 -1.6682 -0.6473
  580TIP3    H225936   0.753   1.237   1.277 -1.3250  0.6820 -1.4925
  581TIP3   OH225937   6.657   0.055   3.202  0.0089  0.1940 -0.3121
  581TIP3    H125938   6.579   0.110   3.206  0.3018  0.6222 -0.4168
  581TIP3    H225939   6.670   0.026   3.292  0.2932  0.9200 -0.1174
  582TIP3   OH225940   1.473   7.311   8.437 -0.0784  0.5598 -0.6099
  582TIP3    H125941   1.563   7.286   8.416  0.0197  0.1586  0.2839
  582TIP3    H225942   1.464   7.399   8.400  0.0141 -0.1808 -2.5397
  583TIP3   OH225943   1.168   2.080   7.593  0.7215  0.4957 -0.7735
  583TIP3    H125944   1.084   2.060   7.551  0.9471 -0.9862 -0.5426
  583TIP3    H225945   1.166   2.032   7.675  2.1060 -0.1797 -1.1095
  584TIP3   OH225946   4.714   6.306   8.993 -0.2850 -0.7499  0.2030
  584TIP3    H125947   4.751   6.390   9.018 -0.9975 -0.7112  1.1890
  584TIP3    H225948   4.714   6.254   9.073 -1.2095 -1.1686 -0.0446
  585TIP3   OH225949   2.392   3.238   7.583  0.0794  0.2632 -0.2624
  585TIP3    H125950   2.357   3.308   7.637 -0.6856 -0.4963  0.2549
  585TIP3    H225951   2.383   3.159   7.638  1.3394 -0.1698 -0.6444
  586TIP3   OH225952   2.713   6.460   1.028 -0.3020 -0.0613  0.6363
  586TIP3    H125953   2.772   6.517   1.079  1.4971 -0.4746 -0.8795
  586TIP3    H225954   2.696   6.509   0.948  0.7737 -1.3667 -0.4243
  587TIP3   OH225955   2.047   4.783   0.513 -0.2445 -0.3250  0.1059
  587TIP3    H125956   1.985   4.855   0.526  0.2343 -0.1000  1.3308
  587TIP3    H225957   1.994   4.704   0.524 -0.8929 -0.2143 -1.8094
  588TIP3   OH225958   7.666   6.247   0.961  0.3504  0.2948 -0.1720
  588TIP3    H125959   7.726   6.315   0.991 -0.4138  0.9923 -0.1708
  588TIP3    H225960   7.703   6.165   0.994  0.6730  0.8308  0.8236
  589TIP3   OH225961   5.206   3.158   8.346  0.1435 -0.2924 -0.7084
  589TIP3    H125962   5.141   3.108   8.396 -0.3341 -0.4103 -1.4333
  589TIP3    H225963   5.287   3.107   8.355 -0.7961 -2.4317 -3.1633
  590TIP3   OH225964   5.054   1.049   8.961  0.1790 -0.7558 -0.6273
  590TIP3    H125965   5.099   1.095   8.890  0.1462 -1.6848 -1.2650
  590TIP3    H225966   5.109   1.063   9.037 -0.5558  1.5526 -0.4379
  591TIP3   OH225967   3.531   5.834   0.939 -0.0862 -0.0887  0.3390
  591TIP3    H125968   3.445   5.831   0.896 -0.4362  5.9829 -0.3309
  591TIP3    H225969   3.592   5.801   0.874 -1.5043  0.3180 -1.2740
  592TIP3   OH225970   2.083   1.442   0.314  0.2884  0.1372 -0.1539
  592TIP3    H125971   1.989   1.427   0.317  0.0677  1.4958  0.9122
  592TIP3    H225972   2.119   1.385   0.383  0.1335  0.3143  0.0733
  593TIP3   OH225973   0.838   6.876   9.825  0.1804  0.4807  0.7011
  593TIP3    H125974   0.765   6.878   9.887 -2.0289  0.0107 -1.7261
  593TIP3    H225975   0.864   6.967   9.815  0.4208  0.5845  2.1101
  594TIP3   OH225976   4.490   5.689   8.896  0.6545 -0.2521 -0.4016
  594TIP3    H125977   4.556   5.758   8.897  0.0148  0.3846  1.5152
  594TIP3    H225978   4.531   5.615   8.941  0.4083 -0.1885 -0.0707
  595TIP3   OH225979   7.253   2.874   0.276 -0.2659 -0.2173  0.3568
  595TIP3    H125980   7.171   2.910   0.242  1.1051  0.5296 -2.4510
  595TIP3    H225981   7.246   2.780   0.260 -0.0496  0.0082 -1.2144
  596TIP3   OH225982   1.769   7.554   1.254 -0.2141  0.0699 -0.4667
  596TIP3    H125983   1.774   7.643   1.220  0.1622  0.1974 -0.0949
  596TIP3    H225984   1.678   7.542   1.278 -0.5245 -0.0891 -1.6837
  597TIP3   OH225985   3.419   5.751   1.753 -0.0093  0.0999 -0.8562
  597TIP3    H125986   3.496   5.742   1.697  0.3558  0.0857 -0.3575
  597TIP3    H225987   3.357   5.686   1.719  0.3866 -0.2303 -0.9565
  598TIP3   OH225988   1.764   7.680   8.563  1.0764  0.2484 -0.2733
  598TIP3    H125989   1.718   7.646   8.486  2.5674 -2.8058  0.0561
  598TIP3    H225990   1.856   7.680   8.538  1.5331 -0.2199  1.2814
  599TIP3   OH225991   3.857   2.184   0.566  0.0218 -0.0880  0.6373
  599TIP3    H125992   3.777   2.236   0.578 -0.1772 -0.0951 -0.5009
  599TIP3    H225993   3.927   2.241   0.597 -0.0132  1.5539 -1.9908
  600TIP3   OH225994   0.143   2.740   9.349 -0.2750 -0.4192  0.4403
  600TIP3    H125995   0.135   2.645   9.349 -1.7182 -0.3438 -0.3551
  600TIP3    H225996   0.235   2.757   9.330  0.2064 -1.6418  1.5343
  601TIP3   OH225997   6.110   3.018   0.513 -0.0928 -0.4062 -0.4223
  601TIP3    H125998   6.203   3.006   0.531 -0.2903 -0.7593  0.4294
  601TIP3    H225999   6.106   3.096   0.457  0.5910  0.8450  1.1719
  602TIP3   OH226000   0.258   1.484   2.633  0.3165  0.1730 -0.2426
  602TIP3    H126001   0.316   1.541   2.684  0.5674 -0.9060  0.6999
  602TIP3    H226002   0.170   1.506   2.663  0.4212 -0.0289  0.2109
  603TIP3   OH226003   2.457   2.024   9.350 -0.5264  0.1332  0.1757
  603TIP3    H126004   2.517   2.070   9.409  1.4606 -0.8903 -0.9646
  603TIP3    H226005   2.494   2.038   9.263 -0.5343 -2.5365 -0.3228
  604TIP3   OH226006   6.192   3.586   9.372  0.3075 -0.3840  0.3577
  604TIP3    H126007   6.260   3.646   9.340  1.5082 -2.0949 -0.4507
  604TIP3    H226008   6.237   3.529   9.435  0.1808 -2.6822 -1.4718
  605TIP3   OH226009   2.739   5.700   2.895 -0.1979  0.5748 -0.1528
  605TIP3    H126010   2.769   5.788   2.918 -0.0561  0.3810  0.4215
  605TIP3    H226011   2.807   5.642   2.929  0.0743  0.2706 -1.1620
  606TIP3   OH226012   6.309   4.422   7.912  0.4238  0.2406  0.1108
  606TIP3    H126013   6.278   4.387   7.828 -0.2296  0.2050  0.3597
  606TIP3    H226014   6.231   4.426   7.966  1.2469 -2.1843  1.6067
  607TIP3   OH226015   6.984   4.588   7.647  0.6358 -0.2806 -0.3332
  607TIP3    H126016   7.048   4.570   7.717 -0.1329 -2.8591 -0.1623
  607TIP3    H226017   7.025   4.553   7.568 -0.0371 -0.8280 -0.4475
  608TIP3   OH226018   2.987   6.944   1.569  0.8423 -0.5682 -0.3102
  608TIP3    H126019   3.018   6.868   1.617 -0.5091 -0.6178  0.5369
  608TIP3    H226020   3.032   7.018   1.609  0.2818 -0.6882  0.5778
  609TIP3   OH226021   6.965   0.559   1.401 -0.0869 -0.0728  0.5518
  609TIP3    H126022   6.873   0.568   1.377  0.1427  0.2709 -0.2405
  609TIP3    H226023   6.970   0.475   1.447 -0.6252 -0.5656 -0.2685
  610TIP3   OH226024   7.489   6.187   2.075 -0.1051 -0.8685  0.3703
  610TIP3    H126025   7.504   6.092   2.077  0.4055 -0.8149 -0.4955
  610TIP3    H226026   7.566   6.224   2.117  0.2131 -0.7992 -0.2528
  611TIP3   OH226027   4.309   6.821   7.727  0.1856 -0.3967  0.1139
  611TIP3    H126028   4.338   6.839   7.637 -1.3764  3.0067  0.1437
  611TIP3    H226029   4.231   6.766   7.716  0.0166 -0.0248 -0.6303
  612TIP3   OH226030   0.283   2.160   0.425  0.0652 -0.1261 -0.4989
  612TIP3    H126031   0.378   2.162   0.437  0.0013  3.0465  0.5129
  612TIP3    H226032   0.248   2.147   0.513 -0.4404 -0.7183 -0.7868
  613TIP3   OH226033   3.203   1.798   0.714  0.0232  0.5320  0.1108
  613TIP3    H126034   3.295   1.787   0.690 -0.4046 -1.8207 -0.7190
  613TIP3    H226035   3.155   1.743   0.652 -1.9076  1.2693  0.8696
  614TIP3   OH226036   3.517   2.847   9.955  0.1284 -0.4823  0.3758
  614TIP3    H126037   3.500   2.789   9.880  1.5164 -0.2801 -0.1424
  614TIP3    H226038   3.497   2.935   9.922  1.9827 -0.2370 -0.2559
  615TIP3   OH226039   4.174   6.946   9.551 -0.0768  0.2740  0.2100
  615TIP3    H126040   4.091   6.933   9.595 -0.2711  1.2692  0.1656
  615TIP3    H226041   4.175   6.881   9.481 -0.4433 -0.2949  0.7331
  616TIP3   OH226042   0.900   3.029   6.950  0.1325 -0.1690  0.0684
  616TIP3    H126043   0.978   3.080   6.928 -0.1263  0.4868  0.6531
  616TIP3    H226044   0.888   2.970   6.875  1.2071 -0.3024 -0.0040
  617TIP3   OH226045   3.362   1.470   7.457 -0.0725 -0.5608  0.1988
  617TIP3    H126046   3.434   1.497   7.400 -1.7546  3.6769 -0.3442
  617TIP3    H226047   3.375   1.519   7.538 -1.7915 -0.3450  0.3968
  618TIP3   OH226048   7.152   0.745   2.367  0.1346  0.1707  0.0786
  618TIP3    H126049   7.157   0.673   2.304 -0.8775 -0.5781  0.8301
  618TIP3    H226050   7.219   0.725   2.432  0.7541  0.6180 -0.4081
  619TIP3   OH226051   7.318   2.352   1.665 -0.6113 -0.0422  0.0439
  619TIP3    H126052   7.403   2.378   1.698 -0.6773  0.4120 -0.1293
  619TIP3    H226053   7.293   2.423   1.605 -0.9425 -0.3503 -0.1913
  620TIP3   OH226054   6.038   0.802   1.462 -0.1021  0.0798  0.5216
  620TIP3    H126055   6.035   0.710   1.487 -0.1741 -0.1056 -0.1313
  620TIP3    H226056   5.960   0.815   1.409  0.1585  0.3868  0.2052
  621TIP3   OH226057   7.442   2.682   8.570 -0.1071 -0.1091 -0.3269
  621TIP3    H126058   7.420   2.678   8.476 -0.4540  0.5043 -0.2807
  621TIP3    H226059   7.470   2.594   8.592  0.0692 -0.2367 -1.0359
  622TIP3   OH226060   5.556   0.708   3.083 -0.2446  0.4581  0.3519
  622TIP3    H126061   5.637   0.739   3.124  1.0119 -1.9204 -0.1387
  622TIP3    H226062   5.505   0.671   3.155 -1.2249  2.4664  0.7536
  623TIP3   OH226063   1.745   6.264   8.204 -1.4085  0.2824 -0.3805
  623TIP3    H126064   1.701   6.271   8.289  0.8152  0.2653  0.8416
  623TIP3    H226065   1.744   6.353   8.170  0.8865  1.1233  1.4487
  624TIP3   OH226066   2.697   2.681   8.643 -0.2854 -0.3513 -0.3374
  624TIP3    H126067   2.765   2.616   8.623  1.1634  0.5298  1.4492
  624TIP3    H226068   2.619   2.629   8.660  0.4796 -1.5438 -0.3306
  625TIP3   OH226069   1.275   0.768   8.155 -0.2934 -1.3166 -0.0647
  625TIP3    H126070   1.239   0.854   8.178 -0.1329 -1.3857  0.4711
  625TIP3    H226071   1.277   0.720   8.238 -0.4278 -1.8572 -0.3663
  626TIP3   OH226072   3.205   6.915   7.696  0.4718  0.1374 -0.1674
  626TIP3    H126073   3.150   6.850   7.651  0.0127 -1.6371  2.6700
  626TIP3    H226074   3.294   6.881   7.688  0.5326  0.3922 -0.6041
  627TIP3   OH226075   0.224   5.730   1.744  0.3396  0.1914 -0.4177
  627TIP3    H126076   0.188   5.642   1.752  2.3069 -0.8593 -2.0177
  627TIP3    H226077   0.157   5.788   1.780 -1.3306 -1.8928 -0.0329
  628TIP3   OH226078   0.033   2.514   0.043  0.1237  0.0860 -0.3301
  628TIP3    H126079   0.023   2.609   0.032  0.1779  0.1800  0.4007
  628TIP3    H226080   0.123   2.503   0.074 -0.6870  0.0510  2.2276
  629TIP3   OH226081   0.084   1.287   6.729 -0.0335  0.0816  0.0593
  629TIP3    H126082   0.023   1.298   6.803 -0.0786 -0.4539  0.1010
  629TIP3    H226083   0.033   1.244   6.661 -0.6766  2.5727 -1.1725
  630TIP3   OH226084   1.398   2.868   9.897  0.3061 -0.5926  0.1884
  630TIP3    H126085   1.415   2.821   9.815 -0.5834 -1.0990  0.2841
  630TIP3    H226086   1.473   2.927   9.906  1.2556 -1.6857 -0.1525
  631TIP3   OH226087   0.328   6.187   8.723 -0.1218 -0.1915  0.3480
  631TIP3    H126088   0.269   6.137   8.667  0.7962 -0.0896 -0.7447
  631TIP3    H226089   0.374   6.246   8.663  2.8558 -1.9321  0.7075
  632TIP3   OH226090   3.151   3.057   1.600 -0.4144 -0.6720 -0.0906
  632TIP3    H126091   3.149   2.965   1.626  2.7711 -1.6751 -2.7229
  632TIP3    H226092   3.223   3.095   1.649 -1.6954  0.5108  0.9713
  633TIP3   OH226093   1.030   1.204   0.371 -0.0195  0.3093  0.6731
  633TIP3    H126094   1.076   1.121   0.382  0.9846  0.8946  1.0008
  633TIP3    H226095   0.945   1.180   0.334  0.4612 -0.8155  0.2660
  634TIP3   OH226096   2.972   2.600   0.098 -0.5416 -0.7137  0.2442
  634TIP3    H126097   2.898   2.544   0.075 -0.1319 -0.4806 -1.8582
  634TIP3    H226098   3.049   2.543   0.088 -0.2999 -0.4513  0.5767
  635TIP3   OH226099   5.059   3.153   9.911 -0.6031  0.1790  0.3766
  635TIP3    H126100   5.014   3.121   9.989 -1.5545  2.0642  0.6551
  635TIP3    H226101   4.992   3.202   9.863 -0.0051 -0.7796 -1.5688
  636TIP3   OH226102   1.163   6.431   9.326  0.5069  0.1170  0.2808
  636TIP3    H126103   1.157   6.335   9.330  0.2122  0.1628  1.1638
  636TIP3    H226104   1.229   6.453   9.392  0.3013  0.5490  0.3393
  637TIP3   OH226105   2.372   2.546   9.004  0.4720  0.2595  0.2068
  637TIP3    H126106   2.395   2.559   9.096 -2.6256  1.6353  0.9311
  637TIP3    H226107   2.291   2.495   9.006  1.0556 -0.8782 -1.8697
  638TIP3   OH226108   3.636   4.408   9.513  0.2979 -0.1344  0.8542
  638TIP3    H126109   3.570   4.341   9.494 -0.2468  0.8666 -1.1399
  638TIP3    H226110   3.633   4.466   9.437  2.7372  0.5785  1.2160
  639TIP3   OH226111   3.403   3.548   8.286 -0.4189  0.2085  0.0600
  639TIP3    H126112   3.487   3.559   8.331  0.0621 -0.1656 -0.7169
  639TIP3    H226113   3.403   3.458   8.255 -0.8343  0.3864 -0.4830
  640TIP3   OH226114   0.180   5.354   1.307 -0.1794  0.5627  0.4557
  640TIP3    H126115   0.171   5.322   1.217 -1.9159 -0.4009  0.9257
  640TIP3    H226116   0.094   5.391   1.327 -0.0632  0.0469  1.9803
  641TIP3   OH226117   1.729   6.581   1.210  0.4564 -0.3056  0.1946
  641TIP3    H126118   1.750   6.490   1.233 -1.0466  0.0086  3.1602
  641TIP3    H226119   1.659   6.573   1.145 -0.4373 -1.3094  1.2316
  642TIP3   OH226120   2.348   2.111   7.903 -0.0432 -0.0720  0.0569
  642TIP3    H126121   2.312   2.150   7.823  1.7584 -0.6237 -1.0874
  642TIP3    H226122   2.443   2.119   7.893  0.2423  0.0786  2.2933
  643TIP3   OH226123   0.890   5.842   0.160 -0.6437 -0.2453 -0.1950
  643TIP3    H126124   0.816   5.891   0.196 -2.5000 -1.5683 -2.0256
  643TIP3    H226125   0.853   5.788   0.091  2.2307 -0.0990 -2.0483
  644TIP3   OH226126   2.806   2.407   0.084 -0.2774  0.4210  0.1926
  644TIP3    H126127   2.856   2.340   0.131  1.3672  1.6526  0.3011
  644TIP3    H226128   2.727   2.362   0.055  0.9520 -1.6792 -0.1132
  645TIP3   OH226129   0.852   0.496   7.945 -0.2157  0.3575 -0.1595
  645TIP3    H126130   0.849   0.585   7.980 -0.5252  0.3220 -0.0959
  645TIP3    H226131   0.770   0.456   7.973  0.1594 -0.1256  0.2882
  646TIP3   OH226132   3.227   5.594   1.639  0.2720  0.2485  0.2210
  646TIP3    H126133   3.164   5.648   1.686 -1.1013 -1.1981  0.1474
  646TIP3    H226134   3.181   5.511   1.626  0.9849  0.2190 -2.7435
  647TIP3   OH226135   7.344   5.415   9.429  0.4233 -0.0437 -0.0391
  647TIP3    H126136   7.360   5.508   9.445  1.5704  0.2859 -2.5670
  647TIP3    H226137   7.398   5.370   9.495  1.0611  1.1060  0.2545
  648TIP3   OH226138   1.488   7.119   2.802  0.2293  0.3962  0.0679
  648TIP3    H126139   1.543   7.196   2.785  1.6383 -0.8841 -1.5775
  648TIP3    H226140   1.502   7.100   2.895  1.2066  1.1392  0.0923
  649TIP3   OH226141   0.557   1.292   9.139 -0.5110 -0.6104  0.5032
  649TIP3    H126142   0.566   1.368   9.197  1.5025 -2.0539  2.2593
  649TIP3    H226143   0.507   1.325   9.064  1.7611  2.8962  0.2951
  650TIP3   OH226144   7.503   5.381   1.830 -0.1440  0.1311 -0.1746
  650TIP3    H126145   7.432   5.423   1.782 -0.0657  0.6077  0.1283
  650TIP3    H226146   7.583   5.416   1.790 -0.0560  1.5920  1.1851
  651TIP3   OH226147   0.141   4.684   7.693  0.7151 -0.2311  0.7892
  651TIP3    H126148   0.074   4.718   7.633  2.7289  1.5596 -0.5520
  651TIP3    H226149   0.145   4.590   7.672 -2.1914 -0.7220  1.8353
  652TIP3   OH226150   3.483   2.255   9.268  0.2776  0.0322  0.2557
  652TIP3    H126151   3.521   2.338   9.240 -3.0377  2.1677  1.4800
  652TIP3    H226152   3.503   2.250   9.361 -1.6601  0.8886  0.7787
  653TIP3   OH226153   5.258   0.267   0.570  0.6777 -0.1153  0.0287
  653TIP3    H126154   5.205   0.208   0.516  2.2820 -1.0970 -0.5567
  653TIP3    H226155   5.228   0.251   0.660  0.1132 -0.7792 -0.2669
  654TIP3   OH226156   3.713   1.699   1.586  0.5543 -1.0109  0.5931
  654TIP3    H126157   3.745   1.779   1.545  0.4350 -1.8131 -1.1759
  654TIP3    H226158   3.618   1.712   1.592  0.8097  0.2491  3.3202
  655TIP3   OH226159   3.318   7.231   1.505  0.2255 -0.7980  0.6248
  655TIP3    H126160   3.405   7.272   1.508  0.3598 -1.1246  2.3112
  655TIP3    H226161   3.331   7.150   1.457  0.6455 -0.3867  0.0350
  656TIP3   OH226162   0.282   5.956   1.929  0.3261  0.1968  0.4455
  656TIP3    H126163   0.323   5.883   1.883  1.0281  0.1892  1.0612
  656TIP3    H226164   0.196   5.966   1.888 -0.4749 -2.0629  1.4059
  657TIP3   OH226165   5.332   3.992   9.404  0.4544 -0.4028 -0.5041
  657TIP3    H126166   5.323   4.020   9.496 -0.4165 -0.1312 -0.6680
  657TIP3    H226167   5.363   4.071   9.359  0.5541 -0.4435 -0.5082
  658TIP3   OH226168   7.034   0.034   8.608 -0.4867 -0.2166  0.1662
  658TIP3    H126169   6.978   0.111   8.620  0.3186  0.6739 -1.5254
  658TIP3    H226170   7.023  -0.016   8.689 -2.6775  0.5885  0.4275
  659TIP3   OH226171   4.858   4.154   7.017 -0.3869  0.6043  0.5920
  659TIP3    H126172   4.784   4.102   6.986  0.2587 -0.1131  0.2226
  659TIP3    H226173   4.828   4.245   7.011 -0.1706  0.5730 -2.6065
  660TIP3   OH226174   0.025   6.672   7.024  0.1037 -0.0449 -0.9991
  660TIP3    H126175  -0.033   6.667   6.948 -1.9736  0.0127  0.4982
  660TIP3    H226176   0.060   6.584   7.035 -1.2091 -0.5500 -0.8206
  661TIP3   OH226177   5.372   0.002   0.615  0.4562  0.1314  0.0849
  661TIP3    H126178   5.431   0.068   0.579  0.3488 -0.0279 -0.3957
  661TIP3    H226179   5.306  -0.011   0.547 -1.2449  1.6715  1.3382
  662TIP3   OH226180   4.441   7.313   0.493  0.2907  0.3135  0.3853
  662TIP3    H126181   4.508   7.318   0.561  0.5875  0.1601  0.1068
  662TIP3    H226182   4.426   7.219   0.480  0.2742  0.3394  0.2047
  663TIP3   OH226183   3.520   1.482   9.561  0.0301  0.3995 -0.1047
  663TIP3    H126184   3.447   1.517   9.613 -0.6171 -0.0016 -0.7199
  663TIP3    H226185   3.503   1.515   9.472  1.2249  1.2455 -0.0409
  664TIP3   OH226186   7.528   0.651   1.745 -0.1027 -0.1938 -0.0271
  664TIP3    H126187   7.596   0.586   1.766 -0.0385 -0.5271 -1.1999
  664TIP3    H226188   7.449   0.599   1.730 -0.4442  0.1368  0.5883
  665TIP3   OH226189   4.941   6.695   2.194 -0.0449  0.8201  0.0432
  665TIP3    H126190   4.942   6.611   2.148 -0.3887  0.7996  0.0737
  665TIP3    H226191   5.033   6.710   2.217  0.0377  0.5199 -0.0844
  666TIP3   OH226192   0.562   6.161   0.590 -0.1064  0.3661 -0.3158
  666TIP3    H126193   0.514   6.241   0.609 -0.6444 -0.3408  1.5427
  666TIP3    H226194   0.654   6.188   0.588 -0.3231  1.1265 -0.3786
  667TIP3   OH226195   6.952   5.024   7.819 -0.1235 -0.0368 -0.3668
  667TIP3    H126196   6.960   4.942   7.866  1.3688 -0.1847 -0.8295
  667TIP3    H226197   6.882   5.071   7.864  0.1747 -0.8387  0.9855
  668TIP3   OH226198   4.416   4.824   7.899  0.0685 -0.2468 -0.4111
  668TIP3    H126199   4.478   4.774   7.846  0.3491  1.5366 -1.8526
  668TIP3    H226200   4.340   4.837   7.842 -0.3367  0.2914  0.2247
  669TIP3   OH226201   0.407   1.384   7.453 -0.3514  0.4307  0.8325
  669TIP3    H126202   0.398   1.327   7.377 -1.5469  0.3439  1.0300
  669TIP3    H226203   0.486   1.436   7.435  0.0523 -0.4148  0.0961
  670TIP3   OH226204   5.854   6.876   9.651  0.1651  0.2248  0.6140
  670TIP3    H126205   5.881   6.964   9.678  2.1158 -0.6556  1.7685
  670TIP3    H226206   5.888   6.866   9.562  0.8397  0.2914  0.8595
  671TIP3   OH226207   7.032   5.688   7.504  0.2205  0.1542 -0.2957
  671TIP3    H126208   7.109   5.745   7.492 -0.2237  1.1589  1.3103
  671TIP3    H226209   7.022   5.681   7.599 -1.3159 -0.4615 -0.4754
  672TIP3   OH226210   1.934   7.393   1.700  0.4125 -0.0152  1.0105
  672TIP3    H126211   1.842   7.370   1.693  0.5705 -0.3860 -0.0646
  672TIP3    H226212   1.965   7.397   1.609  1.2208  1.0538  1.3104
  673TIP3   OH226213   7.234   6.988   2.099  0.0413 -0.1446 -0.1705
  673TIP3    H126214   7.213   7.079   2.077 -0.5536 -0.6641 -1.9620
  673TIP3    H226215   7.149   6.944   2.101  0.2271 -0.5121  1.6622
  674TIP3   OH226216   7.249   1.172   8.681  0.1646  0.5318  0.0487
  674TIP3    H126217   7.312   1.121   8.732  0.0054  1.6909  1.4658
  674TIP3    H226218   7.288   1.259   8.675 -0.4947  0.7902 -0.5750
  675TIP3   OH226219   5.361   0.711   0.638  0.7657  0.0999 -0.4553
  675TIP3    H126220   5.320   0.776   0.694 -2.2610 -1.3712 -0.7499
  675TIP3    H226221   5.389   0.642   0.698 -0.7103 -0.5806 -0.4861
  676TIP3   OH226222   4.375   6.701   2.932 -0.9910 -0.1838  0.6230
  676TIP3    H126223   4.345   6.779   2.979  0.4235  0.9600 -0.3092
  676TIP3    H226224   4.334   6.707   2.846 -0.9911 -0.5406  0.5968
  677TIP3   OH226225   3.105   1.919   8.257 -0.4906  0.0271  0.4912
  677TIP3    H126226   3.186   1.962   8.233 -0.1073 -1.7449 -1.7426
  677TIP3    H226227   3.133   1.838   8.300 -1.1713  1.0833  3.0831
  678TIP3   OH226228   1.064   1.525   1.490 -0.3698  0.2160  0.3858
  678TIP3    H126229   1.146   1.552   1.531 -1.3414  1.2268  1.7653
  678TIP3    H226230   1.046   1.439   1.528 -0.8227  0.7737  1.4982
  679TIP3   OH226231   4.128   5.065   7.960 -0.0239 -0.0272  0.1253
  679TIP3    H126232   4.066   5.073   8.032  1.3944 -1.0932  1.5376
  679TIP3    H226233   4.113   4.978   7.924 -0.7987  0.5398 -0.9752
  680TIP3   OH226234   4.329   0.495   3.147  0.3532 -0.3589  0.0556
  680TIP3    H126235   4.284   0.553   3.208 -0.4955 -1.2334  0.2980
  680TIP3    H226236   4.329   0.542   3.064 -0.0532  0.1124  0.3184
  681TIP3   OH226237   6.378   1.594   8.372  0.0732 -0.0126  0.4262
  681TIP3    H126238   6.341   1.672   8.331  1.3110  0.2380 -0.2939
  681TIP3    H226239   6.472   1.601   8.355  0.5214 -0.4434  2.4407
  682TIP3   OH226240   1.546   4.666   8.650 -0.3214 -0.1687 -0.0570
  682TIP3    H126241   1.587   4.680   8.735 -1.0974  1.4540  0.0868
  682TIP3    H226242   1.498   4.747   8.633 -3.5790 -1.9425 -0.1479
  683TIP3   OH226243   5.131   6.402   2.666 -0.0918  0.0410 -0.4110
  683TIP3    H126244   5.058   6.343   2.686  0.2785 -0.2112  0.2038
  683TIP3    H226245   5.144   6.453   2.745  0.9009 -0.4553 -0.2420
  684TIP3   OH226246   2.043   5.926   9.118  0.2285 -0.3859  0.5129
  684TIP3    H126247   1.983   5.936   9.192 -0.0758 -0.5804  0.2962
  684TIP3    H226248   2.097   6.005   9.119  1.1344 -0.9776  1.7541
  685TIP3   OH226249   7.211   2.524   7.542 -0.3735 -0.4262 -0.2014
  685TIP3    H126250   7.265   2.486   7.612 -1.9841 -0.9491  0.8290
  685TIP3    H226251   7.177   2.605   7.580 -0.4412 -0.1855 -0.7659
  686TIP3   OH226252   4.209   7.211   8.637 -0.3512  0.1514 -0.3926
  686TIP3    H126253   4.113   7.209   8.631 -0.3513 -1.1589 -0.2635
  686TIP3    H226254   4.238   7.174   8.554  0.0788  1.2285 -0.7393
  687TIP3   OH226255   3.322   0.137   9.718 -0.2879 -0.0804  0.7257
  687TIP3    H126256   3.235   0.152   9.756 -0.8012 -2.0797  0.4397
  687TIP3    H226257   3.372   0.097   9.789 -0.2094 -0.7175  0.3183
  688TIP3   OH226258   0.313   4.227   1.228 -0.3939  0.1468 -0.5972
  688TIP3    H126259   0.390   4.203   1.280  0.0489  0.1997 -1.2024
  688TIP3    H226260   0.281   4.308   1.267  0.6114  0.8071 -1.0759
  689TIP3   OH226261   2.430   4.853   1.274  0.7462 -0.5070 -0.0942
  689TIP3    H126262   2.509   4.803   1.253  0.7631 -0.6630  0.3234
  689TIP3    H226263   2.360   4.788   1.276  0.9120 -0.6917  1.3305
  690TIP3   OH226264   4.746   0.892   9.151 -0.1006  0.4923  0.7341
  690TIP3    H126265   4.676   0.936   9.201  0.0958 -0.6578  2.1037
  690TIP3    H226266   4.827   0.932   9.183 -0.0893  1.6016 -0.6223
  691TIP3   OH226267   0.097   7.108   2.305  0.3629 -0.0829  0.7449
  691TIP3    H126268   0.062   7.061   2.229  0.0966  1.6137 -0.2490
  691TIP3    H226269   0.049   7.073   2.379 -0.0816 -1.0975  0.0063
  692TIP3   OH226270   6.508   7.140   2.383  0.0340 -0.0173 -0.4291
  692TIP3    H126271   6.598   7.110   2.384  0.5504  1.4385 -0.5966
  692TIP3    H226272   6.470   7.101   2.305  0.9230  0.4645 -1.1175
  693TIP3   OH226273   4.215   5.862   8.470  0.3055 -0.1986  0.0290
  693TIP3    H126274   4.226   5.904   8.555 -1.3227  0.1245  0.1118
  693TIP3    H226275   4.251   5.774   8.482 -2.0665 -1.0193  1.8321
  694TIP3   OH226276   1.891   5.776   9.700  0.7066  0.0461 -0.1467
  694TIP3    H126277   1.934   5.695   9.728  0.9313  1.3961  4.3081
  694TIP3    H226278   1.962   5.841   9.699  0.2050  0.5941 -1.6795
  695TIP3   OH226279   7.135   3.163   8.382  0.1678 -0.2251  0.6791
  695TIP3    H126280   7.185   3.219   8.442  0.9537  0.7533 -0.8325
  695TIP3    H226281   7.076   3.223   8.337  0.8525 -0.6224 -0.8026
  696TIP3   OH226282   1.153   3.018   1.859 -0.1684  1.1325 -0.2807
  696TIP3    H126283   1.128   3.071   1.783 -0.7290  0.0685 -0.8653
  696TIP3    H226284   1.132   2.928   1.833 -0.0745  0.7173  1.0215
  697TIP3   OH226285   2.884   1.221   7.409 -0.5013 -0.3315  0.3508
  697TIP3    H126286   2.948   1.156   7.437 -2.0189 -1.5172  1.2338
  697TIP3    H226287   2.936   1.288   7.364  1.3202 -1.2799  0.9322
  698TIP3   OH226288   7.356   3.099   9.349 -0.1110  0.2746 -0.1096
  698TIP3    H126289   7.263   3.110   9.331 -0.9110 -4.6583 -0.1505
  698TIP3    H226290   7.363   3.013   9.389  4.2803  1.3036  1.9209
  699TIP3   OH226291   4.338   1.791   8.674 -0.1044  0.0726  0.8556
  699TIP3    H126292   4.395   1.825   8.743  0.0388 -0.1703  0.8552
  699TIP3    H226293   4.250   1.816   8.701  0.0123  0.5858  0.7788
  700TIP3   OH226294   0.379   3.283   0.926  0.5908  0.3045 -0.1248
  700TIP3    H126295   0.341   3.257   0.843  1.2210  0.6731 -0.5369
  700TIP3    H226296   0.461   3.327   0.903  0.8354  0.3075  0.6906
  701TIP3   OH226297   5.973   0.209   8.220 -0.5057 -0.0293  0.2631
  701TIP3    H126298   6.002   0.298   8.241  3.8389 -1.4610  1.4008
  701TIP3    H226299   5.975   0.205   8.125  0.4689  0.7764  0.2288
  702TIP3   OH226300   6.327   0.762   0.516 -0.0989  0.4270 -0.8214
  702TIP3    H126301   6.258   0.815   0.558 -0.5255  0.9525 -2.1227
  702TIP3    H226302   6.400   0.764   0.578 -1.5900 -1.0778  1.1477
  703TIP3   OH226303   7.638   0.263   7.160 -0.0883  0.2394 -0.2454
  703TIP3    H126304   7.669   0.351   7.140  1.6940 -0.6304 -1.5155
  703TIP3    H226305   7.663   0.249   7.252  3.1070 -0.2643 -1.0826
  704TIP3   OH226306   5.967   0.218   2.919  0.5375  0.5002 -0.1775
  704TIP3    H126307   5.922   0.163   2.982  0.7242  0.0340 -0.4403
  704TIP3    H226308   6.049   0.243   2.963 -0.4662  2.3250  0.7598
  705TIP3   OH226309   0.086   3.245   9.091  0.8089  0.7199  0.3837
  705TIP3    H126310   0.129   3.330   9.095  1.4773  0.3363  1.7733
  705TIP3    H226311   0.078   3.217   9.182  0.0135 -0.4270 -0.0066
  706TIP3   OH226312   4.571   6.544   8.169 -0.0286  0.6646  0.2488
  706TIP3    H126313   4.578   6.615   8.232 -0.9797  1.6565 -0.7063
  706TIP3    H226314   4.524   6.475   8.216 -1.2788  1.6250  0.4699
  707TIP3   OH226315   6.925   2.662   9.024  0.0416  0.0971 -0.5139
  707TIP3    H126316   6.861   2.660   9.094 -2.2493 -0.0889 -2.4775
  707TIP3    H226317   6.888   2.605   8.956  1.7729  0.8451 -2.1755
  708TIP3   OH226318   0.911   2.687   2.811 -0.0420 -0.0294 -0.2564
  708TIP3    H126319   0.942   2.776   2.827  0.5136  0.0486 -1.6318
  708TIP3    H226320   0.891   2.652   2.898 -0.5747  1.5347  0.2873
  709TIP3   OH226321   1.426   1.153   0.959 -0.4474  0.3280 -0.4836
  709TIP3    H126322   1.439   1.247   0.952  0.3996  0.3402  0.8967
  709TIP3    H226323   1.333   1.143   0.981 -0.3280  0.8945  0.2999
  710TIP3   OH226324   0.659   0.346   7.300 -0.3897  0.0656  0.3226
  710TIP3    H126325   0.710   0.376   7.376 -2.4129 -0.7345  2.0950
  710TIP3    H226326   0.684   0.254   7.289  0.6527  0.4367 -0.7015
  711TIP3   OH226327   6.899   5.812   2.444 -0.4209  0.1126 -0.4906
  711TIP3    H126328   6.810   5.808   2.410 -0.8529 -1.8856  0.7376
  711TIP3    H226329   6.888   5.833   2.536  0.3284 -0.7315 -0.2002
  712TIP3   OH226330   5.239   7.275   0.058 -0.3594  0.3640  0.0467
  712TIP3    H126331   5.162   7.255   0.005 -0.5405 -2.0500  1.0950
  712TIP3    H226332   5.310   7.228   0.015  0.0665  0.7301  0.3504
  713TIP3   OH226333   2.799   7.268   3.135  0.2825 -0.0013  0.2985
  713TIP3    H126334   2.821   7.360   3.146  0.6920 -0.0860  0.2332
  713TIP3    H226335   2.713   7.258   3.175 -0.0074  0.5237 -0.1840
  714TIP3   OH226336   0.472   6.901   2.744  0.1273  0.2793  0.2423
  714TIP3    H126337   0.499   6.905   2.836  0.5221  2.1944  0.0757
  714TIP3    H226338   0.549   6.871   2.697 -0.1296 -0.8872  0.5315
  715TIP3   OH226339   6.250   6.624   9.433  0.0198 -0.1618  0.7531
  715TIP3    H126340   6.232   6.689   9.501  0.7781 -0.5220  1.3019
  715TIP3    H226341   6.315   6.565   9.471  1.6265  0.4988 -0.7903
  716TIP3   OH226342   2.327   2.068   0.715 -0.0824 -0.0860 -0.2680
  716TIP3    H126343   2.297   1.981   0.688  0.6819 -0.0207 -1.3854
  716TIP3    H226344   2.332   2.118   0.634 -1.3468  1.2930  0.4556
  717TIP3   OH226345   4.786   1.289   8.430  0.0075 -0.0749 -0.2823
  717TIP3    H126346   4.770   1.198   8.453 -0.0056 -0.1075 -0.4193
  717TIP3    H226347   4.706   1.318   8.386 -0.0186  0.0260 -0.1691
  718TIP3   OH226348   1.688   0.238   9.203  0.1228 -0.0352 -0.0273
  718TIP3    H126349   1.762   0.293   9.229 -0.1715  1.2621 -1.7605
  718TIP3    H226350   1.661   0.195   9.284  0.0154  2.8220  1.5938
  719TIP3   OH226351   7.564   0.313   8.228 -0.3443  0.2074  0.3232
  719TIP3    H126352   7.617   0.234   8.225  1.2821  1.2601 -0.4094
  719TIP3    H226353   7.497   0.296   8.294 -1.2694 -2.4859 -1.1572
  720TIP3   OH226354   6.522   0.710   0.301 -0.6072  0.7305  0.0752
  720TIP3    H126355   6.492   0.749   0.383 -3.9172  0.4224 -0.8168
  720TIP3    H226356   6.442   0.678   0.260  1.2888 -1.9606 -1.8597
  721TIP3   OH226357   3.973   0.101   7.040 -0.0259 -0.2020 -0.2053
  721TIP3    H126358   3.923   0.181   7.022  0.3397  0.2422  0.6912
  721TIP3    H226359   4.060   0.120   7.007  1.1171  1.2479  3.2321
  722TIP3   OH226360   4.423   5.187   8.985 -0.0464 -0.0385  0.0259
  722TIP3    H126361   4.499   5.217   8.935  0.0060  0.4012  0.3651
  722TIP3    H226362   4.372   5.266   9.001  0.8055  0.1522  2.1623
  723TIP3   OH226363   3.094   3.007   2.203  0.5595  0.1840 -0.1140
  723TIP3    H126364   3.169   3.067   2.207  1.7855 -1.3608  1.5601
  723TIP3    H226365   3.018   3.062   2.220  1.2764  1.7747 -1.7358
  724TIP3   OH226366   4.685   1.029   8.521  0.0463 -0.0336  0.1931
  724TIP3    H126367   4.590   1.039   8.511 -0.3157 -1.9690  1.1652
  724TIP3    H226368   4.706   1.080   8.599 -0.1807  0.3907 -0.0165
  725TIP3   OH226369   7.476   3.254   2.253 -0.1540  0.4872  0.1562
  725TIP3    H126370   7.561   3.278   2.289 -0.4526  1.5581  0.1767
  725TIP3    H226371   7.452   3.174   2.300  0.4857  0.6049  0.6987
  726TIP3   OH226372   3.319   2.191   1.323 -0.0253 -0.1116  0.1933
  726TIP3    H126373   3.323   2.146   1.408 -1.0190  0.3225  0.4849
  726TIP3    H226374   3.233   2.232   1.322  0.9269  2.0169  0.0708
  727TIP3   OH226375   2.315   0.488   9.411  0.4392 -0.1818 -0.0508
  727TIP3    H126376   2.279   0.400   9.423  0.5972 -0.0401  1.7879
  727TIP3    H226377   2.402   0.474   9.374  0.2888 -0.7657 -0.1912
  728TIP3   OH226378   5.455   7.505   0.826 -0.2593 -0.8075  0.3148
  728TIP3    H126379   5.533   7.480   0.777 -1.4566 -3.5117 -0.3738
  728TIP3    H226380   5.398   7.547   0.760 -0.0065 -0.2062  0.4746
  729TIP3   OH226381   2.406   2.141   8.742 -0.4942 -0.3960  0.0287
  729TIP3    H126382   2.467   2.195   8.791 -1.0173  0.2685 -0.0410
  729TIP3    H226383   2.330   2.197   8.727 -0.4910 -0.6868 -1.2423
  730TIP3   OH226384   3.192   2.773   0.110 -0.2045 -0.1368 -0.2019
  730TIP3    H126385   3.208   2.709   0.042 -0.9899 -0.1691 -0.3721
  730TIP3    H226386   3.097   2.788   0.107  0.1621  2.4379 -1.4447
  731TIP3   OH226387   0.021   5.110   8.252 -0.0237 -0.3718 -0.0733
  731TIP3    H126388   0.101   5.059   8.239  0.8245  0.3781  1.8457
  731TIP3    H226389  -0.003   5.141   8.164  1.1092 -1.5746 -0.8375
  732TIP3   OH226390   1.173   6.938   8.109 -0.5621  0.1781  0.3866
  732TIP3    H126391   1.166   6.868   8.174  0.2185  1.5399  2.0316
  732TIP3    H226392   1.236   6.999   8.147  0.4133  0.7461 -1.9797
  733TIP3   OH226393   1.145   1.121   7.935 -0.0960 -0.6113 -0.0738
  733TIP3    H126394   1.052   1.100   7.932 -0.1183 -0.9110  1.6856
  733TIP3    H226395   1.161   1.146   8.025  1.2435  0.9362 -0.6880
  734TIP3   OH226396   3.750   6.173   7.816  0.2324  0.3523 -0.0674
  734TIP3    H126397   3.723   6.263   7.799 -0.3896  0.0462 -0.7599
  734TIP3    H226398   3.795   6.146   7.736  2.4059  0.7511  0.9448
  735TIP3   OH226399   2.274   1.370   7.766 -0.7834  0.0193  0.2595
  735TIP3    H126400   2.340   1.391   7.699  1.2419 -3.0190  1.0952
  735TIP3    H226401   2.227   1.295   7.730 -0.9525 -0.4438  1.4030
  736TIP3   OH226402   2.892   3.494   0.748 -0.4288  0.7399 -0.1947
  736TIP3    H126403   2.814   3.500   0.693 -0.1825  0.7675 -0.5472
  736TIP3    H226404   2.961   3.467   0.687 -0.4284 -0.5573  0.3566
  737TIP3   OH226405   4.917   5.736   8.410  0.0934 -0.4235 -0.2602
  737TIP3    H126406   4.860   5.662   8.390 -1.8795  0.9555 -0.0409
  737TIP3    H226407   4.923   5.785   8.328 -1.8456  1.2084  0.4985
  738TIP3   OH226408   2.399   3.129   8.541 -0.6971  1.0479  0.0371
  738TIP3    H126409   2.392   3.035   8.523  0.0881  1.0434 -0.2852
  738TIP3    H226410   2.376   3.137   8.634 -2.7640  0.8144 -0.4179
  739TIP3   OH226411   2.383   5.671   0.057 -0.1068 -0.0892  0.4107
  739TIP3    H126412   2.341   5.627   0.131  1.3636  0.7535  1.8075
  739TIP3    H226413   2.470   5.633   0.052 -0.3159 -0.4563 -1.2242
  740TIP3   OH226414   4.954   7.557   8.602 -0.2598  0.1386  0.1589
  740TIP3    H126415   4.950   7.474   8.649  1.2396  0.3544  0.7168
  740TIP3    H226416   4.896   7.615   8.651 -0.7572 -0.3734  0.1874
  741TIP3   OH226417   2.798   2.342   8.032 -0.6514 -0.1504 -0.0762
  741TIP3    H126418   2.762   2.258   8.005  2.2266 -1.5747  0.0717
  741TIP3    H226419   2.814   2.333   8.126  0.6251  0.1259 -0.2390
  742TIP3   OH226420   0.785   3.872   8.252  0.5583  0.1178  0.4350
  742TIP3    H126421   0.846   3.814   8.206 -0.1963 -1.2841  1.1040
  742TIP3    H226422   0.701   3.856   8.209  0.1821  0.0799  1.1621
  743TIP3   OH226423   3.597   2.547   8.441  0.1181  0.0728 -0.0985
  743TIP3    H126424   3.519   2.529   8.494 -0.2770 -0.5608 -0.8765
  743TIP3    H226425   3.605   2.643   8.441 -0.9776  0.1713 -0.4553
  744TIP3   OH226426   6.834   6.112   0.116 -0.0684 -0.5181  0.3497
  744TIP3    H126427   6.817   6.159   0.034  0.1843  1.3655  1.3108
  744TIP3    H226428   6.925   6.082   0.108 -0.4369 -1.4306 -0.5414
  745TIP3   OH226429   3.513   6.803   8.313  0.0907  0.1478  0.0042
  745TIP3    H126430   3.420   6.814   8.332  0.3841  0.5119  1.3404
  745TIP3    H226431   3.520   6.714   8.279 -0.4852 -0.6687  1.9056
  746TIP3   OH226432   1.953   0.525   9.910 -0.2407  0.2475 -0.3574
  746TIP3    H126433   2.005   0.447   9.929 -1.5480 -0.7133 -0.5657
  746TIP3    H226434   1.993   0.562   9.831 -0.9889 -1.5493 -1.6280
  747TIP3   OH226435   1.195   5.910   8.701 -0.5800  0.1161  0.1743
  747TIP3    H126436   1.119   5.892   8.756 -1.5469 -0.6658 -1.3301
  747TIP3    H226437   1.249   5.831   8.708 -0.7508 -0.0235 -0.0547
  748TIP3   OH226438   1.251   6.405   0.145 -0.6109 -0.9520  0.2539
  748TIP3    H126439   1.187   6.340   0.116  0.3020 -1.2993 -1.1176
  748TIP3    H226440   1.259   6.465   0.071 -0.8820  0.3082  1.2131
  749TIP3   OH226441   7.053   2.212   7.720 -0.1342  0.2656 -0.7787
  749TIP3    H126442   7.039   2.286   7.777  0.8011 -0.6093  0.6449
  749TIP3    H226443   6.974   2.208   7.665 -0.6829  1.6012 -0.1156
  750TIP3   OH226444   6.386   1.272   7.532  0.4354  0.0957 -0.1471
  750TIP3    H126445   6.405   1.279   7.626 -1.0623  0.1393  0.1839
  750TIP3    H226446   6.379   1.178   7.516  1.9151  0.0302 -0.5001
  751TIP3   OH226447   1.756   6.901   7.534 -0.0272 -0.2482  0.1510
  751TIP3    H126448   1.809   6.956   7.476 -1.9557  1.0415 -0.4799
  751TIP3    H226449   1.771   6.812   7.502 -0.9602  0.3949 -2.3871
  752TIP3   OH226450   3.106   1.798   0.161  0.2328 -0.4432  0.0419
  752TIP3    H126451   3.140   1.852   0.232  1.7272  0.2987 -1.1884
  752TIP3    H226452   3.015   1.780   0.186  0.2209  1.1891  1.3185
  753TIP3   OH226453   5.539   4.377   9.544 -0.3683 -0.0572  0.0638
  753TIP3    H126454   5.583   4.386   9.459  0.7598  1.8594  0.7952
  753TIP3    H226455   5.476   4.449   9.546 -0.7911 -0.4375  0.6279
  754TIP3   OH226456   1.508   6.414   2.711 -0.6822 -0.3809 -0.4573
  754TIP3    H126457   1.532   6.433   2.620  0.4363  1.9163  0.2613
  754TIP3    H226458   1.567   6.467   2.764 -2.5968 -0.1234  1.5853
  755TIP3   OH226459   3.213   1.229   7.457 -0.1823 -0.0541 -0.1778
  755TIP3    H126460   3.284   1.287   7.429  0.8798 -1.0981  0.2921
  755TIP3    H226461   3.226   1.148   7.408  0.1798 -0.9836  1.3761
  756TIP3   OH226462   1.216   5.912   9.640  0.7936  0.2233 -0.3370
  756TIP3    H126463   1.227   5.991   9.587  0.2013  0.3179 -0.3289
  756TIP3    H226464   1.288   5.915   9.704  0.4505  1.0517  0.0258
  757TIP3   OH226465   1.793   3.718   1.680  0.3047 -0.3081  0.3481
  757TIP3    H126466   1.711   3.755   1.710 -0.1402  0.1425 -1.3190
  757TIP3    H226467   1.842   3.699   1.760 -1.0629  0.2030  1.3354
  758TIP3   OH226468   6.218   1.760   7.231  0.4625 -0.1325  0.0375
  758TIP3    H126469   6.207   1.731   7.141  1.6657  0.6677 -0.3941
  758TIP3    H226470   6.187   1.687   7.284 -0.8729 -0.3639 -1.0160
  759TIP3   OH226471   4.298   0.822   0.703 -0.2802  0.2500 -0.2319
  759TIP3    H126472   4.234   0.753   0.721  0.4778 -1.8924 -4.4438
  759TIP3    H226473   4.378   0.792   0.745 -0.9734  0.8047  1.5365
  760TIP3   OH226474   4.765   1.856   1.594  0.0206 -0.4823 -0.3445
  760TIP3    H126475   4.696   1.824   1.653 -0.0224  1.9499  1.0673
  760TIP3    H226476   4.734   1.833   1.506 -2.2976 -0.0301  0.2931
  761TIP3   OH226477   0.975   1.784   1.427  0.6464 -0.2758  0.2982
  761TIP3    H126478   1.010   1.695   1.428  0.8899 -0.2879  3.6977
  761TIP3    H226479   0.891   1.777   1.474  0.2375  1.1423 -0.1652
  762TIP3   OH226480   7.258   2.178   1.375 -0.1025 -0.3668 -0.0901
  762TIP3    H126481   7.321   2.179   1.448  0.4466 -0.7820 -0.5481
  762TIP3    H226482   7.179   2.218   1.411  0.9620  1.7486  0.0109
  763TIP3   OH226483   0.634   3.607   0.675  0.2105 -0.4142  0.1789
  763TIP3    H126484   0.569   3.677   0.665  1.6154  0.9776  0.3339
  763TIP3    H226485   0.687   3.612   0.595  1.6954  0.2227  1.1485
  764TIP3   OH226486   1.316   2.082   7.330  0.1795 -0.5074 -0.7624
  764TIP3    H126487   1.244   2.131   7.289  1.0811  1.7110  0.1562
  764TIP3    H226488   1.289   2.072   7.421 -0.0527 -1.9501 -0.9581
  765TIP3   OH226489   1.233   6.114   1.583 -0.0780  0.2271 -0.0883
  765TIP3    H126490   1.284   6.194   1.577  1.1379 -0.3037  1.9624
  765TIP3    H226491   1.293   6.044   1.555  0.0569 -0.2934  1.3924
  766TIP3   OH226492   1.866   2.048   9.484  0.4424 -0.0811 -0.0827
  766TIP3    H126493   1.943   2.083   9.439 -0.8784  3.0128 -0.2250
  766TIP3    H226494   1.902   1.997   9.556  2.6003  0.0180 -0.9990
  767TIP3   OH226495   2.386   0.241   0.132 -0.2507 -0.6874 -0.1271
  767TIP3    H126496   2.403   0.200   0.217 -0.1546 -1.4796 -0.5226
  767TIP3    H226497   2.445   0.196   0.072  1.3319  1.3784 -0.2448
  768TIP3   OH226498   0.856   6.600   9.822  0.1494  0.2177  0.5599
  768TIP3    H126499   0.773   6.555   9.835 -1.0213  1.1721 -2.7086
  768TIP3    H226500   0.833   6.692   9.819  1.3777  0.5239 -0.0765
  769TIP3   OH226501   2.754   2.965   3.438 -0.1215  0.3789 -0.0381
  769TIP3    H126502   2.791   2.995   3.522 -0.8815  0.9611  0.0998
  769TIP3    H226503   2.813   2.896   3.410 -0.3890 -0.5152  1.4720
  770TIP3   OH226504   7.630   5.634   1.554  0.4344  0.6649 -0.4390
  770TIP3    H126505   7.568   5.692   1.598 -0.5033 -0.1357 -0.6749
  770TIP3    H226506   7.662   5.576   1.623  0.3926  0.6350 -0.4442
  771TIP3   OH226507   7.667   3.508   0.684 -0.2329 -0.3598 -0.1882
  771TIP3    H126508   7.597   3.474   0.739 -0.1069 -1.5364 -0.7354
  771TIP3    H226509   7.632   3.591   0.649 -1.2916 -0.8550 -0.3322
  772TIP3   OH226510   0.869   4.206   8.632 -0.0768 -0.5670 -0.1197
  772TIP3    H126511   0.876   4.139   8.564 -1.2822  0.6312 -1.4914
  772TIP3    H226512   0.822   4.162   8.703 -0.6561 -1.2590 -0.8973
  773TIP3   OH226513   5.597   5.209   8.552  0.2814 -0.7017  0.1417
  773TIP3    H126514   5.557   5.146   8.492  0.8255 -0.5956 -0.3390
  773TIP3    H226515   5.663   5.254   8.500 -2.7541  3.1858 -0.7919
  774TIP3   OH226516   0.288   3.793   0.013 -0.2553 -0.1701  0.2312
  774TIP3    H126517   0.290   3.868  -0.046 -0.6976  1.1363  1.7824
  774TIP3    H226518   0.380   3.775   0.032 -0.0664 -1.1479 -1.4507
  775TIP3   OH226519   7.045   0.198   9.743  0.0874  0.0490  0.8564
  775TIP3    H126520   7.099   0.173   9.818  1.7816 -0.3846 -0.4445
  775TIP3    H226521   7.084   0.151   9.669 -1.5679  0.4074 -0.3014
  776TIP3   OH226522   7.613   2.566   9.078 -0.3463  0.3053  0.4826
  776TIP3    H126523   7.682   2.562   9.144 -1.5852 -0.4676  1.8056
  776TIP3    H226524   7.656   2.598   8.999  1.3603  0.4886  1.4470
  777TIP3   OH226525   5.505   2.764   9.601  0.3150 -0.6531 -0.2988
  777TIP3    H126526   5.410   2.750   9.603  0.0030  1.0885 -1.1158
  777TIP3    H226527   5.527   2.789   9.691 -0.1359 -0.3062 -0.2798
  778TIP3   OH226528   0.594   5.143   9.505 -0.3435  0.0554  0.0224
  778TIP3    H126529   0.599   5.066   9.448 -2.2935 -1.4667  1.7496
  778TIP3    H226530   0.682   5.151   9.543 -0.0097 -1.0761 -0.4758
  779TIP3   OH226531   6.692   6.968   0.935  0.1605  0.3821 -0.2979
  779TIP3    H126532   6.730   6.897   0.883 -0.0778 -0.5239  0.7280
  779TIP3    H226533   6.635   6.923   0.998  0.0672  1.4857  0.4196
  780TIP3   OH226534   4.288   5.742   9.725  0.1359  0.0532  0.2104
  780TIP3    H126535   4.340   5.810   9.768  0.7724 -0.6068  0.4915
  780TIP3    H226536   4.226   5.714   9.793 -0.2120  0.4314  0.0555
  781TIP3   OH226537   1.673   1.339   0.741 -0.2604 -1.2829 -0.1357
  781TIP3    H126538   1.764   1.371   0.738 -0.9421  0.8072  0.0418
  781TIP3    H226539   1.680   1.247   0.717  1.8610 -1.0788 -0.5542
  782TIP3   OH226540   3.021   4.585   8.458 -0.2754  0.2449  0.5021
  782TIP3    H126541   3.086   4.522   8.491 -0.0288  0.0918 -0.2532
  782TIP3    H226542   2.937   4.552   8.491 -0.0099  0.2500  1.2000
  783TIP3   OH226543   7.162   1.143   9.273  0.2757 -0.5494  0.0852
  783TIP3    H126544   7.153   1.192   9.355 -1.7150 -0.1826 -0.2910
  783TIP3    H226545   7.136   1.054   9.295  2.6890 -1.2160  0.4849
  784TIP3   OH226546   3.824   6.966   9.160 -0.3838  0.1056 -0.0553
  784TIP3    H126547   3.915   6.986   9.181 -0.6913  1.4395  0.0814
  784TIP3    H226548   3.822   6.964   9.064 -0.0656 -0.6619 -0.0489
  785TIP3   OH226549   0.785   2.687   7.497 -0.3331  0.1377 -0.5218
  785TIP3    H126550   0.702   2.729   7.475 -0.4445  0.1006 -0.1802
  785TIP3    H226551   0.810   2.726   7.580 -0.3104 -0.2905 -0.3260
  786TIP3   OH226552   2.067   7.419   7.284  0.2296  0.0427  0.0823
  786TIP3    H126553   2.133   7.426   7.214 -0.3908  2.1896 -0.3674
  786TIP3    H226554   1.985   7.399   7.237  0.1456 -0.3581  0.3988
  787TIP3   OH226555   3.040   3.654   1.140 -0.2214 -0.4483  0.0936
  787TIP3    H126556   3.042   3.560   1.122 -0.7772 -0.3202 -0.7051
  787TIP3    H226557   3.131   3.682   1.133 -0.1645 -0.7746 -0.5448
  788TIP3   OH226558   1.524   5.901   3.027  0.1952  0.2294 -0.4550
  788TIP3    H126559   1.519   5.964   3.098  1.4574  1.0434 -1.0611
  788TIP3    H226560   1.434   5.894   2.995 -0.4062 -0.2390  1.2615
  789TIP3   OH226561   6.653   2.181   7.861  0.4046 -0.4386  0.6278
  789TIP3    H126562   6.595   2.113   7.826  1.7118 -1.2296 -0.0871
  789TIP3    H226563   6.659   2.162   7.954 -0.7695 -0.1020  0.7940
  790TIP3   OH226564   6.191   1.142   9.454  0.2221 -0.0433  0.0913
  790TIP3    H126565   6.144   1.221   9.481  0.3435  0.0422  0.0556
  790TIP3    H226566   6.186   1.084   9.530  1.1198  0.4457  0.5433
  791TIP3   OH226567   7.369   0.945   2.255  0.3560 -0.0190 -0.7827
  791TIP3    H126568   7.310   0.975   2.186 -1.0541 -2.1543 -0.6028
  791TIP3    H226569   7.319   0.955   2.336  0.7743 -0.5550 -0.4522
  792TIP3   OH226570   4.384   2.951   9.008 -0.7133 -0.2240  0.0453
  792TIP3    H126571   4.408   2.877   8.952  0.9483  0.0432  0.3541
  792TIP3    H226572   4.326   3.005   8.954  1.9536  0.7790 -2.0055
  793TIP3   OH226573   5.176   0.147   0.818 -0.4490 -0.3165  0.1324
  793TIP3    H126574   5.126   0.144   0.899 -0.1521 -1.0125  0.2937
  793TIP3    H226575   5.205   0.057   0.803  0.3510 -0.0215 -0.2012
  794TIP3   OH226576   4.028   1.113   7.402 -0.2888  0.2467 -0.1146
  794TIP3    H126577   4.105   1.076   7.446 -0.7499 -0.8295 -0.1746
  794TIP3    H226578   4.053   1.118   7.310  0.3368  1.5922  0.1200
  795TIP3   OH226579   7.416   5.462   8.467  0.5288  0.7559  0.0953
  795TIP3    H126580   7.394   5.418   8.549  0.7151 -1.1752 -0.8299
  795TIP3    H226581   7.510   5.446   8.456  0.1293 -1.0155 -1.5307
  796TIP3   OH226582   6.497   2.197   7.498  0.4054  0.4547  0.2353
  796TIP3    H126583   6.416   2.200   7.446  0.5445 -0.1844 -0.0324
  796TIP3    H226584   6.538   2.113   7.474  1.9021  1.4160 -0.7846
  797TIP3   OH226585   1.509   5.453   0.334  0.6758  0.1840 -0.3313
  797TIP3    H126586   1.542   5.506   0.406  0.6168 -0.1774 -0.0325
  797TIP3    H226587   1.552   5.488   0.256  0.3826  0.8871 -0.1876
  798TIP3   OH226588   2.261   1.415   1.943 -0.1498  0.6331  0.0681
  798TIP3    H126589   2.318   1.402   2.019  0.9552  2.0098 -0.4835
  798TIP3    H226590   2.174   1.428   1.980 -0.5551 -3.0955  0.8813
  799TIP3   OH226591   1.699   3.358   0.685 -0.3728 -0.1308  0.0201
  799TIP3    H126592   1.659   3.419   0.622 -0.6160 -0.8704 -0.5508
  799TIP3    H226593   1.662   3.385   0.770  1.4660  2.1587  0.2094
  800TIP3   OH226594   5.126   4.466   9.539  0.3558 -0.3709  0.0923
  800TIP3    H126595   5.043   4.492   9.500  0.2226  1.7575  1.5951
  800TIP3    H226596   5.106   4.387   9.589 -0.8592  0.2581  0.6423
  801TIP3   OH226597   1.294   2.246   9.632  0.0190  0.7263  0.4603
  801TIP3    H126598   1.368   2.304   9.646 -0.1765  0.8856  0.8581
  801TIP3    H226599   1.218   2.296   9.663  0.0956 -0.5114  2.8886
  802TIP3   OH226600   2.188   0.738   8.847  0.7079  0.7997 -0.0593
  802TIP3    H126601   2.198   0.697   8.761  1.2848 -0.2591  0.4879
  802TIP3    H226602   2.095   0.757   8.854  0.1896 -1.5809  0.1404
  803TIP3   OH226603   4.087   0.827   1.757 -0.7285  0.0561  0.0584
  803TIP3    H126604   4.013   0.796   1.809  0.5217 -0.7644  1.4158
  803TIP3    H226605   4.131   0.890   1.814  0.6321 -0.8021 -0.0151
  804TIP3   OH226606   6.958   3.593   7.979  0.1808  0.0773  0.4456
  804TIP3    H126607   6.963   3.636   8.064 -0.4492 -1.2918  1.2077
  804TIP3    H226608   6.865   3.594   7.957 -0.1106 -2.2270  1.2507
  805TIP3   OH226609   3.590   3.124   9.600  0.5176  0.1624  0.2900
  805TIP3    H126610   3.634   3.093   9.521 -2.6272 -1.1476 -1.0872
  805TIP3    H226611   3.498   3.106   9.586 -0.5979  2.8924  2.9413
  806TIP3   OH226612   2.028   7.637   8.021  0.2914  0.3181  0.0625
  806TIP3    H126613   1.940   7.610   8.046  0.0785 -0.3789 -1.3587
  806TIP3    H226614   2.086   7.590   8.082 -0.2898  0.5124  0.7768
  807TIP3   OH226615   5.002   5.288   7.852  0.2961  0.2688  0.0730
  807TIP3    H126616   4.952   5.267   7.931 -0.3802 -0.4959 -0.5477
  807TIP3    H226617   5.087   5.247   7.866  0.3067  0.4473  0.5542
  808TIP3   OH226618   7.225   5.051   0.466  0.0539 -0.3889  0.5082
  808TIP3    H126619   7.289   5.119   0.485  0.5411 -0.2866 -1.2941
  808TIP3    H226620   7.159   5.094   0.411 -0.6571 -0.9159  0.9269
  809TIP3   OH226621   1.124   6.294   7.894  0.0134  0.2811  0.3986
  809TIP3    H126622   1.033   6.270   7.882 -0.3426 -0.1292  3.2135
  809TIP3    H226623   1.160   6.225   7.949  1.5330  1.3318  0.8003
  810TIP3   OH226624   3.577   2.597   1.381  0.2824 -0.0447 -0.1382
  810TIP3    H126625   3.525   2.543   1.322  0.1327 -0.9699  0.8202
  810TIP3    H226626   3.667   2.568   1.367  0.0194 -2.1218  1.8860
  811TIP3   OH226627   1.666   0.675   9.117 -0.2791 -0.0966  0.1522
  811TIP3    H126628   1.579   0.703   9.145 -0.1922 -0.4571  0.7830
  811TIP3    H226629   1.694   0.612   9.183  1.1103  1.1561  0.8186
  812TIP3   OH226630   4.452   4.406   9.489 -0.1795 -0.1163 -0.2281
  812TIP3    H126631   4.413   4.323   9.515  0.6355 -0.3896  0.1744
  812TIP3    H226632   4.526   4.382   9.433  0.4224  0.2935  0.3592
  813TIP3   OH226633   2.416   4.282   9.363  0.2479 -0.0481 -0.3514
  813TIP3    H126634   2.351   4.303   9.296  0.5018 -0.7222 -0.8142
  813TIP3    H226635   2.407   4.188   9.376  0.3545  0.0395  0.4069
  814TIP3   OH226636   3.018   7.057   2.571  0.2228 -0.1028  0.4935
  814TIP3    H126637   2.935   7.096   2.598  0.1173  0.3072 -0.3807
  814TIP3    H226638   3.060   7.030   2.653 -0.2510  0.7443  1.0304
  815TIP3   OH226639   5.795   6.090   9.393  0.1567 -0.0648  0.4037
  815TIP3    H126640   5.851   6.082   9.316  0.2415  0.6029  0.3865
  815TIP3    H226641   5.749   6.006   9.399  0.2372 -0.1632 -0.3026
  816TIP3   OH226642   7.556   5.525   7.122  0.7365  0.1164 -0.0341
  816TIP3    H126643   7.648   5.527   7.146  1.1070 -1.3678 -1.1775
  816TIP3    H226644   7.552   5.573   7.039  0.6088 -0.4658 -0.3647
  817TIP3   OH226645   7.432   1.568   0.829  0.1947  0.6016  0.3529
  817TIP3    H126646   7.465   1.506   0.895  2.1132  0.6408 -0.5081
  817TIP3    H226647   7.429   1.652   0.875 -0.3996  0.2690  0.9352
  818TIP3   OH226648   0.913   2.929   2.638  0.3052 -0.0708  0.1126
  818TIP3    H126649   0.862   2.933   2.719 -1.2705 -1.9926 -0.6812
  818TIP3    H226650   1.000   2.900   2.664  0.1395  0.3820  1.2036
  819TIP3   OH226651   7.143   0.578   0.249 -0.2665  0.0686  0.3589
  819TIP3    H126652   7.215   0.515   0.239  1.2341  1.7267  0.2411
  819TIP3    H226653   7.068   0.524   0.275  1.4982 -1.5445  2.5848
  820TIP3   OH226654   4.228   0.749   2.104 -0.1361  0.0188 -0.4277
  820TIP3    H126655   4.252   0.672   2.053  0.3020 -0.4474  0.4530
  820TIP3    H226656   4.144   0.777   2.068  0.4544  0.0897 -1.8060
  821TIP3   OH226657   2.180   5.307   1.059 -0.2267 -0.6313  0.2563
  821TIP3    H126658   2.184   5.399   1.032 -0.0637 -1.0738 -1.3061
  821TIP3    H226659   2.207   5.308   1.151  0.0850  0.8401  0.1730
  822TIP3   OH226660   3.908   1.463   0.030 -0.1651  0.0971 -0.3223
  822TIP3    H126661   3.846   1.391   0.016  0.0855 -0.3132  0.5455
  822TIP3    H226662   3.974   1.453  -0.039 -0.6282  0.0526 -0.7609
  823TIP3   OH226663   0.388   1.111   2.076 -0.9783 -0.1779  0.4274
  823TIP3    H126664   0.319   1.163   2.116 -0.7325  0.2398  0.3165
  823TIP3    H226665   0.428   1.064   2.149 -1.7963 -0.9171  0.4036
  824TIP3   OH226666   5.987   5.710   9.970  0.5307  0.1859  0.3740
  824TIP3    H126667   6.054   5.697  10.037 -0.0882  0.6793  1.1151
  824TIP3    H226668   6.033   5.702   9.887  1.3620 -0.2077  0.8617
  825TIP3   OH226669   1.560   5.009   8.939 -0.4024  0.1424 -0.0986
  825TIP3    H126670   1.536   5.077   8.876  0.1078  0.6410  0.2369
  825TIP3    H226671   1.618   5.053   9.001  0.2551 -0.6916 -0.1001
  826TIP3   OH226672   1.496   7.319   0.521  0.3051  0.4105 -0.0641
  826TIP3    H126673   1.425   7.319   0.585  0.8392  1.1409  0.5472
  826TIP3    H226674   1.459   7.363   0.444 -0.6162 -1.2268 -0.6167
  827TIP3   OH226675   6.672   3.158   7.982 -0.2711 -0.1752 -0.6528
  827TIP3    H126676   6.610   3.165   7.909  0.0568 -1.6307 -1.1114
  827TIP3    H226677   6.722   3.079   7.963 -1.6458 -1.8960  2.2492
  828TIP3   OH226678   5.600   6.356   0.279 -0.1996 -0.3258 -0.2548
  828TIP3    H126679   5.607   6.312   0.364 -2.0863 -0.4197 -0.1089
  828TIP3    H226680   5.659   6.307   0.222  0.1222 -1.0612  0.6777
  829TIP3   OH226681   2.189   7.514   0.153  0.1321 -0.1357  0.3488
  829TIP3    H126682   2.274   7.476   0.129 -0.1195  0.2877 -1.3948
  829TIP3    H226683   2.136   7.439   0.179  0.3012 -0.7617 -0.9864
  830TIP3   OH226684   2.098   1.542   7.155 -0.0031 -0.2069 -0.2931
  830TIP3    H126685   2.189   1.549   7.128  0.3755 -0.1538  0.9222
  830TIP3    H226686   2.057   1.622   7.123  0.5762  0.1552 -0.1530
  831TIP3   OH226687   4.447   6.677   0.347 -0.0807 -0.3833  0.2268
  831TIP3    H126688   4.444   6.704   0.439  0.9180 -1.1506  0.5085
  831TIP3    H226689   4.467   6.757   0.299  0.1768 -0.1228  0.7613
  832TIP3   OH226690   7.156   1.212   0.067 -0.3038 -0.3462  0.6530
  832TIP3    H126691   7.170   1.156   0.143 -1.0103 -0.3538  0.7859
  832TIP3    H226692   7.066   1.194   0.041 -0.2338  0.0458  0.1316
  833TIP3   OH226693   0.163   1.544   9.446  0.2274  0.3992  0.0467
  833TIP3    H126694   0.241   1.542   9.391  0.4909 -1.8455  0.4067
  833TIP3    H226695   0.194   1.573   9.531  0.5066  0.3303 -0.0304
  834TIP3   OH226696   3.797   0.299   0.887  0.6224  0.5694  0.1363
  834TIP3    H126697   3.860   0.325   0.955  2.3193 -1.5969 -0.4688
  834TIP3    H226698   3.845   0.310   0.805 -0.2653  0.1257 -0.4560
  835TIP3   OH226699   2.212   2.312   8.651 -0.0389 -0.6883  1.1909
  835TIP3    H126700   2.159   2.389   8.673  2.9403  2.2083 -0.8380
  835TIP3    H226701   2.157   2.261   8.592 -0.2215  3.2326 -2.5266
  836TIP3   OH226702   4.693   7.530   0.944 -0.0243 -0.0203  0.3322
  836TIP3    H126703   4.621   7.478   0.979  0.0651  0.4755  1.3010
  836TIP3    H226704   4.767   7.510   1.003 -0.1543  1.6550  1.1217
  837TIP3   OH226705   3.143   6.638   1.443  0.0515  0.1175 -0.0209
  837TIP3    H126706   3.209   6.568   1.442 -0.5966 -0.5089 -1.4927
  837TIP3    H226707   3.176   6.700   1.508  1.5664 -0.6812  0.0291
  838TIP3   OH226708   3.931   6.465   8.193 -0.1828 -0.9397  0.4824
  838TIP3    H126709   3.871   6.443   8.264 -1.1096 -0.3170 -0.0908
  838TIP3    H226710   3.992   6.529   8.232 -0.6497 -0.6446  0.7372
  839TIP3   OH226711   2.669   0.288   8.087  0.4303  0.4566  0.1857
  839TIP3    H126712   2.696   0.196   8.086 -1.1134 -0.0398 -0.9770
  839TIP3    H226713   2.574   0.285   8.072  0.2973  2.2268  0.4539
  840TIP3   OH226714   3.548   7.511   2.825 -0.3617 -0.2541 -0.2046
  840TIP3    H126715   3.578   7.544   2.910  0.7976  1.2644 -1.1448
  840TIP3    H226716   3.483   7.445   2.846 -1.1090  1.0577  1.8419
  841TIP3   OH226717   2.299   0.878   1.153  0.1103 -0.4241 -0.4143
  841TIP3    H126718   2.209   0.899   1.126  0.5129  0.1546 -1.3648
  841TIP3    H226719   2.342   0.853   1.071  1.0679  0.2353 -0.1217
  842TIP3   OH226720   5.424   0.306   1.295 -0.2328  0.1823  0.1366
  842TIP3    H126721   5.426   0.332   1.387  0.4807 -0.2189  0.2394
  842TIP3    H226722   5.381   0.380   1.251 -0.5903  0.3757  0.7848
  843TIP3   OH226723   1.684   6.643   8.796  0.7729  0.0147 -0.3397
  843TIP3    H126724   1.613   6.657   8.858  0.5440  3.8343 -1.2392
  843TIP3    H226725   1.757   6.613   8.850 -0.8440 -2.0320  0.8786
  844TIP3   OH226726   5.892   1.038   1.055  0.3059 -0.3240 -0.6790
  844TIP3    H126727   5.902   1.021   0.961 -0.3305 -1.3643 -0.5758
  844TIP3    H226728   5.981   1.046   1.088  0.5340 -0.0313 -1.3583
  845TIP3   OH226729   7.311   2.980   9.885 -0.0957  0.3374  0.6248
  845TIP3    H126730   7.369   2.989   9.809 -0.0193  0.2372  0.6695
  845TIP3    H226731   7.223   2.987   9.850 -0.0666  0.0884  0.4961
  846TIP3   OH226732   0.616   5.563   1.785 -0.3087 -0.3876 -0.2919
  846TIP3    H126733   0.580   5.475   1.777 -0.2034 -0.3775 -0.8844
  846TIP3    H226734   0.557   5.618   1.733 -3.0317  0.7050  3.4670
  847TIP3   OH226735   3.304   7.200   0.554 -0.4216  0.1280 -0.7549
  847TIP3    H126736   3.307   7.196   0.650  2.4103  2.3050 -0.6335
  847TIP3    H226737   3.297   7.293   0.534 -0.2992 -0.2289 -2.6938
  848TIP3   OH226738   5.365   1.195   7.564 -0.0796  0.1728 -0.4699
  848TIP3    H126739   5.336   1.278   7.529 -1.2650  0.4932  1.1394
  848TIP3    H226740   5.295   1.133   7.541 -0.4281  0.1952  0.4639
  849TIP3   OH226741   6.543   0.734   0.701 -0.2711 -0.0289 -0.0042
  849TIP3    H126742   6.501   0.666   0.753  0.4160 -0.9097 -0.5898
  849TIP3    H226743   6.623   0.694   0.669 -0.7369  0.4478 -1.8667
  850TIP3   OH226744   2.937   3.016   8.965  0.0460  0.1543 -0.1454
  850TIP3    H126745   2.955   3.078   8.895  2.5034 -0.5293 -0.1970
  850TIP3    H226746   2.898   2.941   8.921  0.3657  0.2523 -0.5997
  851TIP3   OH226747   2.159   3.550   1.831  0.2603  0.1297  0.2549
  851TIP3    H126748   2.110   3.491   1.774  0.3048  0.3286  0.0100
  851TIP3    H226749   2.235   3.576   1.779  0.9507 -0.6491  0.8446
  852TIP3   OH226750   7.063   3.670   8.269  0.1163  0.0678 -0.0420
  852TIP3    H126751   7.046   3.615   8.346  1.1705  0.4460  0.4837
  852TIP3    H226752   7.154   3.652   8.247 -0.4411 -0.7724 -1.8238
  853TIP3   OH226753   6.194   5.682   9.750 -0.5317 -0.3072 -0.0466
  853TIP3    H126754   6.277   5.663   9.792 -1.6579 -1.5586  1.7669
  853TIP3    H226755   6.169   5.599   9.708 -1.3784 -0.2989  0.4188
  854TIP3   OH226756   7.314   2.097   8.854 -0.3216  0.1528  0.3502
  854TIP3    H126757   7.317   2.180   8.807 -0.5256 -0.7965 -1.4136
  854TIP3    H226758   7.391   2.099   8.911  0.4639  0.9554 -0.7091
  855TIP3   OH226759   0.006   4.510   2.792 -0.6540  0.2963  0.1193
  855TIP3    H126760  -0.029   4.484   2.878 -0.7754  2.5520  0.8114
  855TIP3    H226761   0.083   4.563   2.812  0.3248 -0.5189 -1.2626
  856TIP3   OH226762   0.035   6.385   9.624 -0.2327 -0.0184 -0.0946
  856TIP3    H126763   0.070   6.298   9.641 -0.6919 -0.3465 -0.7589
  856TIP3    H226764  -0.060   6.374   9.627 -0.2945  0.5281  0.1356
  857TIP3   OH226765   2.363   3.187   8.807  0.0369  0.5492 -0.0238
  857TIP3    H126766   2.453   3.158   8.793 -0.4187  0.0325 -2.3480
  857TIP3    H226767   2.328   3.127   8.873  1.0597  0.0120  0.0463
  858TIP3   OH226768   2.145   4.731   8.279  0.3114 -0.5848  0.1288
  858TIP3    H126769   2.086   4.802   8.307  0.1225 -0.3144 -0.9042
  858TIP3    H226770   2.113   4.707   8.192  1.1985 -1.0380 -0.0796
  859TIP3   OH226771   6.633   7.007   9.757  0.1240  0.1668 -1.2272
  859TIP3    H126772   6.586   7.088   9.776 -1.9615 -1.4465  1.4321
  859TIP3    H226773   6.575   6.960   9.697  0.3302 -0.1372 -1.1888
  860TIP3   OH226774   7.322   7.123   8.075  0.2800 -0.5825 -0.0923
  860TIP3    H126775   7.380   7.163   8.010 -0.8716  1.3744  0.0239
  860TIP3    H226776   7.246   7.180   8.078  0.3068 -0.5296  3.0287
  861TIP3   OH226777   7.539   6.089   7.918 -0.4839 -0.1308  0.8473
  861TIP3    H126778   7.506   6.025   7.981 -1.7403  1.5527  1.9927
  861TIP3    H226779   7.593   6.149   7.970 -0.2169  0.3753  0.0099
  862TIP3   OH226780   2.953   3.440   8.737 -0.1183 -0.2665 -0.6593
  862TIP3    H126781   2.941   3.383   8.812 -0.3545 -0.5093 -0.8772
  862TIP3    H226782   3.009   3.511   8.769  0.0518 -0.5374 -0.3455
  863TIP3   OH226783   0.992   2.090   7.086  0.1887  0.2921 -0.3274
  863TIP3    H126784   1.059   2.093   7.018  0.1084  1.5562 -0.3870
  863TIP3    H226785   0.977   1.997   7.101  0.8054 -0.0121 -1.4457
  864TIP3   OH226786   2.367   3.750   3.152  0.3626 -0.6438 -0.1352
  864TIP3    H126787   2.387   3.844   3.151 -0.9458 -0.2557  2.6028
  864TIP3    H226788   2.273   3.745   3.135 -0.0899 -1.2037  2.2910
  865TIP3   OH226789   6.158   1.388   8.652 -0.4658 -0.4044  0.3063
  865TIP3    H126790   6.125   1.436   8.728  0.0348 -1.0293  0.9332
  865TIP3    H226791   6.253   1.400   8.656 -0.4670 -0.0973 -0.4657
  866TIP3   OH226792   0.872   5.074   8.832  0.6960  0.3401 -0.1503
  866TIP3    H126793   0.962   5.104   8.849  0.9005  0.5656 -1.4582
  866TIP3    H226794   0.824   5.154   8.812  0.0114  0.2980  1.2440
  867TIP3   OH226795   1.213   2.768   8.322  0.4101  0.0581 -0.2591
  867TIP3    H126796   1.169   2.796   8.242 -0.0760  0.1974  0.0514
  867TIP3    H226797   1.268   2.694   8.295  0.9855  0.7029 -0.9003
  868TIP3   OH226798   3.082   5.610   8.946 -0.1611  0.4835 -0.0602
  868TIP3    H126799   3.034   5.602   8.863 -1.3491  1.2916  0.5162
  868TIP3    H226800   3.093   5.704   8.959  1.3150  0.3184  0.0022
  869TIP3   OH226801   5.911   0.368   2.312  0.1415 -0.4877 -0.2727
  869TIP3    H126802   5.961   0.444   2.343 -1.0362 -0.3127  1.3583
  869TIP3    H226803   5.875   0.395   2.228  1.5128 -0.0692 -0.7504
  870TIP3   OH226804   6.835   0.669   3.013  0.5400 -0.3498  0.5328
  870TIP3    H126805   6.749   0.692   2.977  0.0971 -1.7709  0.6238
  870TIP3    H226806   6.821   0.665   3.107  1.0299  0.6650  0.6571
  871TIP3   OH226807   1.706   4.049   7.354  0.6751 -0.0622 -0.3837
  871TIP3    H126808   1.636   4.023   7.293  0.0615  1.0197 -0.1584
  871TIP3    H226809   1.660   4.075   7.434  1.1505  2.4270 -0.8412
  872TIP3   OH226810   1.521   6.139   7.478 -0.6212 -0.5621 -0.2175
  872TIP3    H126811   1.614   6.121   7.461 -0.6698  0.6970 -2.1624
  872TIP3    H226812   1.522   6.193   7.557  0.3886  0.0493 -0.6256
  873TIP3   OH226813   1.011   7.249   1.560 -0.0227  0.3636 -0.2131
  873TIP3    H126814   1.018   7.339   1.591 -1.3571  0.2430  0.5408
  873TIP3    H226815   1.094   7.208   1.585  0.8333  1.5048 -1.0697
  874TIP3   OH226816   3.577   2.664   8.096  0.2394 -0.0056  0.0871
  874TIP3    H126817   3.666   2.627   8.091  0.9201  1.6560 -1.8311
  874TIP3    H226818   3.526   2.598   8.142  2.0225 -1.9391 -0.5358
  875TIP3   OH226819   2.094   0.279   0.280 -0.6034 -0.1815  0.1389
  875TIP3    H126820   2.130   0.192   0.294 -1.3176 -0.1504  2.6197
  875TIP3    H226821   2.152   0.318   0.215  1.6676 -1.4047  1.2786
  876TIP3   OH226822   2.648   7.370   1.773 -0.7060  0.4226 -0.8755
  876TIP3    H126823   2.585   7.442   1.782 -1.6128 -0.3963 -0.5412
  876TIP3    H226824   2.668   7.368   1.679 -1.7250  0.2452 -1.1020
  877TIP3   OH226825   6.083   6.747   2.024  0.6938 -0.0895  0.3175
  877TIP3    H126826   6.042   6.832   2.006  3.0620  0.7351 -1.7139
  877TIP3    H226827   6.013   6.683   2.011 -0.2612  1.2960 -1.8383
  878TIP3   OH226828   1.131   2.704   7.724  0.5660 -0.0232  0.6326
  878TIP3    H126829   1.164   2.617   7.704 -0.0499 -0.2212  0.4616
  878TIP3    H226830   1.079   2.693   7.804  0.8809  0.2796  0.8852
  879TIP3   OH226831   5.317   2.139   1.839  0.2860  0.2482 -0.3954
  879TIP3    H126832   5.302   2.085   1.761 -1.0090  0.3473 -0.2338
  879TIP3    H226833   5.303   2.080   1.913  1.3128  0.2078 -0.2104
  880TIP3   OH226834   1.449   2.543   7.356  0.2781 -0.0891 -0.5555
  880TIP3    H126835   1.473   2.450   7.358  0.6362 -0.0248 -1.3266
  880TIP3    H226836   1.358   2.543   7.326  0.6677 -0.1499 -1.8053
  881TIP3   OH226837   2.858   6.780   0.892 -0.4257  0.3021  0.5650
  881TIP3    H126838   2.911   6.781   0.812 -0.6487  0.4357  0.4211
  881TIP3    H226839   2.851   6.872   0.917 -1.2443  0.3590  0.1548
  882TIP3   OH226840   2.756   6.796   2.460 -0.3091 -0.4083 -0.5235
  882TIP3    H126841   2.704   6.862   2.505 -1.2572 -0.7119 -1.1368
  882TIP3    H226842   2.809   6.844   2.397  2.3843  0.2392  2.0267
  883TIP3   OH226843   7.315   1.327   2.344  0.1473  0.1611 -0.1127
  883TIP3    H126844   7.298   1.357   2.434 -0.1314 -0.1728 -0.0523
  883TIP3    H226845   7.228   1.323   2.304  0.2961  0.5705 -0.4855
  884TIP3   OH226846   4.656   5.128   8.714  0.1128  0.5079 -0.2884
  884TIP3    H126847   4.561   5.131   8.719 -0.2401 -3.9059 -0.4419
  884TIP3    H226848   4.686   5.167   8.796 -2.1314 -1.8927  1.8635
  885TIP3   OH226849   1.992   2.745   6.915 -0.0508 -0.4109  0.6516
  885TIP3    H126850   1.918   2.806   6.921  0.6934  0.6822 -0.6285
  885TIP3    H226851   1.957   2.668   6.872 -0.1840  0.6367 -1.2194
  886TIP3   OH226852   2.346   4.775   7.829 -0.1119  0.1069 -0.6327
  886TIP3    H126853   2.390   4.798   7.911  0.2241 -0.5193 -0.6297
  886TIP3    H226854   2.368   4.683   7.816 -0.7823  0.0040 -1.0433
  887TIP3   OH226855   1.205   3.591   1.315 -0.1925  0.0402  0.2914
  887TIP3    H126856   1.218   3.567   1.223  0.2033  2.1668 -0.2651
  887TIP3    H226857   1.293   3.590   1.352 -0.4253 -1.5134  0.8822
  888TIP3   OH226858   1.629   1.586   1.691  0.0109  0.6275 -0.5142
  888TIP3    H126859   1.678   1.581   1.609 -0.0418  0.2283 -0.5193
  888TIP3    H226860   1.586   1.672   1.687 -0.3269  0.4368 -1.0967
  889TIP3   OH226861   5.674   4.825   8.035  0.1012 -0.0838  0.0748
  889TIP3    H126862   5.605   4.891   8.029  0.2079  0.1569  1.2479
  889TIP3    H226863   5.627   4.743   8.057 -0.0232 -0.4056 -1.3079
  890TIP3   OH226864   4.912   4.793   9.203  0.2281  0.2154  0.2725
  890TIP3    H126865   4.872   4.850   9.137 -0.8960 -0.8591 -0.0152
  890TIP3    H226866   5.003   4.821   9.207  0.7445 -0.6846 -2.8389
  891TIP3   OH226867   7.498   6.764   9.696 -0.1630 -0.0532  0.0774
  891TIP3    H126868   7.591   6.748   9.714 -1.1041 -3.0441  3.2950
  891TIP3    H226869   7.482   6.852   9.729  1.0822 -0.4434  1.8503
  892TIP3   OH226870   3.499   1.035   7.822 -0.2679 -0.2248  0.5526
  892TIP3    H126871   3.586   1.048   7.783 -1.1985  1.3568 -1.1547
  892TIP3    H226872   3.444   1.102   7.781 -2.9230 -2.7049 -0.3080
  893TIP3   OH226873   3.291   3.044   9.575 -0.2679 -0.0850  0.1661
  893TIP3    H126874   3.227   3.098   9.528 -1.2373 -1.3729 -0.0507
  893TIP3    H226875   3.246   3.019   9.655 -0.3458 -1.6329 -0.3348
  894TIP3   OH226876   3.071   1.448   1.239  0.0193 -0.1606 -0.3076
  894TIP3    H126877   3.114   1.464   1.323 -1.3901 -1.2833  0.6710
  894TIP3    H226878   3.124   1.497   1.175  0.9416  0.9663  1.2580
  895TIP3   OH226879   1.607   5.842   9.989  0.5234 -0.0931 -0.3179
  895TIP3    H126880   1.622   5.914  10.049 -0.5335 -1.5497  1.8253
  895TIP3    H226881   1.691   5.796   9.985  0.8445  0.5233 -0.6739
  896TIP3   OH226882   2.196   5.287   2.439  0.2433  0.4447 -0.8449
  896TIP3    H126883   2.264   5.227   2.408  0.2560 -0.1784  0.3131
  896TIP3    H226884   2.237   5.334   2.511 -0.8614 -0.7646  0.6450
  897TIP3   OH226885   3.328   1.724   0.001  0.4089  0.0870  0.1079
  897TIP3    H126886   3.261   1.732  -0.066  1.4184  1.5301 -0.7653
  897TIP3    H226887   3.282   1.742   0.083 -0.4915 -0.0940 -0.3439
  898TIP3   OH226888   1.879   5.666   7.681 -0.1965  0.2665  0.2077
  898TIP3    H126889   1.895   5.754   7.648  0.4947 -0.4041 -1.3516
  898TIP3    H226890   1.888   5.673   7.776  0.8029  1.6790  0.0302
  899TIP3   OH226891   0.304   1.314   8.684 -0.0301  0.0611 -0.0834
  899TIP3    H126892   0.312   1.246   8.617  0.4464  0.3198 -0.2976
  899TIP3    H226893   0.215   1.348   8.673  0.5231  1.1293 -1.5999
  900TIP3   OH226894   3.014   4.877   0.464 -0.1218  0.0534 -0.6416
  900TIP3    H126895   3.093   4.849   0.511 -0.6710 -3.0527 -1.3632
  900TIP3    H226896   3.045   4.947   0.406  1.6444  0.3147  0.5202
  901TIP3   OH226897   4.678   0.066   7.626  0.1209 -0.3795  0.4698
  901TIP3    H126898   4.704  -0.004   7.567  0.5873  0.1893 -0.0113
  901TIP3    H226899   4.606   0.029   7.677  1.8642 -2.0014  1.8673
  902TIP3   OH226900   5.779   6.921   8.396  0.4304 -0.0752  0.3536
  902TIP3    H126901   5.699   6.974   8.391  1.3555  1.2513 -2.4744
  902TIP3    H226902   5.799   6.917   8.490 -2.0781  0.8697  1.0026
  903TIP3   OH226903   2.808   6.666   1.860 -0.1627  0.4534  0.4748
  903TIP3    H126904   2.786   6.592   1.804 -1.6867  1.3797 -0.2337
  903TIP3    H226905   2.864   6.722   1.806 -1.0057  0.9780  0.1321
  904TIP3   OH226906   4.521   6.959   1.529 -0.4913  0.7909 -0.3885
  904TIP3    H126907   4.555   6.873   1.505 -0.3016  0.6243  0.4520
  904TIP3    H226908   4.575   7.021   1.480 -1.9862  0.4109 -2.6999
  905TIP3   OH226909   7.658   1.028   1.859 -0.2960 -0.3733 -0.4621
  905TIP3    H126910   7.672   0.957   1.922 -0.2457  0.8111  0.9139
  905TIP3    H226911   7.563   1.030   1.846 -0.2453 -1.0709 -0.9747
  906TIP3   OH226912   7.254   5.350   0.208  0.0670  0.2994  0.3084
  906TIP3    H126913   7.256   5.425   0.267 -0.0796  0.2258  0.4078
  906TIP3    H226914   7.199   5.286   0.253 -2.1980  1.1967 -1.0518
  907TIP3   OH226915   3.959   0.699   9.776 -0.0462 -0.0377 -0.2800
  907TIP3    H126916   3.881   0.644   9.787 -1.3725  1.3333 -2.2190
  907TIP3    H226917   3.954   0.761   9.849 -0.9666  0.2382 -0.5631
  908TIP3   OH226918   3.282   3.447   1.302 -0.3297  0.2606 -0.5283
  908TIP3    H126919   3.292   3.352   1.298  0.9217  0.3813 -1.1113
  908TIP3    H226920   3.304   3.477   1.213  0.3863  1.1626 -0.0719
  909TIP3   OH226921   2.432   5.486   9.124  0.0440  0.1341  0.2455
  909TIP3    H126922   2.494   5.435   9.072 -1.6163 -1.2214 -0.5117
  909TIP3    H226923   2.424   5.437   9.206 -0.8478 -0.3713 -0.1183
  910TIP3   OH226924   1.280   3.618   7.635  0.8262 -0.1015  0.1708
  910TIP3    H126925   1.356   3.640   7.689  1.4404 -0.6332 -0.4540
  910TIP3    H226926   1.294   3.666   7.553  1.7707 -2.0733 -0.8981
  911TIP3   OH226927   2.639   0.956   1.150  0.7624  0.1948 -0.4754
  911TIP3    H126928   2.696   0.883   1.127  0.2929 -0.2026 -0.4085
  911TIP3    H226929   2.577   0.962   1.077  1.5536  1.3235 -1.0646
  912TIP3   OH226930   4.740   6.191   0.311  0.0996  0.3858  0.0556
  912TIP3    H126931   4.817   6.239   0.279  0.1124 -1.0644 -2.3178
  912TIP3    H226932   4.690   6.257   0.359  1.8356  1.8744 -0.0577
  913TIP3   OH226933   5.941   2.668   9.769 -0.0761  0.2308 -0.1055
  913TIP3    H126934   5.880   2.630   9.706 -0.6412 -1.0986  1.1778
  913TIP3    H226935   5.983   2.593   9.810 -0.2771  1.0092  1.6141
  914TIP3   OH226936   2.044   0.107   7.800 -0.0919 -0.2590  0.4847
  914TIP3    H126937   1.998   0.048   7.741  1.0347 -1.0180  0.3403
  914TIP3    H226938   2.038   0.065   7.886  1.2891 -0.9652  0.2643
  915TIP3   OH226939   0.218   3.839   7.527  0.6739 -0.3700 -0.3019
  915TIP3    H126940   0.277   3.764   7.520  0.8418 -0.2945  0.2352
  915TIP3    H226941   0.275   3.912   7.550  0.4050 -0.2475 -0.0140
  916TIP3   OH226942   0.009   4.374   2.413 -0.4668 -0.1064  0.1497
  916TIP3    H126943  -0.054   4.435   2.452 -1.8404 -0.7212 -1.0112
  916TIP3    H226944   0.093   4.420   2.418 -0.9271  0.6043  2.0375
  917TIP3   OH226945   6.716   6.048   0.904 -0.0098  0.0743 -0.0328
  917TIP3    H126946   6.763   6.051   0.987  1.1493 -1.0394 -0.6161
  917TIP3    H226947   6.769   6.099   0.843  0.7759 -1.5843 -0.8198
  918TIP3   OH226948   3.871   5.518   0.512 -0.2973  0.0279 -0.1636
  918TIP3    H126949   3.779   5.525   0.537  0.1422  1.0537  1.3117
  918TIP3    H226950   3.915   5.583   0.567  1.0625  0.8550 -2.1198
  919TIP3   OH226951   4.780   7.108   0.474 -0.3690  0.7188  0.1196
  919TIP3    H126952   4.846   7.135   0.411 -0.8789  2.0520  0.1159
  919TIP3    H226953   4.771   7.014   0.461  1.3204  0.5634 -0.0509
  920TIP3   OH226954   3.617   5.815   8.557  0.5564  0.1588  0.0791
  920TIP3    H126955   3.531   5.830   8.596  1.6341  1.4326  2.1388
  920TIP3    H226956   3.612   5.858   8.472 -0.9969 -0.2976 -0.0962
  921TIP3   OH226957   0.513   3.305   2.508 -0.0454 -0.3233  0.2267
  921TIP3    H126958   0.555   3.237   2.454 -0.6791 -0.0208 -0.6871
  921TIP3    H226959   0.566   3.309   2.587  2.2179  0.6848 -1.2229
  922TIP3   OH226960   2.891   6.776   9.535  0.8366 -0.2524 -0.5709
  922TIP3    H126961   2.804   6.811   9.512  1.0352 -0.5506 -1.8922
  922TIP3    H226962   2.880   6.741   9.623 -0.2456  0.1827 -0.5105
  923TIP3   OH226963   3.347   5.269   0.464  0.1047 -0.3937 -0.1925
  923TIP3    H126964   3.330   5.342   0.404  0.1247 -0.0227  0.2497
  923TIP3    H226965   3.376   5.197   0.407 -0.7278 -0.3268 -0.7226
  924TIP3   OH226966   7.621   3.174   0.751 -0.5048 -0.0904  0.7332
  924TIP3    H126967   7.635   3.102   0.813  0.6522 -1.0316 -0.5528
  924TIP3    H226968   7.707   3.189   0.713 -0.9679  1.2468  0.1721
  925TIP3   OH226969   2.020   1.550   8.925  0.0797 -0.3729  0.0895
  925TIP3    H126970   2.065   1.554   8.841 -0.5332 -1.8856 -0.3450
  925TIP3    H226971   2.017   1.641   8.955 -2.0618  0.6698 -2.8023
  926TIP3   OH226972   3.441   6.692   1.134 -0.6079  0.1470 -0.2485
  926TIP3    H126973   3.364   6.657   1.090 -0.4600  0.5884 -0.8594
  926TIP3    H226974   3.495   6.615   1.152 -0.9328 -0.0996 -0.3172
  927TIP3   OH226975   1.170   3.669   9.426 -0.6671 -0.5522  0.3259
  927TIP3    H126976   1.077   3.646   9.432 -1.2185  1.7401  2.0320
  927TIP3    H226977   1.178   3.711   9.340 -1.9597  1.7941  1.2485
  928TIP3   OH226978   6.942   4.442   8.655  0.0074  0.0058  0.1252
  928TIP3    H126979   6.945   4.537   8.648  0.9709 -0.0565 -0.4575
  928TIP3    H226980   6.971   4.424   8.745  2.2714  0.1803 -0.5107
  929TIP3   OH226981   6.608   6.271   2.012 -0.0299  0.1659 -0.4409
  929TIP3    H126982   6.572   6.226   2.088  0.7229  0.5725  0.1650
  929TIP3    H226983   6.700   6.246   2.011  0.6724  2.4820  0.5373
  930TIP3   OH226984   4.831   0.816   8.700  0.0004  0.1446  0.8429
  930TIP3    H126985   4.795   0.826   8.788  0.1865  1.2884  0.8115
  930TIP3    H226986   4.804   0.896   8.654 -0.0268 -0.3999 -0.1124
  931TIP3   OH226987   3.361   5.568   8.877  0.1173  0.0025 -0.5565
  931TIP3    H126988   3.420   5.493   8.884  0.7252  0.5611  0.4467
  931TIP3    H226989   3.273   5.530   8.888  0.2151 -0.8764 -2.3836
  932TIP3   OH226990   5.203   4.192   8.218 -0.7225  0.0139  0.4407
  932TIP3    H126991   5.146   4.254   8.263 -1.3851 -0.7560  0.6827
  932TIP3    H226992   5.188   4.209   8.125 -2.1017 -0.8188  0.4763
  933TIP3   OH226993   0.533   4.352   2.522 -0.5695  0.0394  0.5964
  933TIP3    H126994   0.603   4.404   2.484 -0.4274  1.0622  2.1517
  933TIP3    H226995   0.459   4.362   2.461 -0.4709  1.8997  0.7184
  934TIP3   OH226996   3.397   3.693   2.526 -0.5367  0.2504 -0.2619
  934TIP3    H126997   3.427   3.608   2.496 -2.5728 -1.4282  2.0848
  934TIP3    H226998   3.445   3.709   2.607 -0.8137  0.9015 -0.2196
  935TIP3   OH226999   5.398   1.150   9.726 -0.3814 -0.0061  0.7169
  935TIP3    H127000   5.379   1.068   9.772  0.0209 -1.6993 -1.8850
  935TIP3    H227001   5.332   1.153   9.656 -0.2455  1.7966  0.6330
  936TIP3   OH227002   2.102   2.746   7.195 -0.2078 -0.0596  0.0252
  936TIP3    H127003   2.087   2.741   7.101  0.4478  0.4196 -0.1087
  936TIP3    H227004   2.196   2.763   7.204 -0.0374 -1.3193  0.8027
  937TIP3   OH227005   0.179   7.620   9.916  0.5865 -0.1006  0.4754
  937TIP3    H127006   0.266   7.590   9.943  0.3490 -1.2589  0.0139
  937TIP3    H227007   0.123   7.605   9.992  0.0022 -2.9877 -0.4002
  938TIP3   OH227008   1.750   7.592   8.006  0.5713 -0.6982  0.4210
  938TIP3    H127009   1.654   7.593   8.010  0.5877  0.8677  0.8696
  938TIP3    H227010   1.771   7.625   7.919  0.7162 -0.4332  0.5570
  939TIP3   OH227011   0.869   4.494   0.759 -0.2052  0.3454  0.1551
  939TIP3    H127012   0.831   4.410   0.784  0.7530 -0.2350 -0.3033
  939TIP3    H227013   0.919   4.476   0.680  0.7608  1.1505  0.5560
  940TIP3   OH227014   6.031   4.077   9.283 -0.2542 -0.1953 -0.3058
  940TIP3    H127015   6.024   3.981   9.277 -0.8432 -0.1855  0.1323
  940TIP3    H227016   5.941   4.108   9.276 -0.4040  0.1536  2.1905
  941TIP3   OH227017   4.382   4.252   8.834  0.3420 -0.2705  0.4441
  941TIP3    H127018   4.472   4.227   8.815 -0.2194 -2.1686  0.1364
  941TIP3    H227019   4.329   4.204   8.771 -1.0273 -0.9255  2.0128
  942TIP3   OH227020   1.497   3.067   2.089  0.1033  0.6947  0.1860
  942TIP3    H127021   1.425   3.125   2.068  0.7165  0.5735 -2.6073
  942TIP3    H227022   1.511   3.079   2.183 -2.3145  2.0745  0.4452
  943TIP3   OH227023   2.645   5.283   1.419  0.6302 -0.1352 -0.7295
  943TIP3    H127024   2.559   5.285   1.462  0.3364  0.4076 -1.3212
  943TIP3    H227025   2.703   5.331   1.479  0.1850  0.7764 -1.0129
  944TIP3   OH227026   2.527   1.725   0.349  0.0096 -0.3449 -0.1501
  944TIP3    H127027   2.536   1.656   0.283 -4.4040 -1.0593 -0.3323
  944TIP3    H227028   2.501   1.678   0.428 -1.1878  0.9253  0.2431
  945TIP3   OH227029   1.339   6.283   0.644 -0.9298 -0.0504  0.6718
  945TIP3    H127030   1.375   6.372   0.635 -0.1384 -0.4032  0.2049
  945TIP3    H227031   1.392   6.243   0.713  1.0378 -1.2448 -1.3757
  946TIP3   OH227032   7.492   2.515   1.852  0.0346  1.1397 -0.0667
  946TIP3    H127033   7.572   2.462   1.844 -0.1917  0.6823  0.6023
  946TIP3    H227034   7.443   2.474   1.924 -0.0529  2.3869  0.6191
  947TIP3   OH227035   2.452   3.326   7.216 -0.1655  0.2296  0.1643
  947TIP3    H127036   2.521   3.268   7.250  0.6687  0.8706 -0.3904
  947TIP3    H227037   2.479   3.345   7.126 -0.0840  1.9348  0.5040
  948TIP3   OH227038   4.019   6.634   2.469  0.3619 -0.0374  0.0060
  948TIP3    H127039   3.986   6.652   2.380  1.0687 -1.4670 -0.5667
  948TIP3    H227040   3.942   6.603   2.516  0.2174 -0.3699 -0.4372
  949TIP3   OH227041   5.451   2.110   9.646  0.1786  0.2432 -0.0592
  949TIP3    H127042   5.527   2.104   9.588  0.2671  0.2460  0.0583
  949TIP3    H227043   5.386   2.053   9.605 -1.1483  3.0795 -2.3117
  950TIP3   OH227044   7.620   6.521   8.437  0.7711  0.1872 -0.1420
  950TIP3    H127045   7.610   6.597   8.380  1.6223 -1.4350 -2.6147
  950TIP3    H227046   7.670   6.554   8.512  1.0084  2.0597 -1.0617
  951TIP3   OH227047   2.668   6.587   0.794  0.2030  0.0486 -0.1354
  951TIP3    H127048   2.687   6.680   0.796  1.5160 -0.1484 -1.3129
  951TIP3    H227049   2.597   6.578   0.730 -0.3914  0.2960  0.4835
  952TIP3   OH227050   6.012   7.320   8.790 -0.2432 -0.5440 -0.9214
  952TIP3    H127051   5.954   7.305   8.865  0.3690  2.2607  0.2405
  952TIP3    H227052   6.094   7.277   8.814  0.3250  1.2663  0.6498
  953TIP3   OH227053   0.425   3.013   0.578 -0.2257 -0.0219 -0.1286
  953TIP3    H127054   0.501   3.068   0.563  0.3999 -1.0624 -0.9085
  953TIP3    H227055   0.457   2.940   0.631 -0.0334 -1.7711 -2.4776
  954TIP3   OH227056   2.091   3.806   9.122 -0.3004  0.5629  0.3645
  954TIP3    H127057   2.048   3.742   9.178 -0.5469 -1.8544 -2.4041
  954TIP3    H227058   2.183   3.780   9.121 -0.2362  0.7948 -0.0922
  955TIP3   OH227059   4.810   6.117   9.666 -0.0008  0.2590 -0.4312
  955TIP3    H127060   4.714   6.108   9.666 -0.1267  1.4129 -1.1455
  955TIP3    H227061   4.835   6.100   9.757 -1.0734  1.5385  0.1442
  956TIP3   OH227062   3.136   7.625   9.407  0.0029 -0.3240  0.0678
  956TIP3    H127063   3.086   7.686   9.353 -0.9566 -0.7816  0.4118
  956TIP3    H227064   3.220   7.667   9.420 -1.0557  1.5303  1.3529
  957TIP3   OH227065   7.125   6.075   8.458 -0.0473 -0.1868 -0.2654
  957TIP3    H127066   7.061   6.005   8.460  0.5311 -0.7752 -1.3328
  957TIP3    H227067   7.082   6.149   8.500  0.1162 -1.7895  3.0245
  958TIP3   OH227068   5.041   0.747   1.042 -0.0427 -0.3032  0.5405
  958TIP3    H127069   4.975   0.714   0.981  1.9391  0.5359 -2.2608
  958TIP3    H227070   5.106   0.677   1.047  1.0400  0.5787 -0.4087
  959TIP3   OH227071   4.540   0.895   3.116  0.5478 -0.0909  0.4109
  959TIP3    H127072   4.475   0.924   3.051  0.2776 -0.4888  0.5009
  959TIP3    H227073   4.607   0.963   3.114  2.3331 -1.6608 -2.8008
  960TIP3   OH227074   4.563   1.704   9.779 -0.1459  0.0811 -0.3890
  960TIP3    H127075   4.596   1.624   9.819  0.2851  0.3371 -0.2216
  960TIP3    H227076   4.468   1.701   9.793 -0.0337  0.0384  0.4357
  961TIP3   OH227077   2.268   5.339   6.825  0.0607 -0.3210  0.1127
  961TIP3    H127078   2.223   5.356   6.742 -2.6228  0.8482  1.6710
  961TIP3    H227079   2.221   5.264   6.862 -0.9353  1.0951  1.9100
  962TIP3   OH227080   2.817   4.040   0.408  0.2480 -0.7432  0.0914
  962TIP3    H127081   2.724   4.061   0.408 -0.2960 -2.9045  0.6051
  962TIP3    H227082   2.821   3.948   0.436  2.5446 -0.6571  0.2326
  963TIP3   OH227083   5.597   4.845   8.442  0.0305  0.0031 -0.0908
  963TIP3    H127084   5.522   4.789   8.461  0.0594 -0.1292 -0.3598
  963TIP3    H227085   5.560   4.920   8.395  0.4160 -1.5435 -3.0737
  964TIP3   OH227086   2.262   0.952   7.114  0.1796 -0.3803  0.2379
  964TIP3    H127087   2.342   0.937   7.165  0.7394  1.1694 -0.1396
  964TIP3    H227088   2.284   1.024   7.055 -1.8995  1.0264  1.0594
  965TIP3   OH227089   3.270   6.833   8.432 -0.5423  0.6181  0.2741
  965TIP3    H127090   3.185   6.866   8.403 -0.0344  0.2062 -1.8614
  965TIP3    H227091   3.250   6.754   8.482 -1.4187  0.5724 -0.1436
  966TIP3   OH227092   4.048   4.256   7.383  0.3752 -0.0054 -0.2440
  966TIP3    H127093   4.035   4.290   7.294  0.6045 -1.7667 -1.0018
  966TIP3    H227094   3.974   4.290   7.433 -1.1268 -0.9152 -1.7394
  967TIP3   OH227095   3.965   6.632   2.101 -0.2463  0.5444  0.2954
  967TIP3    H127096   3.883   6.583   2.091 -0.4789  0.9055  0.3906
  967TIP3    H227097   3.937   6.724   2.100  0.3880  0.7712 -2.0082
  968TIP3   OH227098   2.212   3.823   0.816 -0.2134  0.3332 -0.1198
  968TIP3    H127099   2.160   3.881   0.872 -1.0191  0.0450 -0.5604
  968TIP3    H227100   2.153   3.751   0.795  0.8952 -0.8509  0.7239
  969TIP3   OH227101   2.989   6.074   0.664 -0.4701  0.0464 -0.2991
  969TIP3    H127102   2.905   6.095   0.706 -0.1475 -0.7842  0.7948
  969TIP3    H227103   2.967   6.065   0.571 -1.5588  0.0586 -0.0618
  970TIP3   OH227104   3.294   4.475   7.765  0.5892 -0.0101 -0.7146
  970TIP3    H127105   3.202   4.494   7.748  1.0546  1.3380 -1.8816
  970TIP3    H227106   3.303   4.484   7.860 -0.3716  0.3908 -0.6519
  971TIP3   OH227107   7.044   2.039   8.696 -0.7567  0.1501  0.1744
  971TIP3    H127108   7.118   2.074   8.745 -1.1835 -0.0220  0.9785
  971TIP3    H227109   7.004   1.975   8.756 -1.5360  0.2204 -0.2484
  972TIP3   OH227110   0.682   1.707   2.077  0.7024  0.0787  0.3120
  972TIP3    H127111   0.663   1.782   2.132  1.3407  0.5244 -0.0587
  972TIP3    H227112   0.643   1.729   1.992  1.0857  0.1061  0.1373
  973TIP3   OH227113   3.403   4.667   9.868 -0.6677  0.1750 -0.4436
  973TIP3    H127114   3.375   4.654   9.777  0.3546 -0.5602 -0.6777
  973TIP3    H227115   3.499   4.672   9.862 -0.6824  2.5154  0.3152
  974TIP3   OH227116   6.308   5.940   9.626  0.5024  0.5456  0.6464
  974TIP3    H127117   6.342   5.907   9.543 -1.1678  0.3523 -0.0028
  974TIP3    H227118   6.223   5.896   9.637  0.3768  1.0728  2.1227
  975TIP3   OH227119   1.422   1.792   1.804 -0.6528  0.0424  0.1094
  975TIP3    H127120   1.436   1.809   1.711 -1.9989  2.1074  0.1951
  975TIP3    H227121   1.326   1.791   1.813 -0.5374 -0.2406  1.4410
  976TIP3   OH227122   4.888   2.228   9.970  0.0094  0.3440  0.2864
  976TIP3    H127123   4.967   2.194  10.010 -0.4538  1.1913  2.0394
  976TIP3    H227124   4.891   2.323   9.988 -1.0192  0.4996 -0.2624
  977TIP3   OH227125   7.641   5.541   7.407 -0.1554 -0.2105 -0.0264
  977TIP3    H127126   7.609   5.461   7.364  0.9057 -0.3984 -0.4904
  977TIP3    H227127   7.637   5.521   7.500 -0.9147 -0.4076 -0.0969
  978TIP3   OH227128   0.464   7.450   0.308 -0.3218 -0.1194  0.1814
  978TIP3    H127129   0.486   7.462   0.400  1.5292  0.3776 -0.2797
  978TIP3    H227130   0.523   7.509   0.261  0.5899 -2.1769 -1.4587
  979TIP3   OH227131   0.115   6.335   1.865 -0.2640 -0.1554 -0.0490
  979TIP3    H127132   0.120   6.327   1.960  0.4661 -0.6740 -0.1208
  979TIP3    H227133   0.154   6.420   1.846 -0.9801  0.2247  0.1548
  980TIP3   OH227134   1.609   4.092   8.166 -0.2525 -0.8527  0.1764
  980TIP3    H127135   1.699   4.116   8.185  0.3881 -2.8983 -0.0260
  980TIP3    H227136   1.596   4.118   8.074 -0.0727 -0.0823  0.3587
  981TIP3   OH227137   1.954   5.650   1.595  0.2406  0.3173  0.2046
  981TIP3    H127138   2.014   5.595   1.645  2.1857  2.6522  0.6130
  981TIP3    H227139   1.878   5.661   1.652  0.4933 -0.6506  0.7516
  982TIP3   OH227140   4.011   2.138   9.865  0.1237 -0.0893 -0.1873
  982TIP3    H127141   4.047   2.054   9.837 -0.8748 -0.0277 -1.7652
  982TIP3    H227142   4.048   2.152   9.953  1.3672 -1.5146 -0.4447
  983TIP3   OH227143   4.775   3.752   9.690 -0.7633 -0.1249 -0.0057
  983TIP3    H127144   4.783   3.737   9.596 -0.4330  0.8259 -0.1461
  983TIP3    H227145   4.837   3.691   9.730  1.0882  1.2844 -0.5865
  984TIP3   OH227146   1.465   4.368   8.390  0.5421  0.4730  0.0802
  984TIP3    H127147   1.407   4.424   8.442  0.2262  0.3431 -0.1298
  984TIP3    H227148   1.503   4.307   8.454  0.6810  0.7481  0.2659
  985TIP3   OH227149   2.941   5.018   9.994 -0.5403  0.3336 -0.4065
  985TIP3    H127150   2.888   5.001  10.072  0.8213  1.4069  0.7941
  985TIP3    H227151   2.881   5.063   9.934 -1.5501 -0.3371  0.0611
  986TIP3   OH227152   3.182   1.333   1.633  0.5238 -1.0940  0.1677
  986TIP3    H127153   3.232   1.385   1.696  1.6155  1.1129 -2.3463
  986TIP3    H227154   3.232   1.253   1.623  2.6315  0.2622 -0.8355
  987TIP3   OH227155   7.412   5.549   1.151  0.2518  0.2808 -0.0752
  987TIP3    H127156   7.378   5.638   1.161  1.6830  0.8341  0.0095
  987TIP3    H227157   7.473   5.554   1.078  1.6190 -0.2404  0.9998
  988TIP3   OH227158   3.120   4.193   2.215  0.0154  0.3135 -0.1106
  988TIP3    H127159   3.027   4.210   2.196  0.0779 -0.1115 -0.8212
  988TIP3    H227160   3.119   4.132   2.288 -0.2601  0.4951  0.0399
  989TIP3   OH227161   7.002   3.124   1.043 -0.0720  0.0205 -0.0835
  989TIP3    H127162   7.002   3.219   1.028  0.0061  0.0500  0.1028
  989TIP3    H227163   7.005   3.114   1.138 -0.4201 -0.1710 -0.0902
  990TIP3   OH227164   1.121   6.070   8.482 -0.0081 -0.2913 -0.1601
  990TIP3    H127165   1.193   6.066   8.419 -1.0105  0.8862 -1.4193
  990TIP3    H227166   1.156   6.026   8.560  1.9637 -0.0346 -0.8375
  991TIP3   OH227167   2.971   5.100   7.411  0.1307 -0.9838 -0.3363
  991TIP3    H127168   3.037   5.052   7.361  0.5438  0.3545 -1.1371
  991TIP3    H227169   2.938   5.036   7.474  0.5372 -2.3550 -1.4406
  992TIP3   OH227170   6.021   3.481   8.388  0.0827 -0.2808 -0.4066
  992TIP3    H127171   5.994   3.426   8.462  2.3253  0.9189  1.4362
  992TIP3    H227172   6.077   3.424   8.335 -3.0671 -1.7815 -2.5082
  993TIP3   OH227173   1.459   7.568   7.523 -0.6820  0.2279  0.2110
  993TIP3    H127174   1.440   7.548   7.431 -0.4415 -0.9149  0.3922
  993TIP3    H227175   1.380   7.613   7.554 -0.6303  0.9364 -0.6373
  994TIP3   OH227176   6.134   0.834   0.706  0.0912 -0.5961  0.0057
  994TIP3    H127177   6.128   0.917   0.755  2.8702  0.3366 -1.0309
  994TIP3    H227178   6.158   0.769   0.772  0.5431 -0.0289  0.4056
  995TIP3   OH227179   3.264   4.833   1.142 -0.3403 -0.0418  0.3147
  995TIP3    H127180   3.248   4.740   1.127 -1.2972  0.4486 -2.1068
  995TIP3    H227181   3.349   4.850   1.102  0.3108 -0.0382  1.6485
  996TIP3   OH227182   3.997   2.666   0.831 -0.5111  0.5929  0.7821
  996TIP3    H127183   3.956   2.732   0.887 -3.1058 -1.2159  1.1833
  996TIP3    H227184   4.008   2.709   0.746  0.1290  2.2307  1.6490
  997TIP3   OH227185   5.754   4.657   9.535  0.2879 -0.6969  0.2823
  997TIP3    H127186   5.840   4.625   9.562 -1.2568 -1.8908  4.5053
  997TIP3    H227187   5.726   4.597   9.466  0.7648 -3.7368  2.5390
  998TIP3   OH227188   1.935   0.714   2.880  0.3918  0.2169 -0.3624
  998TIP3    H127189   1.870   0.703   2.949  2.2055  0.3969  1.4709
  998TIP3    H227190   2.014   0.742   2.926  1.4162  1.3232 -2.6465
  999TIP3   OH227191   3.244   0.110   7.723 -0.3037  0.6389  0.4683
  999TIP3    H127192   3.161   0.155   7.741 -0.7622  0.3833 -0.8925
  999TIP3    H227193   3.220   0.039   7.664  0.8660  0.4684  0.1805
 1000TIP3   OH227194   6.477   6.400   8.769  0.1620  0.5334  0.1623
 1000TIP3    H127195   6.418   6.426   8.698 -0.8131  0.4802  0.9258
 1000TIP3    H227196   6.537   6.338   8.729 -1.4532 -0.8404 -0.2325
 1001TIP3   OH227197   6.818   1.075   2.579 -0.2072 -1.0022 -0.2682
 1001TIP3    H127198   6.803   1.152   2.523 -1.3875  0.9544  2.5432
 1001TIP3    H227199   6.731   1.042   2.598  0.0721 -0.9374  1.2614
 1002TIP3   OH227200   0.273   1.670   1.865 -0.2039 -0.0542 -0.4025
 1002TIP3    H127201   0.350   1.618   1.842  1.1324  0.1080  3.0850
 1002TIP3    H227202   0.223   1.613   1.924 -1.7349  0.6040 -1.0134
 1003TIP3   OH227203   0.007   7.078   2.572  0.2406 -0.2820  0.3270
 1003TIP3    H127204   0.092   7.079   2.617  1.8606  0.0716 -2.5478
 1003TIP3    H227205  -0.026   6.989   2.586  0.9785 -0.3884  1.5847
 1004TIP3   OH227206   0.545   3.398   0.248 -0.1576  0.0649 -0.2030
 1004TIP3    H127207   0.466   3.373   0.199 -0.6325  0.1751  0.4903
 1004TIP3    H227208   0.594   3.316   0.256 -0.9963 -0.3682  0.7724
 1005TIP3   OH227209   1.655   6.386   2.168 -0.0290  0.0251 -1.0852
 1005TIP3    H127210   1.745   6.391   2.201 -0.7199  1.5133  0.7628
 1005TIP3    H227211   1.652   6.450   2.097  0.2505  0.3464 -0.8096
 1006TIP3   OH227212   5.737   7.617   7.444  0.5233  0.3791  0.4049
 1006TIP3    H127213   5.795   7.649   7.513  0.4422  0.6866  0.3319
 1006TIP3    H227214   5.651   7.614   7.485  0.5059  0.3932  0.3691
 1007TIP3   OH227215   1.511   0.823   0.628 -0.1718  0.3779 -0.0097
 1007TIP3    H127216   1.579   0.760   0.650  0.3910  1.4929  1.6438
 1007TIP3    H227217   1.438   0.769   0.597  1.3247 -0.8582 -1.6433
 1008TIP3   OH227218   7.600   1.000   0.598 -0.3379  0.7464 -0.0399
 1008TIP3    H127219   7.638   1.004   0.511 -1.1899 -0.0676 -0.4709
 1008TIP3    H227220   7.601   1.091   0.629  0.8431  0.9058 -0.4977
 1009TIP3   OH227221   5.639   6.393   1.360 -0.1730  0.0021  0.2269
 1009TIP3    H127222   5.615   6.369   1.271  2.7944  0.1711 -0.7216
 1009TIP3    H227223   5.731   6.366   1.368 -0.9089 -2.0895  4.0225
 1010TIP3   OH227224   3.531   3.965   8.956  0.3462  0.6193  0.4626
 1010TIP3    H127225   3.595   4.009   8.900 -0.2816  0.2600 -0.5656
 1010TIP3    H227226   3.447   4.005   8.934 -0.3790 -1.5567 -1.0835
 1011TIP3   OH227227   6.108   2.615   1.263 -0.5852 -0.0015 -0.3876
 1011TIP3    H127228   6.188   2.567   1.279 -3.2147 -4.5002  1.0298
 1011TIP3    H227229   6.104   2.624   1.168  1.3462 -0.0495 -0.5062
 1012TIP3   OH227230   4.148   5.053   9.729  0.1715 -0.3003  0.5276
 1012TIP3    H127231   4.106   5.134   9.701  0.7196  0.5860  2.1585
 1012TIP3    H227232   4.079   4.987   9.727 -1.1306  0.9285  2.3010
 1013TIP3   OH227233   6.805   1.164   0.613 -0.6670  0.3032 -0.6499
 1013TIP3    H127234   6.776   1.078   0.582 -0.8438  0.7360 -1.7226
 1013TIP3    H227235   6.790   1.161   0.708 -0.3877 -0.9491 -0.6257
 1014TIP3   OH227236   2.497   1.869   8.766 -0.8497 -0.3046 -0.2145
 1014TIP3    H127237   2.446   1.939   8.727 -0.2734 -0.2705 -0.9264
 1014TIP3    H227238   2.567   1.914   8.813 -1.4126 -0.3541  0.7073
 1015TIP3   OH227239   0.673   1.104   8.846  0.0889 -0.1892  0.4004
 1015TIP3    H127240   0.586   1.065   8.857  0.5724 -0.9500  1.6043
 1015TIP3    H227241   0.674   1.178   8.907  0.4218 -0.3888  0.6317
 1016TIP3   OH227242   6.477   7.516   1.383  0.1496  0.1424  0.1780
 1016TIP3    H127243   6.566   7.485   1.365  0.6948  1.0805  1.1971
 1016TIP3    H227244   6.480   7.610   1.365 -1.2694 -0.1671 -2.0764
 1017TIP3   OH227245   4.513   6.286   8.813 -1.0841  0.0781 -0.3160
 1017TIP3    H127246   4.428   6.284   8.855 -1.4339  0.2409 -1.0018
 1017TIP3    H227247   4.572   6.322   8.880 -1.3729 -0.8220  0.4464
 1018TIP3   OH227248   4.226   1.938   8.306  0.1522  0.0698  0.4561
 1018TIP3    H127249   4.170   1.958   8.231 -0.7633  1.7389  1.5221
 1018TIP3    H227250   4.231   1.843   8.308 -0.1177 -0.0254 -1.4803
 1019TIP3   OH227251   4.790   5.064   7.363 -0.0286  0.3120  0.4326
 1019TIP3    H127252   4.759   4.991   7.310 -0.3354  0.9495 -0.2755
 1019TIP3    H227253   4.726   5.071   7.434 -0.3402  0.2823  0.1568
 1020TIP3   OH227254   1.538   6.114   2.346 -0.3570 -0.2583 -0.2523
 1020TIP3    H127255   1.631   6.125   2.368 -0.6428  3.6595 -0.2957
 1020TIP3    H227256   1.537   6.111   2.251 -0.2610  0.0321 -0.2660
 1021TIP3   OH227257   0.322   1.586   3.141  0.0069 -0.0736  0.3017
 1021TIP3    H127258   0.404   1.575   3.092 -0.6287  1.5098 -1.1943
 1021TIP3    H227259   0.307   1.500   3.182  0.9654 -1.2324 -1.6410
 1022TIP3   OH227260   5.471   2.027   8.800  0.1773  0.1861 -0.3070
 1022TIP3    H127261   5.393   2.080   8.818 -0.1198  0.1511 -1.3841
 1022TIP3    H227262   5.453   1.944   8.843 -0.1114  0.3781 -0.0428
 1023TIP3   OH227263   0.840   3.452   0.133  0.1047  0.4033  0.0203
 1023TIP3    H127264   0.767   3.467   0.193  0.3660  0.4150  0.3429
 1023TIP3    H227265   0.811   3.487   0.049 -0.1785  0.5990  0.1992
 1024TIP3   OH227266   0.231   4.468   0.155 -0.0001  0.2141 -0.1433
 1024TIP3    H127267   0.264   4.447   0.243  1.0036  0.7500 -0.3856
 1024TIP3    H227268   0.301   4.519   0.114  0.8019 -2.3491 -2.2673
 1025TIP3   OH227269   6.485   6.154   7.586  0.3679  0.3860 -0.4107
 1025TIP3    H127270   6.480   6.150   7.682  1.0835  1.4634 -0.3054
 1025TIP3    H227271   6.394   6.149   7.557  0.2285 -1.7059  0.2112
 1026TIP3   OH227272   1.271   4.490   8.510 -0.8340  0.0012 -0.6689
 1026TIP3    H127273   1.264   4.582   8.485  0.7311  0.4745  0.4659
 1026TIP3    H227274   1.245   4.489   8.602 -1.1456 -0.7587 -0.7600
 1027TIP3   OH227275   5.107   0.668   2.076 -0.3001 -0.1932 -0.1703
 1027TIP3    H127276   5.086   0.663   2.169  0.6148 -0.2167  0.0396
 1027TIP3    H227277   5.031   0.711   2.037 -0.2913  0.6711  0.7302
 1028TIP3   OH227278   5.398   0.456   9.898 -0.4373  0.3923 -0.8139
 1028TIP3    H127279   5.358   0.513   9.964 -1.7850  0.8410 -1.9700
 1028TIP3    H227280   5.469   0.412   9.944 -1.1370  0.9306  0.8512
 1029TIP3   OH227281   3.944   6.600   1.306 -0.2425 -0.1668  0.2163
 1029TIP3    H127282   3.917   6.535   1.241 -1.0732  0.3188  0.0595
 1029TIP3    H227283   3.867   6.656   1.316 -0.3412 -0.5865  2.0680
 1030TIP3   OH227284   7.492   3.691   0.919  0.2089 -0.1154 -0.2378
 1030TIP3    H127285   7.582   3.676   0.890  0.4825  0.3240  0.3812
 1030TIP3    H227286   7.497   3.764   0.979 -0.5395 -0.2165 -0.0350
 1031TIP3   OH227287   1.639   7.248   1.326 -0.3428 -0.7017 -0.1529
 1031TIP3    H127288   1.581   7.173   1.311 -0.1006 -0.4224 -3.2191
 1031TIP3    H227289   1.593   7.322   1.287  0.8960  0.0391 -0.2826
 1032TIP3   OH227290   6.269   5.686   6.908  0.0508 -0.8578 -0.1902
 1032TIP3    H127291   6.342   5.747   6.915 -0.0990 -0.7742  0.7321
 1032TIP3    H227292   6.205   5.731   6.852  0.2588 -0.4914 -0.1309
 1033TIP3   OH227293   1.336   3.652   2.344  0.0198  0.1026  0.1215
 1033TIP3    H127294   1.386   3.573   2.323  3.1008  1.2991  2.2034
 1033TIP3    H227295   1.337   3.703   2.263  1.0024 -0.5377 -0.2916
 1034TIP3   OH227296   7.098   6.314   9.232 -0.1523  0.3706 -0.1395
 1034TIP3    H127297   7.070   6.228   9.199  0.1926  0.3914 -0.5004
 1034TIP3    H227298   7.187   6.324   9.199  0.0787  0.5507  0.5166
 1035TIP3   OH227299   6.835   6.572   9.960 -0.4653 -0.1374 -0.0099
 1035TIP3    H127300   6.772   6.587   9.889 -0.6043 -0.3494  0.0669
 1035TIP3    H227301   6.780   6.564  10.039 -0.3336 -0.2143  0.0737
 1036TIP3   OH227302   6.093   4.369   8.093 -0.0131 -0.0055 -0.0077
 1036TIP3    H127303   6.001   4.391   8.077 -0.1876  0.7435  1.8660
 1036TIP3    H227304   6.090   4.280   8.129  0.0361 -0.0718 -0.1635
 1037TIP3   OH227305   6.292   4.026   7.986  0.1835 -0.3380 -0.1548
 1037TIP3    H127306   6.334   3.958   7.933  0.2984 -0.9352  0.6730
 1037TIP3    H227307   6.201   4.026   7.956 -0.2299 -2.0413  0.9422
 1038TIP3   OH227308   5.212   1.632   9.434  0.7135 -0.1552  0.1493
 1038TIP3    H127309   5.125   1.610   9.400  0.5419  1.9491 -0.9381
 1038TIP3    H227310   5.254   1.547   9.448 -0.5257 -1.2114 -1.9652
 1039TIP3   OH227311   2.333   3.295   1.587  0.7016 -0.2532 -0.1594
 1039TIP3    H127312   2.291   3.279   1.671  1.7285  0.1447  0.4601
 1039TIP3    H227313   2.379   3.213   1.567 -1.6778 -1.3102 -1.6869
 1040TIP3   OH227314   3.492   6.918   1.804  0.3578  0.5079  0.3452
 1040TIP3    H127315   3.524   6.977   1.735 -0.8275  1.3768  0.5094
 1040TIP3    H227316   3.564   6.916   1.867  0.7966  1.0364 -0.1140
 1041TIP3   OH227317   0.635   3.828   1.477  0.6581 -0.1710  0.8800
 1041TIP3    H127318   0.554   3.863   1.440  1.0281  0.3499  0.5401
 1041TIP3    H227319   0.659   3.755   1.421  1.3226  0.7357 -0.0629
 1042TIP3   OH227320   5.413   0.319   8.848  0.5003 -0.0326 -0.0991
 1042TIP3    H127321   5.453   0.238   8.813  0.1337  0.0423 -0.7073
 1042TIP3    H227322   5.434   0.317   8.941 -0.2546 -1.2829  0.0737
 1043TIP3   OH227323   6.855   2.243   2.200  0.0701 -0.5240  0.0882
 1043TIP3    H127324   6.858   2.188   2.122  2.2819 -0.8700  0.3362
 1043TIP3    H227325   6.807   2.321   2.173  1.6038 -0.1934 -1.9526
 1044TIP3   OH227326   0.772   2.901   1.835 -0.4596 -0.1152 -0.2136
 1044TIP3    H127327   0.713   2.917   1.760 -0.7593 -0.5333 -0.0710
 1044TIP3    H227328   0.724   2.840   1.890 -0.9095  1.3566  1.0989
 1045TIP3   OH227329   4.036   7.455   7.843  0.1588 -0.4263  0.6272
 1045TIP3    H127330   4.041   7.527   7.905  0.6422 -0.6146  0.8131
 1045TIP3    H227331   3.955   7.470   7.795 -0.0960 -0.1479  1.1412
 1046TIP3   OH227332   7.223   6.653   2.235 -0.1076 -0.6646  0.1771
 1046TIP3    H127333   7.276   6.698   2.169  0.8938 -2.9098 -0.6806
 1046TIP3    H227334   7.153   6.714   2.256  1.1552  1.2424 -0.8663
 1047TIP3   OH227335   0.944   2.803   8.735  0.6768 -0.0384 -0.0699
 1047TIP3    H127336   0.935   2.770   8.646  3.4980 -0.0019 -0.4653
 1047TIP3    H227337   0.951   2.898   8.725 -1.6552  0.2697  0.5243
 1048TIP3   OH227338   4.892   3.739   8.013  0.0955  0.0527 -0.2977
 1048TIP3    H127339   4.880   3.776   8.101  0.6667  1.4329 -0.7725
 1048TIP3    H227340   4.987   3.732   8.003  0.0725  0.9144 -1.1996
 1049TIP3   OH227341   7.142   7.533   1.329  0.1527 -0.1539  0.3545
 1049TIP3    H127342   7.075   7.600   1.346 -1.4168 -1.3204 -0.9229
 1049TIP3    H227343   7.209   7.550   1.395 -0.2545  2.5388  0.2127
 1050TIP3   OH227344   6.398   5.749   8.850 -0.0221 -0.3868 -0.1307
 1050TIP3    H127345   6.321   5.742   8.905 -0.5823  1.1567 -0.6783
 1050TIP3    H227346   6.469   5.776   8.909 -0.2420 -0.3160  0.0985
 1051TIP3   OH227347   3.271   4.880   0.560  0.0120  0.1360  0.1880
 1051TIP3    H127348   3.359   4.916   0.571 -0.4576  0.8926  1.6811
 1051TIP3    H227349   3.273   4.797   0.607  0.6455 -1.1754 -1.9856
 1052TIP3   OH227350   6.017   6.861   1.720  0.4101 -0.4046 -0.6971
 1052TIP3    H127351   6.110   6.859   1.741  0.7384  2.3356 -1.5529
 1052TIP3    H227352   5.982   6.932   1.774 -1.1570 -1.1948 -0.6116
 1053TIP3   OH227353   4.103   1.062   9.407 -0.0206 -0.0905  0.3565
 1053TIP3    H127354   4.172   1.054   9.472 -1.2541  1.7161  1.9940
 1053TIP3    H227355   4.028   1.016   9.445 -0.6537  0.7003  0.1154
 1054TIP3   OH227356   7.098   4.340   9.503 -0.0603 -0.2557  0.0114
 1054TIP3    H127357   7.191   4.330   9.483 -0.1135 -0.3627 -0.1810
 1054TIP3    H227358   7.079   4.430   9.477 -0.5557 -0.9354 -2.1684
 1055TIP3   OH227359   6.745   1.192   1.175 -0.2058 -0.0567 -0.2465
 1055TIP3    H127360   6.766   1.279   1.209  0.3327 -0.4045  0.3276
 1055TIP3    H227361   6.753   1.201   1.080 -1.7645  0.9397 -0.3197
 1056TIP3   OH227362   7.508   0.584   9.431  0.3692 -0.3350 -0.3354
 1056TIP3    H127363   7.515   0.640   9.508  3.3299 -0.2917 -0.5211
 1056TIP3    H227364   7.476   0.643   9.362  0.3684  0.3249  0.2139
 1057TIP3   OH227365   7.036   4.612   9.417  0.5676  0.4294  0.1969
 1057TIP3    H127366   6.957   4.577   9.376 -0.3209 -0.1936  2.3146
 1057TIP3    H227367   7.056   4.690   9.366 -1.0854  0.2969 -0.7428
 1058TIP3   OH227368   3.956   5.705   0.719 -0.2799  0.1026  0.4170
 1058TIP3    H127369   3.951   5.687   0.813 -1.7345  0.1540  0.3642
 1058TIP3    H227370   4.016   5.779   0.713 -1.0888  0.8761  1.4304
 1059TIP3   OH227371   0.127   1.478   0.305  0.1899  0.4104  0.3522
 1059TIP3    H127372   0.170   1.563   0.296  2.3127 -0.5446  0.7493
 1059TIP3    H227373   0.150   1.448   0.393 -1.6466 -0.0353  0.7339
 1060TIP3   OH227374   7.242   3.378   8.206  0.4600 -0.0283  0.3034
 1060TIP3    H127375   7.279   3.465   8.221 -0.2476  0.6872 -1.7547
 1060TIP3    H227376   7.318   3.321   8.193  0.9141  0.4194  0.9469
 1061TIP3   OH227377   2.955   0.804   8.846  0.5738  0.1520 -0.6652
 1061TIP3    H127378   2.922   0.889   8.874  0.7187 -0.2008  0.6400
 1061TIP3    H227379   2.944   0.804   8.751 -0.7977  1.0394 -0.5363
 1062TIP3   OH227380   4.051   1.935   8.106  0.0233 -0.2541 -0.5219
 1062TIP3    H127381   3.968   1.907   8.146 -0.0766 -0.9039 -1.1632
 1062TIP3    H227382   4.075   1.863   8.049  1.1678 -0.1727 -0.1646
 1063TIP3   OH227383   6.959   1.142   6.768 -0.0788  0.0008  0.0947
 1063TIP3    H127384   7.022   1.159   6.699 -0.0321 -1.3052 -0.2157
 1063TIP3    H227385   7.001   1.075   6.823  0.5777  2.1054  2.3546
 1064TIP3   OH227386   1.715   5.314   1.202 -0.2236 -0.3103 -0.3158
 1064TIP3    H127387   1.690   5.311   1.294  0.5161 -0.6475 -0.1172
 1064TIP3    H227388   1.674   5.393   1.168  0.9613  0.8010  0.7409
 1065TIP3   OH227389   4.473   0.139   6.957  0.4842 -0.1462 -0.3182
 1065TIP3    H127390   4.505   0.109   6.872  1.5633  0.3824 -0.1116
 1065TIP3    H227391   4.529   0.095   7.021 -0.5223 -0.7845  0.1457
 1066TIP3   OH227392   1.564   7.398   9.905 -0.1692 -0.3397  0.5396
 1066TIP3    H127393   1.562   7.491   9.925 -0.3476 -0.2458  0.1030
 1066TIP3    H227394   1.577   7.394   9.810 -2.2601 -0.7161  0.2181
 1067TIP3   OH227395   3.646   6.677   9.916 -0.4337 -0.3536  0.2568
 1067TIP3    H127396   3.703   6.716   9.981  0.2583 -1.7754  0.5483
 1067TIP3    H227397   3.568   6.733   9.915  0.6193  1.1802  0.4019
 1068TIP3   OH227398   2.587   5.724   1.168 -0.0118 -0.2022  0.5247
 1068TIP3    H127399   2.549   5.641   1.197 -0.5003  0.6167  2.3166
 1068TIP3    H227400   2.513   5.784   1.160  0.5879  0.7515  1.7457
 1069TIP3   OH227401   3.559   6.941   1.209 -0.1796 -0.7565  0.6506
 1069TIP3    H127402   3.533   6.859   1.166  0.9261 -0.3823 -0.8075
 1069TIP3    H227403   3.650   6.954   1.182 -0.2675  0.8366  1.0469
 1070TIP3   OH227404   1.491   3.454   0.173  0.1588 -0.1124 -0.0697
 1070TIP3    H127405   1.522   3.412   0.093 -0.9621 -0.0804 -0.5462
 1070TIP3    H227406   1.529   3.542   0.171  0.6661 -0.3321 -0.2232
 1071TIP3   OH227407   2.313   6.262   8.713 -0.1220  0.0245  0.5103
 1071TIP3    H127408   2.255   6.296   8.645  0.1888  1.5770  0.9809
 1071TIP3    H227409   2.286   6.170   8.724 -1.0095  0.1056 -0.8030
 1072TIP3   OH227410   2.856   1.798   8.270 -0.3801 -0.5104 -0.4809
 1072TIP3    H127411   2.872   1.704   8.279 -2.3658 -1.1682 -2.8926
 1072TIP3    H227412   2.943   1.838   8.279  0.5749 -2.6049  0.0379
 1073TIP3   OH227413   2.313   4.578   0.660 -0.2621 -0.1350  0.1234
 1073TIP3    H127414   2.262   4.594   0.580  1.0430 -0.1376 -0.7386
 1073TIP3    H227415   2.332   4.484   0.658  0.5041  0.0159 -0.0247
 1074TIP3   OH227416   0.688   0.070   1.487 -0.1725  0.2758 -0.1521
 1074TIP3    H127417   0.598   0.045   1.467 -0.5155 -0.7125  2.2215
 1074TIP3    H227418   0.679   0.133   1.559  1.0164 -0.8682  1.0510
 1075TIP3   OH227419   7.281   2.391   1.003 -0.3786 -0.2324 -0.1746
 1075TIP3    H127420   7.366   2.350   1.014 -0.3258  0.4208  2.4818
 1075TIP3    H227421   7.300   2.476   0.963  0.1139 -0.3870 -0.2720
 1076TIP3   OH227422   1.310   4.541   8.783 -0.0373  0.0728  0.5127
 1076TIP3    H127423   1.405   4.541   8.767 -0.4142  0.8689 -2.3217
 1076TIP3    H227424   1.287   4.449   8.790  0.7679 -0.1850 -0.1287
 1077TIP3   OH227425   3.081   6.044   9.077  0.5890 -0.5151  0.4525
 1077TIP3    H127426   3.127   5.961   9.066 -0.9837 -1.5122  1.1129
 1077TIP3    H227427   2.992   6.026   9.047  0.7225  1.5700 -1.4924
 1078TIP3   OH227428   6.995   6.710   0.267 -0.1049  0.0509  0.1424
 1078TIP3    H127429   7.089   6.703   0.247 -0.1987 -1.3488  0.1317
 1078TIP3    H227430   6.962   6.772   0.202  0.7583  0.3318 -0.0489
 1079TIP3   OH227431   5.636   2.887   7.370  0.3617 -0.1396  0.5802
 1079TIP3    H127432   5.714   2.858   7.418  0.8712  1.0962  0.5247
 1079TIP3    H227433   5.616   2.973   7.407 -2.4135 -1.3674  2.2695
 1080TIP3   OH227434   1.339   2.372   8.315  0.3789 -0.4552  0.2806
 1080TIP3    H127435   1.244   2.370   8.323  0.3927  0.8610  1.1044
 1080TIP3    H227436   1.371   2.300   8.368 -0.1688 -1.2971 -0.5097
 1081TIP3   OH227437   1.115   6.145   2.011 -0.3577  0.2524  0.3353
 1081TIP3    H127438   1.077   6.222   2.052 -0.9419  0.4408 -0.5228
 1081TIP3    H227439   1.081   6.147   1.921 -0.0676 -0.7851  0.1900
 1082TIP3   OH227440   6.234   0.216   1.916  0.0541  0.2907  0.2132
 1082TIP3    H127441   6.253   0.158   1.843  1.3589 -2.4020  2.4931
 1082TIP3    H227442   6.140   0.204   1.932  0.2585 -1.1261  0.5219
 1083TIP3   OH227443   4.005   1.302   1.955  0.2970 -0.0758  0.1613
 1083TIP3    H127444   3.941   1.325   1.889  1.1688  2.7524  0.1808
 1083TIP3    H227445   4.090   1.309   1.911  0.7538 -1.2558  0.7907
 1084TIP3   OH227446   1.643   2.622   9.973 -0.1463  0.3417 -0.5383
 1084TIP3    H127447   1.699   2.545   9.977 -1.5099 -0.7085 -1.0344
 1084TIP3    H227448   1.692   2.690  10.020  0.2859 -1.3149  1.5035
 1085TIP3   OH227449   0.331   4.057   8.562  0.1652  0.3846  0.1205
 1085TIP3    H127450   0.287   4.045   8.646  2.1419 -0.5871  1.0732
 1085TIP3    H227451   0.420   4.081   8.585  0.0820  2.9720 -1.7399
 1086TIP3   OH227452   6.738   1.207   8.859  0.1373  0.2979 -0.5658
 1086TIP3    H127453   6.823   1.202   8.815 -0.0004  1.5561 -1.0068
 1086TIP3    H227454   6.756   1.183   8.950  0.2358 -3.5596 -1.4199
 1087TIP3   OH227455   1.439   4.188   7.498  0.0093 -0.2213 -0.2314
 1087TIP3    H127456   1.358   4.171   7.547 -0.2609 -1.6524 -1.1139
 1087TIP3    H227457   1.409   4.217   7.412  0.3601 -2.4483 -1.1523
 1088TIP3   OH227458   3.399   1.297   7.876  0.5158  0.2427 -0.3530
 1088TIP3    H127459   3.358   1.346   7.805  2.1507  1.0359 -0.7975
 1088TIP3    H227460   3.351   1.323   7.954 -0.4223  0.4158 -0.9705
 1089TIP3   OH227461   3.771   1.521   9.258 -0.1405 -0.0610 -0.1485
 1089TIP3    H127462   3.678   1.537   9.242 -0.2656 -1.1090 -0.5021
 1089TIP3    H227463   3.803   1.479   9.178  1.0553  1.8471 -0.7574
 1090TIP3   OH227464   7.127   3.217   0.015  0.2026 -0.3018 -0.2640
 1090TIP3    H127465   7.202   3.249  -0.034 -0.4231  1.4170 -0.1893
 1090TIP3    H227466   7.143   3.244   0.106 -1.3763  1.9689 -0.5645
 1091TIP3   OH227467   4.183   7.016   7.368  0.6228 -0.1296  0.0150
 1091TIP3    H127468   4.184   6.920   7.367 -0.2656 -0.1708  1.1379
 1091TIP3    H227469   4.201   7.041   7.277 -1.9832 -1.4333 -0.9655
 1092TIP3   OH227470   7.628   3.664   7.247 -0.1363 -0.4136  0.9129
 1092TIP3    H127471   7.613   3.698   7.336 -0.5355  0.2514  0.6008
 1092TIP3    H227472   7.617   3.740   7.191 -1.8079 -1.1888  0.1088
 1093TIP3   OH227473   3.262   1.107   1.263  0.0239 -0.0689  0.7621
 1093TIP3    H127474   3.303   1.106   1.177  1.0458  1.6033  1.1773
 1093TIP3    H227475   3.283   1.194   1.298 -1.8833 -0.0381  1.9737
 1094TIP3   OH227476   0.310   4.241   8.340 -0.1462  0.7052  0.0974
 1094TIP3    H127477   0.308   4.177   8.411  0.4727  1.6686  1.0006
 1094TIP3    H227478   0.379   4.302   8.364 -2.7715  3.6068  0.9635
 1095TIP3   OH227479   4.270   3.802   9.152 -0.1687 -0.3741 -0.6209
 1095TIP3    H127480   4.188   3.823   9.196  0.6399  0.9610  0.3214
 1095TIP3    H227481   4.280   3.871   9.086 -0.0474 -0.8415 -1.1039
 1096TIP3   OH227482   5.507   4.462   7.071  0.3236  0.4715 -0.2741
 1096TIP3    H127483   5.514   4.402   7.146 -1.8435 -0.5779 -0.8341
 1096TIP3    H227484   5.507   4.404   6.995 -1.1321  1.2274 -0.8755
 1097TIP3   OH227485   5.374   3.088   8.699  0.5680 -0.2311  0.5192
 1097TIP3    H127486   5.308   3.149   8.731  1.4237  0.2197  1.4742
 1097TIP3    H227487   5.423   3.062   8.777  1.7803 -0.2407 -0.2218
 1098TIP3   OH227488   4.560   7.305   8.437 -0.4713  0.0076 -0.0847
 1098TIP3    H127489   4.498   7.248   8.391 -0.0659  0.0616 -0.7032
 1098TIP3    H227490   4.529   7.305   8.528 -0.6482 -0.9738 -0.1325
 1099TIP3   OH227491   6.733   7.490   9.079  0.3685 -0.3232  0.2039
 1099TIP3    H127492   6.666   7.534   9.132  1.6740  0.0343  1.6583
 1099TIP3    H227493   6.735   7.538   8.997 -0.9961 -0.2137  0.2135
 1100TIP3   OH227494   3.307   0.727   8.681  0.4659 -0.3474  0.1299
 1100TIP3    H127495   3.368   0.760   8.615  0.9209  0.2972  0.8599
 1100TIP3    H227496   3.231   0.698   8.631 -0.1780  2.2625 -0.5434
 1101TIP3   OH227497   7.209   0.760   9.929  0.6647 -0.2301  0.3222
 1101TIP3    H127498   7.210   0.720   9.842 -0.2064  0.4079 -0.0060
 1101TIP3    H227499   7.141   0.828   9.922 -1.2027 -1.7890  2.2332
 1102TIP3   OH227500   2.028   6.166   7.258 -0.1448  0.0739 -0.1100
 1102TIP3    H127501   2.020   6.101   7.187 -1.1973 -0.1280  0.1705
 1102TIP3    H227502   2.117   6.155   7.290 -0.7432 -2.3304  0.9337
 1103TIP3   OH227503   1.801   3.772   7.976 -0.9500 -0.9608 -0.3161
 1103TIP3    H127504   1.896   3.782   7.980 -0.8027 -1.8235 -1.0959
 1103TIP3    H227505   1.768   3.859   7.951 -0.1750 -1.1101 -2.0304
 1104TIP3   OH227506   5.560   7.071   0.909  0.3795  0.2876 -0.8924
 1104TIP3    H127507   5.652   7.060   0.884  0.3893  0.2515 -0.8405
 1104TIP3    H227508   5.560   7.147   0.967  0.5024 -0.2289 -0.2073
 1105TIP3   OH227509   5.525   6.807   7.893 -0.3130 -0.0222 -0.3842
 1105TIP3    H127510   5.443   6.766   7.923 -0.5895  0.1088 -0.9451
 1105TIP3    H227511   5.541   6.767   7.808 -0.4371  0.8311 -0.8161
 1106TIP3   OH227512   2.749   6.169   0.745 -0.4049  0.0632  0.0514
 1106TIP3    H127513   2.776   6.257   0.769  0.6529 -0.5678  1.3218
 1106TIP3    H227514   2.665   6.180   0.701  0.1488  1.7701 -0.6320
 1107TIP3   OH227515   2.948   2.508   7.190 -0.2919  0.1417  0.4439
 1107TIP3    H127516   3.041   2.525   7.206 -0.4385  0.3588  1.1158
 1107TIP3    H227517   2.939   2.508   7.095  0.3185  0.5508  0.3818
 1108TIP3   OH227518   0.739   0.111   7.812  0.6164  0.0456  0.2851
 1108TIP3    H127519   0.730   0.099   7.717 -1.3212 -0.0950  0.4541
 1108TIP3    H227520   0.787   0.193   7.821  0.8492  0.0511 -0.8069
 1109TIP3   OH227521   1.588   6.580   9.604  0.8478  0.6271 -0.2523
 1109TIP3    H127522   1.603   6.539   9.689  0.0519 -0.6175 -0.6822
 1109TIP3    H227523   1.599   6.508   9.541 -0.7735  1.0198 -1.0205
 1110TIP3   OH227524   5.217   1.842   1.911  0.2893  0.2849 -0.1588
 1110TIP3    H127525   5.305   1.813   1.887  1.3009  2.2332  0.9361
 1110TIP3    H227526   5.184   1.774   1.969  1.8955  0.4628  1.0148
 1111TIP3   OH227527   2.103   1.552   8.373 -0.2972 -0.3331 -0.7991
 1111TIP3    H127528   2.146   1.619   8.425 -0.1510 -1.2071  0.2523
 1111TIP3    H227529   2.056   1.498   8.438  0.3501 -1.7918 -1.4929
 1112TIP3   OH227530   7.026   1.746   7.457  0.6743 -0.1294  0.1331
 1112TIP3    H127531   7.046   1.793   7.376 -0.8156 -0.4856 -0.4876
 1112TIP3    H227532   7.008   1.656   7.429  2.6552 -0.9079  1.2000
 1113TIP3   OH227533   1.242   6.549   2.111  0.0666  0.0249 -0.0521
 1113TIP3    H127534   1.318   6.553   2.168  0.1415 -1.3249 -0.0211
 1113TIP3    H227535   1.185   6.483   2.151 -0.3367 -0.2173 -0.9805
 1114TIP3   OH227536   3.307   2.757   7.739  0.7489 -0.0855  0.0611
 1114TIP3    H127537   3.345   2.809   7.811  1.8405 -1.7098  0.7043
 1114TIP3    H227538   3.381   2.709   7.702  0.1777  0.5926 -2.1052
 1115TIP3   OH227539   2.835   4.852   0.670 -0.0125 -0.3684  0.0955
 1115TIP3    H127540   2.912   4.856   0.614  0.9793  0.8737  1.4743
 1115TIP3    H227541   2.820   4.759   0.683  1.2537 -0.6356 -0.2047
 1116TIP3   OH227542   6.308   3.344   9.827 -0.2465 -0.5814 -0.2931
 1116TIP3    H127543   6.218   3.377   9.834 -0.2015 -0.4640 -0.2711
 1116TIP3    H227544   6.359   3.401   9.884 -0.5082 -1.9584  1.3953
 1117TIP3   OH227545   3.491   6.744   0.770  0.0445  0.0640  0.1445
 1117TIP3    H127546   3.515   6.751   0.862  1.0527 -0.7281 -0.0374
 1117TIP3    H227547   3.398   6.767   0.767 -0.3851 -1.3478  1.5830
 1118TIP3   OH227548   0.524   1.482   2.962  0.0564 -0.6159 -0.0579
 1118TIP3    H127549   0.483   1.415   3.016 -0.4526 -1.3416 -1.2888
 1118TIP3    H227550   0.618   1.470   2.976 -0.0485 -1.2652  0.1194
 1119TIP3   OH227551   3.326   5.721   0.026  0.1814 -0.2264 -0.6600
 1119TIP3    H127552   3.407   5.681  -0.005  0.2749 -1.7733  1.3587
 1119TIP3    H227553   3.354   5.800   0.072  0.2949  0.4351 -1.8086
 1120TIP3   OH227554   5.867   7.531   2.137  0.1974  0.0314 -0.2729
 1120TIP3    H127555   5.873   7.452   2.084 -0.5492 -1.1340  1.2800
 1120TIP3    H227556   5.773   7.542   2.153  0.4437 -0.9245  2.4905
 1121TIP3   OH227557   2.015   6.995   9.842 -0.1078  0.3009  0.3020
 1121TIP3    H127558   1.962   6.922   9.810 -0.4473  0.3777  0.6881
 1121TIP3    H227559   2.026   7.052   9.766  1.0980 -0.6950 -0.3111
 1122TIP3   OH227560   4.475   3.815   9.492  0.0087 -0.4612  0.7257
 1122TIP3    H127561   4.562   3.803   9.530  0.0566  0.3706  0.8835
 1122TIP3    H227562   4.462   3.736   9.438  0.6871 -0.7836  1.0183
 1123TIP3   OH227563   6.912   1.804   7.705  0.5358  0.0692 -0.0339
 1123TIP3    H127564   6.937   1.775   7.617  1.7099  0.1791  0.2430
 1123TIP3    H227565   6.917   1.725   7.759  0.6547  0.1680  0.1005
 1124TIP3   OH227566   0.534   6.707   2.183  0.1239 -0.3714 -0.1661
 1124TIP3    H127567   0.611   6.715   2.126  0.2546 -0.9118 -0.0723
 1124TIP3    H227568   0.543   6.620   2.222 -1.5598 -1.2823 -1.6670
 1125TIP3   OH227569   4.368   7.579   7.334 -0.0721  0.2230  0.4104
 1125TIP3    H127570   4.298   7.570   7.398  0.5718 -3.5480  0.8231
 1125TIP3    H227571   4.325   7.560   7.250 -0.1333  1.1475  0.2242
 1126TIP3   OH227572   5.524   6.087   9.195 -0.0526  0.1878 -0.4395
 1126TIP3    H127573   5.605   6.081   9.143  0.2276  0.5099 -0.0415
 1126TIP3    H227574   5.507   5.997   9.223  1.4619  0.4304  1.4255
 1127TIP3   OH227575   0.573   3.666   8.515  0.7319 -0.1347  0.6444
 1127TIP3    H127576   0.653   3.656   8.463 -0.1030  0.9634 -0.9680
 1127TIP3    H227577   0.602   3.709   8.595  1.9242 -0.8382  0.6055
 1128TIP3   OH227578   3.437   4.106   9.887  0.1474 -0.5366  0.6734
 1128TIP3    H127579   3.490   4.064   9.955  0.9213 -1.1611 -0.2992
 1128TIP3    H227580   3.448   4.200   9.903  2.0313 -0.6385  0.1438
 1129TIP3   OH227581   6.421   1.702   0.540  0.0848 -0.1645  0.0221
 1129TIP3    H127582   6.365   1.779   0.536  0.7553  0.3806  0.7889
 1129TIP3    H227583   6.419   1.667   0.451 -0.4150  0.6067 -0.2854
 1130TIP3   OH227584   6.731   7.451   7.450 -0.1773 -0.0097 -0.5961
 1130TIP3    H127585   6.703   7.436   7.360 -0.3016 -1.3786 -0.3386
 1130TIP3    H227586   6.815   7.406   7.458 -0.7066 -0.8791  0.2799
 1131TIP3   OH227587   4.827   7.309   9.363 -0.4662 -0.5963  0.7180
 1131TIP3    H127588   4.847   7.255   9.287 -0.5968 -0.0591  0.2964
 1131TIP3    H227589   4.903   7.298   9.421 -0.2631 -0.8284  0.4090
 1132TIP3   OH227590   2.636   7.172   0.666 -0.1908 -0.3349  0.2096
 1132TIP3    H127591   2.612   7.263   0.650  0.8583  0.6409  3.3909
 1132TIP3    H227592   2.582   7.145   0.741  0.6150 -1.8122  0.3063
 1133TIP3   OH227593   5.512   6.420   7.218  0.2810 -0.3646 -0.4034
 1133TIP3    H127594   5.459   6.376   7.151 -0.1904 -1.1819  0.4899
 1133TIP3    H227595   5.579   6.467   7.168 -0.0951 -0.9062 -1.4490
 1134TIP3   OH227596   4.941   1.548   8.082 -0.0493  0.3393 -0.5940
 1134TIP3    H127597   5.026   1.559   8.038 -1.1836  0.0341 -3.0301
 1134TIP3    H227598   4.925   1.632   8.125  0.8662  0.8971 -1.3058
 1135TIP3   OH227599   1.980   1.024   8.106  0.0738  0.2462 -0.0255
 1135TIP3    H127600   1.956   1.096   8.164 -0.6837 -0.1396  0.1503
 1135TIP3    H227601   2.042   0.972   8.157 -0.1246  0.2399  0.2098
 1136TIP3   OH227602   3.263   0.417   8.953  0.0311  0.0472  0.1546
 1136TIP3    H127603   3.232   0.372   9.031 -0.3590  2.1262  1.2636
 1136TIP3    H227604   3.344   0.459   8.980  0.0346  0.5668 -0.6328
 1137TIP3   OH227605   4.901   0.116   8.938 -0.0693 -0.2034  0.3765
 1137TIP3    H127606   4.990   0.142   8.960  0.1491 -1.5455  1.2122
 1137TIP3    H227607   4.855   0.116   9.022 -0.9203  0.6506 -0.0723
 1138TIP3   OH227608   3.785   0.709   9.040 -0.2038  0.0795  0.3018
 1138TIP3    H127609   3.860   0.727   8.984  0.6317 -1.6628  0.7911
 1138TIP3    H227610   3.728   0.785   9.029 -1.2096 -1.0074 -4.6701
 1139TIP3   OH227611   5.872   7.239   9.015 -0.2489 -0.5858 -0.1685
 1139TIP3    H127612   5.783   7.264   9.041 -0.0380  1.6750 -1.3439
 1139TIP3    H227613   5.929   7.289   9.073  0.1909  1.6892 -2.3670
 1140TIP3   OH227614   3.153   2.548   0.656  0.3594 -0.4112  0.2068
 1140TIP3    H127615   3.240   2.569   0.692 -0.6900  0.3036  2.5162
 1140TIP3    H227616   3.155   2.452   0.647  0.9637 -0.5610  1.5438
 1141TIP3   OH227617   6.057   7.049   8.577  0.4141 -0.4885  0.1074
 1141TIP3    H127618   6.118   6.994   8.527  1.4881  0.2771  0.5257
 1141TIP3    H227619   5.988   6.988   8.605 -0.7109 -0.7839 -2.9539
 1142TIP3   OH227620   4.869   2.585   0.278 -0.2132  0.2394 -0.3381
 1142TIP3    H127621   4.839   2.633   0.355  0.6166  1.5428 -0.7870
 1142TIP3    H227622   4.882   2.496   0.308 -0.4153  0.6122  0.8927
 1143TIP3   OH227623   4.369   1.693   8.060 -0.3260 -0.4054  0.0843
 1143TIP3    H127624   4.331   1.679   8.147  0.0258 -0.6053  0.2103
 1143TIP3    H227625   4.440   1.756   8.074  0.7828 -1.6399  0.2363
 1144TIP3   OH227626   6.633   2.570   6.585 -0.7119  0.0647 -0.6683
 1144TIP3    H127627   6.719   2.609   6.573 -1.2836  1.1799 -1.2597
 1144TIP3    H227628   6.647   2.476   6.569  0.8430 -0.1644  1.6338
 1145TIP3   OH227629   6.040   7.610   1.331  0.2287 -0.2568  0.4678
 1145TIP3    H127630   6.092   7.646   1.260  1.6547 -0.0635  1.5744
 1145TIP3    H227631   6.031   7.517   1.310  0.0799 -0.0757 -0.2858
 1146TIP3   OH227632   2.611   5.078   9.303  0.0255  0.1064  0.2262
 1146TIP3    H127633   2.669   5.126   9.361  1.9032  0.5286 -1.8578
 1146TIP3    H227634   2.524   5.087   9.342  0.8451  2.2792  1.6952
 1147TIP3   OH227635   2.779   6.983   7.315 -0.4295  0.6747 -0.2284
 1147TIP3    H127636   2.757   7.044   7.245 -0.9475 -0.2538 -0.8880
 1147TIP3    H227637   2.818   6.908   7.270  1.5699  1.1050  0.6823
 1148TIP3   OH227638   0.416   7.107   2.144 -0.3019  0.1062  0.5556
 1148TIP3    H127639   0.454   7.045   2.207  2.1311  0.5175 -0.4121
 1148TIP3    H227640   0.325   7.116   2.172 -0.2642 -2.5102  1.7957
 1149TIP3   OH227641   3.990   4.528   8.970 -0.2484  0.0703 -0.2071
 1149TIP3    H127642   4.085   4.518   8.969 -0.0638  1.3612  0.7069
 1149TIP3    H227643   3.972   4.591   8.900 -0.1467  1.4876  0.9765
 1150TIP3   OH227644   2.013   1.408   3.037 -0.2389  0.3094  1.0621
 1150TIP3    H127645   2.004   1.328   3.089  1.8370 -0.7752 -0.1035
 1150TIP3    H227646   2.050   1.472   3.097  1.2947 -0.6620  1.1962
 1151TIP3   OH227647   7.599   4.370   1.385  0.3774 -0.4632  0.1576
 1151TIP3    H127648   7.679   4.378   1.333 -0.0248 -1.2530 -0.6119
 1151TIP3    H227649   7.534   4.422   1.337 -0.2146 -1.8730 -0.6280
 1152TIP3   OH227650   2.178   4.449   9.496 -0.5516  0.0135  0.5511
 1152TIP3    H127651   2.257   4.400   9.473 -2.2172 -3.1402  1.0280
 1152TIP3    H227652   2.140   4.475   9.412 -0.4044 -0.8807  0.1979
 1153TIP3   OH227653   0.882   6.411   9.599 -0.7342  0.0868 -0.1107
 1153TIP3    H127654   0.873   6.481   9.663  0.5188 -0.6368  0.9292
 1153TIP3    H227655   0.900   6.333   9.652  1.6062 -0.3120 -1.3319
 1154TIP3   OH227656   1.667   6.638   8.270 -0.3288  0.0350 -0.5180
 1154TIP3    H127657   1.661   6.620   8.364  0.1337  2.5541  0.0769
 1154TIP3    H227658   1.760   6.633   8.250 -0.2228  1.2039 -0.4081
 1155TIP3   OH227659   6.085   1.131   8.547 -0.1351  0.0378  0.6625
 1155TIP3    H127660   6.105   1.223   8.561  1.8238  0.3426 -2.9400
 1155TIP3    H227661   6.156   1.084   8.592  0.6562  0.4905 -0.0796
 1156TIP3   OH227662   4.031   3.172   9.706  0.0326  0.6096 -0.3019
 1156TIP3    H127663   4.004   3.089   9.666  0.5197  1.3339 -2.2291
 1156TIP3    H227664   4.026   3.236   9.635  0.4676  2.0812  0.9403
 1157TIP3   OH227665   4.206   2.730   6.938 -0.4119  0.0565 -0.8108
 1157TIP3    H127666   4.178   2.687   7.018 -2.6758 -0.9594 -2.0577
 1157TIP3    H227667   4.186   2.823   6.953 -0.0277  0.0017  0.0971
 1158TIP3   OH227668   2.983   6.046   8.767 -0.1418  0.3937  0.4419
 1158TIP3    H127669   3.068   6.042   8.723  0.0833  0.0660  0.9002
 1158TIP3    H227670   2.931   5.977   8.725  0.2502 -0.2855  1.0441
 1159TIP3   OH227671   2.850   1.659   0.836  0.1190 -0.1428 -0.1681
 1159TIP3    H127672   2.775   1.693   0.787  0.4807  0.5025 -0.2897
 1159TIP3    H227673   2.827   1.673   0.928 -0.0140 -0.1673 -0.1972
 1160TIP3   OH227674   3.822   5.787   9.534 -0.2466 -0.1549 -0.3348
 1160TIP3    H127675   3.805   5.723   9.465 -1.2338 -0.4123  0.1207
 1160TIP3    H227676   3.735   5.819   9.559 -0.0464 -0.9790  1.6315
 1161TIP3   OH227677   2.280   7.315   0.791 -0.3113  0.2309  0.4952
 1161TIP3    H127678   2.210   7.318   0.857  0.3865 -2.9197  1.5252
 1161TIP3    H227679   2.257   7.241   0.735  0.2104  1.5788 -1.6519
 1162TIP3   OH227680   2.283   1.835   8.984 -0.6105  0.5793 -0.2268
 1162TIP3    H127681   2.261   1.778   8.909 -1.1394  0.2870  0.1403
 1162TIP3    H227682   2.327   1.777   9.045  0.3795  0.9585 -0.5621
 1163TIP3   OH227683   2.468   7.523   9.710  0.0070  0.6659 -0.1775
 1163TIP3    H127684   2.429   7.572   9.638 -1.3233 -1.4567 -0.9694
 1163TIP3    H227685   2.393   7.493   9.762  0.8739  0.9006  1.2707
 1164TIP3   OH227686   3.002   6.295   6.787  0.5403  0.4614 -0.7446
 1164TIP3    H127687   3.068   6.232   6.757  0.8058 -0.5620  1.7204
 1164TIP3    H227688   2.918   6.253   6.767  0.6967 -1.3941  1.8880
 1165TIP3   OH227689   6.535   3.640   8.276 -0.1251 -0.4704 -0.2619
 1165TIP3    H127690   6.537   3.648   8.181 -0.5502  1.3377 -0.1574
 1165TIP3    H227691   6.621   3.673   8.304 -0.0623 -0.8492 -0.0068
 1166TIP3   OH227692   4.422   2.941   8.320 -0.1999 -0.0395  0.2883
 1166TIP3    H127693   4.381   2.933   8.406  0.4155 -0.2178  0.5711
 1166TIP3    H227694   4.353   2.976   8.264 -1.8305 -3.3227 -0.0260
 1167TIP3   OH227695   7.091   3.848   9.611 -0.2511  0.3484 -0.3910
 1167TIP3    H127696   7.014   3.790   9.607 -0.6102  0.7798  0.0765
 1167TIP3    H227697   7.062   3.930   9.571  0.0728  0.3957 -0.5281
 1168TIP3   OH227698   4.394   1.136   8.222 -0.1653  0.1419  0.0368
 1168TIP3    H127699   4.452   1.082   8.168  1.2285  0.1384  1.4402
 1168TIP3    H227700   4.414   1.110   8.312 -1.2755  1.2409  0.6384
 1169TIP3   OH227701   1.252   5.332   2.312  0.0293 -0.5808 -0.2251
 1169TIP3    H127702   1.326   5.317   2.370  0.0544 -1.0936 -0.3845
 1169TIP3    H227703   1.250   5.256   2.255  0.7424  0.4635 -1.7208
 1170TIP3   OH227704   3.240   5.688   8.445  0.1805  0.3003  0.1750
 1170TIP3    H127705   3.289   5.767   8.470  0.8282 -0.3847  1.1346
 1170TIP3    H227706   3.223   5.699   8.351 -0.4341  1.9379  0.4472
 1171TIP3   OH227707   1.315   5.702   8.451  0.8113 -0.1453  0.0982
 1171TIP3    H127708   1.341   5.795   8.449  0.5907 -0.0865 -0.0852
 1171TIP3    H227709   1.347   5.670   8.535  1.7073 -0.1379 -0.2197
 1172TIP3   OH227710   6.030   2.314   9.283  0.2319  0.5356 -0.3790
 1172TIP3    H127711   6.100   2.285   9.342 -0.7030 -1.9112 -0.3636
 1172TIP3    H227712   6.076   2.355   9.209  1.7675 -1.5305 -0.6519
 1173TIP3   OH227713   5.497   0.261   8.054 -0.3305  0.9300  0.1241
 1173TIP3    H127714   5.526   0.301   8.136 -0.7965 -0.7516  1.1450
 1173TIP3    H227715   5.422   0.314   8.027 -0.0126  1.6568  0.6256
 1174TIP3   OH227716   3.625   5.545   7.967 -0.2851 -0.3587  0.7145
 1174TIP3    H127717   3.598   5.606   8.035  1.3911  1.6124 -0.2913
 1174TIP3    H227718   3.552   5.546   7.904 -1.0433 -0.8052  1.5626
 1175TIP3   OH227719   0.275   0.004   8.700  0.5833 -0.2941 -0.3967
 1175TIP3    H127720   0.365  -0.023   8.680  0.7468  0.0986 -0.2062
 1175TIP3    H227721   0.239   0.034   8.616  1.0718  0.7941 -0.2400
 1176TIP3   OH227722   6.812   1.330   0.084 -0.5817 -0.4188  0.2060
 1176TIP3    H127723   6.721   1.300   0.076 -1.4012  1.9772 -0.1979
 1176TIP3    H227724   6.812   1.386   0.161  1.0126 -1.7308  1.2314
 1177TIP3   OH227725   4.822   3.306   8.930 -0.0874  0.1288  0.4882
 1177TIP3    H127726   4.856   3.382   8.976 -0.6229  0.9373 -0.4183
 1177TIP3    H227727   4.804   3.337   8.841  0.7400 -1.3359 -0.2363
 1178TIP3   OH227728   7.094   0.536   2.975 -0.5335  0.0118  0.1476
 1178TIP3    H127729   7.005   0.549   3.006 -0.4240  0.3760  0.3227
 1178TIP3    H227730   7.132   0.624   2.972  0.1024 -0.2140  0.9679
 1179TIP3   OH227731   2.278   6.716   2.461 -0.1339 -0.0261 -0.6550
 1179TIP3    H127732   2.251   6.802   2.492  0.5638  0.1874 -0.6267
 1179TIP3    H227733   2.235   6.706   2.376  0.7598  0.8785 -1.2317
 1180TIP3   OH227734   0.383   6.686   0.697 -0.2505 -0.1384 -0.4639
 1180TIP3    H127735   0.421   6.646   0.776 -0.5670  1.3002  0.4538
 1180TIP3    H227736   0.458   6.700   0.640 -0.2350 -2.8803 -1.2648
 1181TIP3   OH227737   1.642   5.397   1.462  0.0870 -0.0344 -0.1711
 1181TIP3    H127738   1.609   5.365   1.546 -2.0881  0.6487 -0.6863
 1181TIP3    H227739   1.564   5.428   1.416  1.1703 -0.6357 -2.5673
 1182TIP3   OH227740   4.042   6.734   7.996 -0.0220  0.3391  0.0604
 1182TIP3    H127741   4.086   6.819   7.991  0.2055  0.3329  1.6476
 1182TIP3    H227742   4.025   6.712   7.904  1.7307  1.1493 -0.5228
 1183TIP3   OH227743   4.413   4.506   9.161  0.1422 -0.0834  0.8911
 1183TIP3    H127744   4.498   4.471   9.135  0.2302  0.3719  0.5500
 1183TIP3    H227745   4.374   4.438   9.216 -1.6205 -2.7860 -3.2220
 1184TIP3   OH227746   2.666   7.417   7.399 -0.3095 -0.0622  0.4283
 1184TIP3    H127747   2.658   7.487   7.334 -0.1260 -0.3589  0.0827
 1184TIP3    H227748   2.631   7.339   7.354 -0.5594 -0.1835  0.8262
 1185TIP3   OH227749   0.429   5.062   0.874  0.1249 -0.1647  0.0048
 1185TIP3    H127750   0.405   4.997   0.940  0.7813 -0.2154  0.1988
 1185TIP3    H227751   0.475   5.130   0.923  1.9977 -0.9420 -0.5973
 1186TIP3   OH227752   0.196   3.986   1.163 -0.1731  0.4583 -0.0041
 1186TIP3    H127753   0.162   3.988   1.074  1.1056 -0.2027 -0.5182
 1186TIP3    H227754   0.223   4.077   1.180 -1.3673  0.8173  0.1224
 1187TIP3   OH227755   1.947   3.406   0.792 -0.3480 -0.6508  0.0717
 1187TIP3    H127756   1.857   3.398   0.760 -0.4239 -0.1162  0.1438
 1187TIP3    H227757   1.950   3.349   0.870 -0.1860 -1.8946 -0.8037
 1188TIP3   OH227758   1.971   1.247   1.581  0.2289 -0.3522 -0.1725
 1188TIP3    H127759   1.897   1.284   1.629 -1.0839 -0.0945 -2.2592
 1188TIP3    H227760   2.026   1.322   1.559 -1.8031  0.4399 -3.3329
 1189TIP3   OH227761   6.724   2.904   0.675  0.5559  0.4292 -0.6302
 1189TIP3    H127762   6.632   2.911   0.648  0.7503  2.0471 -0.9512
 1189TIP3    H227763   6.732   2.966   0.748  1.4793  0.5810 -0.8480
 1190TIP3   OH227764   2.931   3.778   9.666 -0.2304  0.9625  0.1554
 1190TIP3    H127765   2.969   3.826   9.739  0.1542  0.7446  0.1013
 1190TIP3    H227766   2.971   3.691   9.671 -0.8483  0.6753  0.1956
 1191TIP3   OH227767   6.120   0.567   7.013  0.1248  0.1819  0.0956
 1191TIP3    H127768   6.029   0.580   6.987 -0.0738 -0.7411  0.2890
 1191TIP3    H227769   6.169   0.630   6.961 -0.5658  0.3334 -0.3915
 1192TIP3   OH227770   1.679   7.647   2.423 -0.0560  0.1662 -0.1166
 1192TIP3    H127771   1.750   7.586   2.402 -0.1916  0.0211 -0.1539
 1192TIP3    H227772   1.697   7.675   2.513  0.9291  1.3411 -0.6438
 1193TIP3   OH227773   0.097   4.442   0.499  0.4363  0.3768 -0.5430
 1193TIP3    H127774   0.003   4.457   0.504  0.1917 -1.1063  0.3349
 1193TIP3    H227775   0.136   4.517   0.544 -0.5412 -0.4073  1.8188
 1194TIP3   OH227776   5.085   1.061   8.526  0.5043 -0.1783  0.0987
 1194TIP3    H127777   5.011   1.116   8.501 -0.6040 -1.1571  1.1058
 1194TIP3    H227778   5.111   1.018   8.445  0.5697  0.8541 -0.4410
 1195TIP3   OH227779   5.904   5.703   9.186  0.2373 -0.1248  0.1199
 1195TIP3    H127780   5.860   5.784   9.161  1.4348  0.6570  0.4601
 1195TIP3    H227781   5.886   5.643   9.114 -0.7472  0.4150 -0.0971
 1196TIP3   OH227782   0.125   3.532   1.367 -0.1928 -0.3170  0.1110
 1196TIP3    H127783   0.118   3.623   1.341 -0.0738  0.0254  1.2305
 1196TIP3    H227784   0.219   3.513   1.362 -0.0437  0.0686  1.3105
 1197TIP3   OH227785   4.522   1.877   2.269 -0.6872 -0.4726  0.0595
 1197TIP3    H127786   4.544   1.963   2.304  0.3907 -1.2404  1.3575
 1197TIP3    H227787   4.596   1.854   2.213  0.2906 -1.5763  1.6974
 1198TIP3   OH227788   6.968   6.083   9.180 -0.0015  0.4195  0.5981
 1198TIP3    H127789   6.935   6.071   9.269  0.4619  2.4160  1.0913
 1198TIP3    H227790   6.985   5.994   9.148  0.1071 -0.3257  2.6063
 1199TIP3   OH227791   2.585   4.029   1.988 -0.3643  0.6033 -0.1911
 1199TIP3    H127792   2.634   4.111   1.982 -0.7565  0.8403 -0.1894
 1199TIP3    H227793   2.497   4.052   1.959 -0.2943  0.0211 -0.8819
 1200TIP3   OH227794   7.280   3.032   0.511 -0.4574  0.2349 -0.0534
 1200TIP3    H127795   7.273   2.970   0.439  0.0565 -0.9479  0.8787
 1200TIP3    H227796   7.253   2.982   0.589 -0.7510  1.3947  0.6114
 1201TIP3   OH227797   6.053   5.071   9.746  0.5659  0.3071  0.1707
 1201TIP3    H127798   6.137   5.092   9.787  0.0946  2.4016  0.1803
 1201TIP3    H227799   6.042   4.977   9.761  2.6283  0.0935  0.6558
 1202TIP3   OH227800   2.752   3.104   0.454  0.2715  0.7045 -0.0572
 1202TIP3    H127801   2.839   3.082   0.487  0.7211  1.4457 -0.6974
 1202TIP3    H227802   2.727   3.028   0.401  0.2522  0.2218  0.6264
 1203TIP3   OH227803   4.193   7.100   0.879  0.3649 -0.7546  0.2560
 1203TIP3    H127804   4.242   7.049   0.815  1.0059 -1.0300  0.9483
 1203TIP3    H227805   4.240   7.086   0.961  0.6189  1.0408  0.4473
 1204TIP3   OH227806   4.308   3.871   8.243  0.2243 -0.0641  0.0373
 1204TIP3    H127807   4.382   3.880   8.303 -0.2263 -1.1861  0.7951
 1204TIP3    H227808   4.252   3.805   8.283 -1.9924  1.8269  0.2919
 1205TIP3   OH227809   1.488   4.598   2.399  0.3033  0.0214 -0.5558
 1205TIP3    H127810   1.491   4.519   2.345 -3.0036 -0.4865 -0.2315
 1205TIP3    H227811   1.487   4.670   2.335 -0.0786 -0.4045 -1.0445
 1206TIP3   OH227812   4.761   2.211   7.951 -0.3244  0.0839 -0.7007
 1206TIP3    H127813   4.679   2.176   7.985  0.3070  0.8379  1.7984
 1206TIP3    H227814   4.824   2.200   8.022  1.1528  1.6628 -1.6750
 1207TIP3   OH227815   2.534   5.070   0.722  0.4563  0.6277 -0.1442
 1207TIP3    H127816   2.469   5.033   0.661 -0.5023  2.0895 -0.0481
 1207TIP3    H227817   2.588   5.127   0.667  3.1020 -2.0873 -0.6755
 1208TIP3   OH227818   6.570   1.093   8.263  0.0390  0.2861 -0.2770
 1208TIP3    H127819   6.539   1.049   8.342 -0.8602 -0.0761 -0.8198
 1208TIP3    H227820   6.583   1.022   8.200 -1.3663  0.7505 -1.1430
 1209TIP3   OH227821   2.672   2.029   8.215 -0.3550 -0.7569  0.3569
 1209TIP3    H127822   2.678   1.933   8.211  0.6363 -0.8635  2.8892
 1209TIP3    H227823   2.586   2.047   8.252 -1.3413 -0.5239 -1.8733
 1210TIP3   OH227824   2.896   4.945   9.707 -0.4724  0.7158 -0.3164
 1210TIP3    H127825   2.851   4.907   9.632 -0.2348  1.8284 -1.0492
 1210TIP3    H227826   2.826   4.987   9.757 -0.5407  0.5436 -0.2671
 1211TIP3   OH227827   3.045   0.417   7.635  0.3582 -0.4692  0.1330
 1211TIP3    H127828   2.989   0.340   7.625 -0.1423 -0.4183  2.1702
 1211TIP3    H227829   2.985   0.487   7.663  0.9626  0.4301 -0.7405
 1212TIP3   OH227830   1.095   0.224   9.688 -0.2685 -0.0730  0.0873
 1212TIP3    H127831   1.113   0.190   9.776 -0.4147 -0.0021  0.1455
 1212TIP3    H227832   1.034   0.296   9.703 -1.0836 -0.6936 -0.1573
 1213TIP3   OH227833   0.579   7.003   8.399  0.6107  0.1613 -0.2545
 1213TIP3    H127834   0.534   7.015   8.483  0.7006  1.4001 -0.3661
 1213TIP3    H227835   0.618   6.916   8.405 -3.2585 -1.8093 -0.8262
 1214TIP3   OH227836   3.852   5.513   0.066 -0.2156  0.1115 -0.4030
 1214TIP3    H127837   3.794   5.522  -0.010 -0.0304  0.4733 -0.5061
 1214TIP3    H227838   3.909   5.439   0.044 -0.5354 -0.1490 -0.3666
 1215TIP3   OH227839   5.477   1.049   1.171  0.3520  0.2861  0.0152
 1215TIP3    H127840   5.520   1.023   1.089  0.6405  0.7893  0.0055
 1215TIP3    H227841   5.471   0.968   1.222  0.0449 -0.0601 -0.5556
 1216TIP3   OH227842   2.098   1.498   2.306  0.3024  0.1874 -0.0304
 1216TIP3    H127843   2.077   1.499   2.212 -2.2572 -0.1828  0.4551
 1216TIP3    H227844   2.055   1.419   2.339  1.2912  0.2345  1.4586
 1217TIP3   OH227845   0.387   1.488   2.119  0.3030  0.3139  0.1883
 1217TIP3    H127846   0.328   1.414   2.138 -0.0690 -0.1403 -2.3290
 1217TIP3    H227847   0.467   1.447   2.088 -0.1030  0.8943 -1.7783
 1218TIP3   OH227848   5.614   2.371   0.894 -0.7581 -0.0823 -0.0168
 1218TIP3    H127849   5.546   2.323   0.942 -0.0268 -0.9640  0.1713
 1218TIP3    H227850   5.645   2.437   0.956 -1.3867  0.2679 -0.0764
 1219TIP3   OH227851   1.008   1.161   7.633 -0.1705 -0.1653  0.3410
 1219TIP3    H127852   1.019   1.071   7.604  0.4751  0.3196 -0.9944
 1219TIP3    H227853   1.001   1.155   7.728 -0.7404 -1.6715  0.2307
 1220TIP3   OH227854   0.479   3.593   2.099  0.1151 -0.0111 -0.3686
 1220TIP3    H127855   0.512   3.508   2.069  1.3871 -0.2858  1.6456
 1220TIP3    H227856   0.470   3.583   2.193  0.8407  2.2590 -0.0118
 1221TIP3   OH227857   2.481   7.402   3.042 -0.6156 -0.6219  0.7721
 1221TIP3    H127858   2.488   7.310   3.069 -1.1286 -0.3159  2.0437
 1221TIP3    H227859   2.473   7.450   3.125  1.2660  0.7346  0.2278
 1222TIP3   OH227860   0.051   5.952   1.759 -0.3460  0.4136 -0.9132
 1222TIP3    H127861  -0.011   5.914   1.821 -0.9772 -0.1694 -1.8815
 1222TIP3    H227862   0.004   6.025   1.718 -0.1043  0.4943 -1.0525
 1223TIP3   OH227863   5.809   1.017   0.715 -0.0061 -0.1326  0.5081
 1223TIP3    H127864   5.897   1.013   0.677  0.2115  0.1890  0.9750
 1223TIP3    H227865   5.764   0.940   0.679  1.0232 -1.3150  1.6385
 1224TIP3   OH227866   3.962   3.041   0.864 -0.0202 -0.4732 -0.6554
 1224TIP3    H127867   3.894   2.979   0.892 -0.0242 -0.8142 -1.4081
 1224TIP3    H227868   4.034   3.026   0.926 -0.3119 -0.6935 -0.3639
 1225TIP3   OH227869   5.538   5.082   7.951 -0.0305  0.2988 -0.7372
 1225TIP3    H127870   5.580   5.099   8.036 -1.0306  0.1023 -0.1872
 1225TIP3    H227871   5.512   5.168   7.919 -2.0440  0.1856  0.4410
 1226TIP3   OH227872   4.494   6.498   7.765  0.2686 -0.3091 -0.3612
 1226TIP3    H127873   4.581   6.490   7.803 -0.0404 -1.3372  0.1656
 1226TIP3    H227874   4.508   6.541   7.681  1.0906  0.9852  0.4080
 1227TIP3   OH227875   2.789   6.647   0.449 -0.3112 -0.3605 -0.4944
 1227TIP3    H127876   2.869   6.695   0.430  0.7169 -1.6460  0.3944
 1227TIP3    H227877   2.819   6.562   0.481 -2.0141 -0.6412  0.4790
 1228TIP3   OH227878   1.515   0.121   0.345  0.1043 -0.2822  0.2066
 1228TIP3    H127879   1.609   0.129   0.332  0.3097  1.4569  2.3380
 1228TIP3    H227880   1.476   0.175   0.276  0.7708  0.8946  0.7319
 1229TIP3   OH227881   6.813   0.787   9.086  0.1566 -0.4599 -0.5585
 1229TIP3    H127882   6.882   0.827   9.033  1.2258 -1.9924 -0.4132
 1229TIP3    H227883   6.734   0.835   9.064  1.0967  0.7338 -1.4549
 1230TIP3   OH227884   6.860   6.954   8.023 -0.3185  0.7305  0.2993
 1230TIP3    H127885   6.907   6.934   7.942 -0.9575 -0.7091  0.2693
 1230TIP3    H227886   6.925   6.999   8.077 -0.4820  3.9166 -1.8233
 1231TIP3   OH227887   5.892   1.756   9.596  0.0610  0.3826 -0.1024
 1231TIP3    H127888   5.833   1.799   9.658 -0.9528  0.6228 -1.1865
 1231TIP3    H227889   5.928   1.828   9.544 -1.4189  0.0016 -1.7383
 1232TIP3   OH227890   7.249   6.428   8.901  0.3100 -0.5979  0.0857
 1232TIP3    H127891   7.289   6.420   8.987  1.0444 -2.0083 -0.3407
 1232TIP3    H227892   7.323   6.440   8.841 -0.2267  0.9534 -0.3055
 1233TIP3   OH227893   5.082   1.379   7.839  0.4089  0.1625 -0.2222
 1233TIP3    H127894   5.131   1.447   7.887 -0.0358 -0.5639  1.3142
 1233TIP3    H227895   5.140   1.303   7.839 -0.6545 -0.7228  1.6590
 1234TIP3   OH227896   0.479   3.579   7.701 -0.3294  0.0208  0.2118
 1234TIP3    H127897   0.554   3.624   7.660  0.1036  0.4146  1.3818
 1234TIP3    H227898   0.517   3.531   7.774 -1.2444  0.4850  1.0263
 1235TIP3   OH227899   0.213   2.399   7.939 -0.0863  0.3487  0.2124
 1235TIP3    H127900   0.290   2.427   7.889 -1.0353  2.2248 -0.3166
 1235TIP3    H227901   0.238   2.411   8.031  0.4900  0.2582  0.0705
 1236TIP3   OH227902   5.257   6.313   9.842  0.2127  0.4078 -0.2091
 1236TIP3    H127903   5.317   6.362   9.898  0.9035  1.6934 -1.9743
 1236TIP3    H227904   5.171   6.325   9.884  0.7885  0.6991  0.9469
 1237TIP3   OH227905   1.659   3.023   9.553 -0.3612  0.9315  0.0391
 1237TIP3    H127906   1.672   3.078   9.630  0.5714  1.5232 -0.5238
 1237TIP3    H227907   1.619   3.081   9.488 -3.3690 -0.1263  0.7688
 1238TIP3   OH227908   0.188   0.007   1.238  0.4181 -0.0833  0.2652
 1238TIP3    H127909   0.168   0.028   1.147  1.2912 -1.7177 -0.3588
 1238TIP3    H227910   0.103  -0.008   1.279  0.0590 -1.0039 -0.7548
 1239TIP3   OH227911   5.319   4.908   8.830 -0.1050 -0.3460  0.7926
 1239TIP3    H127912   5.405   4.930   8.867 -0.3661  0.5364  0.8872
 1239TIP3    H227913   5.319   4.949   8.743 -0.5336 -0.1071  0.9022
 1240TIP3   OH227914   1.986   0.481   0.437  0.0939 -0.2876 -0.4194
 1240TIP3    H127915   1.963   0.524   0.355 -1.2497 -0.0768  0.0588
 1240TIP3    H227916   2.038   0.405   0.410 -0.3669 -0.2426 -1.4712
 1241TIP3   OH227917   5.609   2.090   8.197  0.1363  0.4784 -0.4299
 1241TIP3    H127918   5.649   2.102   8.283  2.8345  0.0267 -1.5014
 1241TIP3    H227919   5.603   1.995   8.187 -1.0007  0.5431 -0.4019
 1242TIP3   OH227920   3.537   3.320   0.277  0.1222 -0.0052 -0.2141
 1242TIP3    H127921   3.555   3.414   0.285  0.0421  0.0892 -1.0493
 1242TIP3    H227922   3.619   3.284   0.242 -0.1265 -0.1138 -0.6894
 1243TIP3   OH227923   0.809   0.454   6.965 -0.4794 -0.0455 -0.2888
 1243TIP3    H127924   0.786   0.361   6.967 -1.2541  0.1352 -0.4808
 1243TIP3    H227925   0.904   0.455   6.970 -0.3922 -0.8962 -1.3943
 1244TIP3   OH227926   1.185   3.327   2.895  0.0469 -0.7607 -0.9439
 1244TIP3    H127927   1.090   3.331   2.908 -0.0286  1.5533 -1.7284
 1244TIP3    H227928   1.215   3.263   2.959 -1.8284 -0.1849  0.6337
 1245TIP3   OH227929   2.658   1.923   9.707 -0.7113  0.6877  0.7457
 1245TIP3    H127930   2.674   1.974   9.628  0.5088 -2.1339 -0.9868
 1245TIP3    H227931   2.563   1.928   9.720 -1.0128  0.8952 -1.1813
 1246TIP3   OH227932   2.801   5.581   2.637 -0.0176  0.6486  0.0093
 1246TIP3    H127933   2.776   5.586   2.729 -0.1258  2.2705 -0.0843
 1246TIP3    H227934   2.787   5.489   2.614  0.9245  0.0009  1.8430
 1247TIP3   OH227935   7.158   1.516   9.265  0.3640  0.3628 -0.0593
 1247TIP3    H127936   7.210   1.588   9.230 -0.5982  1.8093  1.3569
 1247TIP3    H227937   7.222   1.454   9.299  1.1900  1.7253  0.9186
 1248TIP3   OH227938   1.534   0.881   2.777  0.1582  0.1209 -0.8345
 1248TIP3    H127939   1.582   0.809   2.818  1.4057  1.1960 -0.3306
 1248TIP3    H227940   1.478   0.916   2.846 -0.3646 -0.2930 -1.0473
 1249TIP3   OH227941   7.087   1.684   7.192 -0.5121  0.4556 -0.0884
 1249TIP3    H127942   7.037   1.693   7.111 -0.2117 -0.0324 -0.3283
 1249TIP3    H227943   7.151   1.615   7.174  0.3538  1.1756  0.1623
 1250TIP3   OH227944   6.798   7.201   2.547 -0.0247  0.1279 -0.8129
 1250TIP3    H127945   6.854   7.235   2.477  1.2203 -0.6876 -0.2527
 1250TIP3    H227946   6.763   7.279   2.590  1.1372  0.6870 -0.8331
 1251TIP3   OH227947   2.258   2.063   2.995 -0.3013  0.0504  0.0282
 1251TIP3    H127948   2.218   2.024   3.073 -0.0398  0.3738  0.3262
 1251TIP3    H227949   2.227   2.153   2.995  1.6473  0.7824  1.1430
 1252TIP3   OH227950   0.218   6.092   9.445 -0.2980  0.2234  0.6410
 1252TIP3    H127951   0.240   6.158   9.379 -0.6649  2.5290  2.6980
 1252TIP3    H227952   0.284   6.104   9.513  0.1285 -2.1745  0.7431
 1253TIP3   OH227953   5.538   2.198   9.313 -0.0218 -0.5526  0.0514
 1253TIP3    H127954   5.613   2.256   9.302  0.1878 -0.9544 -0.7003
 1253TIP3    H227955   5.560   2.144   9.389  0.4855 -0.7206 -0.2128
 1254TIP3   OH227956   0.443   6.184   2.498  0.1792 -0.3571  0.4062
 1254TIP3    H127957   0.376   6.173   2.429  0.8162 -0.8404 -0.1481
 1254TIP3    H227958   0.407   6.253   2.554 -0.0934  0.4811 -0.7383
 1255TIP3   OH227959   3.522   6.149   9.539  0.0052 -0.3906  0.0582
 1255TIP3    H127960   3.470   6.229   9.549  0.9914  0.3946 -0.8376
 1255TIP3    H227961   3.604   6.168   9.585  1.1146 -0.0120 -1.9519
 1256TIP3   OH227962   0.675   1.845   8.063 -0.4504  0.6598 -0.5397
 1256TIP3    H127963   0.647   1.874   7.976  0.4165  2.8591 -0.1617
 1256TIP3    H227964   0.600   1.865   8.120 -0.3618  0.9102 -0.5074
 1257TIP3   OH227965   0.201   2.182   9.253  0.5428  0.3217  0.0850
 1257TIP3    H127966   0.262   2.215   9.319 -1.8972 -0.9905  3.2701
 1257TIP3    H227967   0.200   2.088   9.267 -2.7698  0.3639  0.8168
 1258TIP3   OH227968   1.373   3.801   0.482  0.6527  0.1157  0.6627
 1258TIP3    H127969   1.446   3.863   0.489 -0.8072  1.7186  3.2113
 1258TIP3    H227970   1.327   3.827   0.402  1.9635  0.0408 -0.1568
 1259TIP3   OH227971   4.224   0.059   9.043 -0.0204 -0.2619 -0.1260
 1259TIP3    H127972   4.166   0.003   8.992  0.1187  0.3690 -0.9897
 1259TIP3    H227973   4.292   0.087   8.981  0.5805 -0.0898  0.5945
 1260TIP3   OH227974   7.132   0.415   8.293 -0.4344  0.1920 -0.2131
 1260TIP3    H127975   7.151   0.325   8.320  1.3011  0.8578  0.9491
 1260TIP3    H227976   7.048   0.435   8.334  0.2527 -0.1681  1.4432
 1261TIP3   OH227977   2.202   3.582   2.103 -0.2018 -0.2139 -0.0717
 1261TIP3    H127978   2.189   3.559   2.011  0.6929 -0.9383 -0.0275
 1261TIP3    H227979   2.282   3.636   2.104 -0.5119  0.2559  0.2228
 1262TIP3   OH227980   6.602   2.661   7.478 -0.7294 -0.3936  0.2275
 1262TIP3    H127981   6.579   2.732   7.419  1.8998 -0.7980 -1.4371
 1262TIP3    H227982   6.636   2.592   7.421  0.5144 -1.3982  2.0668
 1263TIP3   OH227983   6.211   4.073   7.541 -0.5775 -0.0883 -0.3510
 1263TIP3    H127984   6.256   4.085   7.625 -1.1130 -3.0858  0.4595
 1263TIP3    H227985   6.147   4.144   7.538  0.8014  1.2651  0.7977
 1264TIP3   OH227986   6.940   6.337   9.460 -0.5589 -0.0550  0.4056
 1264TIP3    H127987   6.901   6.253   9.434  0.3656 -0.5086  0.4354
 1264TIP3    H227988   7.007   6.354   9.394  0.1166  0.0258  1.0977
 1265TIP3   OH227989   4.003   1.437   0.744  0.5501 -0.1940  0.1756
 1265TIP3    H127990   3.918   1.394   0.754  1.2313 -1.4052  0.9172
 1265TIP3    H227991   4.041   1.396   0.666  1.3275 -1.1932  1.0561
 1266TIP3   OH227992   7.112   1.344   7.978  0.3157 -0.5612 -0.2915
 1266TIP3    H127993   7.151   1.422   8.018  0.6308 -0.0402 -1.5439
 1266TIP3    H227994   7.187   1.291   7.951  0.2438  0.3855 -2.5987
 1267TIP3   OH227995   6.241   2.932   0.221  0.0565  0.0388 -0.1015
 1267TIP3    H127996   6.279   3.014   0.191 -0.5697  1.1410  1.9271
 1267TIP3    H227997   6.314   2.883   0.259  0.1338  0.4231  0.2438
 1268TIP3   OH227998   7.511   1.725   0.081 -0.0578 -0.0914 -0.3272
 1268TIP3    H127999   7.464   1.667   0.142  0.6983 -0.9216 -0.5075
 1268TIP3    H228000   7.519   1.674   0.001  0.6275  0.2580 -0.4907
 1269TIP3   OH228001   7.484   7.649   7.945  0.0566  0.0788 -0.1976
 1269TIP3    H128002   7.553   7.584   7.960  0.6040  1.0731  2.0479
 1269TIP3    H228003   7.410   7.617   7.995 -0.2759  0.2897 -0.5514
 1270TIP3   OH228004   5.038   0.689   1.337 -0.0578  0.4514 -0.2796
 1270TIP3    H128005   5.017   0.696   1.244  2.4347  0.9297 -0.8807
 1270TIP3    H228006   5.102   0.758   1.352  0.4888 -0.3888  1.4899
 1271TIP3   OH228007   2.232   4.619   0.375 -0.1389  0.7053  0.1773
 1271TIP3    H128008   2.258   4.636   0.284 -0.9907 -0.0068 -0.2127
 1271TIP3    H228009   2.189   4.699   0.403 -1.0328  0.4691 -0.4880
 1272TIP3   OH228010   0.110   2.774   7.992  0.3146 -0.1695 -0.1167
 1272TIP3    H128011   0.051   2.784   7.917  0.2760 -0.7148 -0.1603
 1272TIP3    H228012   0.061   2.719   8.053  0.5837 -0.2160  0.0588
 1273TIP3   OH228013   0.798   3.047   2.102  0.6662  1.1031 -0.1959
 1273TIP3    H128014   0.801   3.011   2.013 -0.4683 -0.5877  0.3972
 1273TIP3    H228015   0.877   3.101   2.108  0.6290  1.4804 -2.3023
 1274TIP3   OH228016   4.798   5.195   8.488 -0.2097  0.4389 -0.5434
 1274TIP3    H128017   4.753   5.133   8.430  0.0190  2.4431 -3.0036
 1274TIP3    H228018   4.762   5.175   8.575 -0.3062 -2.9239 -1.2037
 1275TIP3   OH228019   2.884   5.505   1.259  0.0818  0.5392 -0.0014
 1275TIP3    H128020   2.944   5.477   1.329 -2.0633 -0.2173  1.6245
 1275TIP3    H228021   2.836   5.579   1.297 -0.7641  0.4571 -0.8678
 1276TIP3   OH228022   6.098   1.516   1.394 -0.1961  0.1392  0.0987
 1276TIP3    H128023   6.102   1.583   1.325  0.8443  0.0382  0.0556
 1276TIP3    H228024   6.093   1.567   1.475  0.2631  0.2719  0.0461
 1277TIP3   OH228025   0.419   2.628   6.696  0.0440 -0.3759  0.5303
 1277TIP3    H128026   0.346   2.594   6.644  0.0349  0.2319  0.1323
 1277TIP3    H228027   0.388   2.625   6.786 -1.1114  1.3502  0.2446
 1278TIP3   OH228028   4.550   3.846   7.993  0.0778  0.0982  0.5222
 1278TIP3    H128029   4.551   3.760   8.034  2.8947  0.3549  1.1623
 1278TIP3    H228030   4.480   3.841   7.927  0.4205 -2.7903  0.2713
 1279TIP3   OH228031   0.774   3.041   1.547  0.4427 -0.5878 -0.5258
 1279TIP3    H128032   0.719   3.025   1.470  0.8371 -0.1201 -0.9014
 1279TIP3    H228033   0.751   3.129   1.576 -1.1324 -1.4497  1.0711
 1280TIP3   OH228034   0.552   5.476   0.738  0.1397  0.0473  0.5307
 1280TIP3    H128035   0.498   5.412   0.691 -1.9547  2.2730 -0.3323
 1280TIP3    H228036   0.632   5.483   0.687  0.1507 -1.4128  0.3194
 1281TIP3   OH228037   0.378   6.162   2.058 -0.1078  0.0922 -0.4056
 1281TIP3    H128038   0.299   6.210   2.035  0.2912  0.6198 -0.6950
 1281TIP3    H228039   0.373   6.082   2.007 -0.8117 -0.2235  0.1308
 1282TIP3   OH228040   7.156   5.066   7.213 -0.2714 -0.0475  0.5743
 1282TIP3    H128041   7.138   4.989   7.267 -0.6456  0.0876  0.6448
 1282TIP3    H228042   7.079   5.074   7.156 -0.6403  0.7862  1.1717
 1283TIP3   OH228043   1.254   6.779   7.595 -0.0709  0.5563 -0.4518
 1283TIP3    H128044   1.291   6.691   7.594 -0.9097  0.1726  0.4626
 1283TIP3    H228045   1.198   6.781   7.673  1.8651  2.7143  1.0168
 1284TIP3   OH228046   5.481   1.293   8.890  0.0700  0.2429  0.3259
 1284TIP3    H128047   5.465   1.337   8.806 -1.9009 -1.4655 -0.2726
 1284TIP3    H228048   5.503   1.203   8.866 -0.5746 -0.2891  1.6429
 1285TIP3   OH228049   6.284   1.389   2.219 -0.8230 -0.4042  0.4552
 1285TIP3    H128050   6.290   1.405   2.313  1.0214 -1.0243  0.4666
 1285TIP3    H228051   6.205   1.437   2.192 -1.5797 -0.4955  2.3545
 1286TIP3   OH228052   2.298   2.110   7.444 -0.6538 -0.2838 -0.2194
 1286TIP3    H128053   2.218   2.116   7.392 -1.5692 -1.5333  0.9507
 1286TIP3    H228054   2.286   2.031   7.498  1.4686 -0.6488 -0.1617
 1287TIP3   OH228055   3.271   7.488   6.785 -0.0972 -0.0504  0.1594
 1287TIP3    H128056   3.203   7.421   6.773 -0.6920  0.5675  0.0099
 1287TIP3    H228057   3.341   7.461   6.725 -0.0384 -0.9071  0.5974
 1288TIP3   OH228058   6.885   7.629   9.781 -0.7370  0.4360  0.3606
 1288TIP3    H128059   6.808   7.650   9.728  0.7966  2.3730 -1.2592
 1288TIP3    H228060   6.948   7.699   9.761  1.7431 -1.4632  1.0135
 1289TIP3   OH228061   6.817   6.361   1.763 -0.0732  0.0489  0.1542
 1289TIP3    H128062   6.824   6.281   1.815  0.1875  0.4368  0.7242
 1289TIP3    H228063   6.833   6.333   1.673 -1.3752 -0.7804  0.1594
 1290TIP3   OH228064   0.242   1.680   0.682 -0.6778  0.0520 -0.0224
 1290TIP3    H128065   0.281   1.603   0.725 -1.6309 -0.1765  0.4606
 1290TIP3    H228066   0.311   1.712   0.623 -0.0635 -0.8298  0.1936
 1291TIP3   OH228067   4.770   5.339   9.217 -0.5694 -0.4460  0.4098
 1291TIP3    H128068   4.841   5.296   9.264 -0.2117 -0.5809 -0.2471
 1291TIP3    H228069   4.781   5.432   9.238 -1.6998 -0.6893  2.3041
 1292TIP3   OH228070   6.170   5.950   8.568  0.4167 -0.0270  0.5658
 1292TIP3    H128071   6.229   5.980   8.638  0.2941 -0.3140  0.7975
 1292TIP3    H228072   6.218   5.879   8.526  0.2986 -0.1631  0.6603
 1293TIP3   OH228073   5.817   6.494   0.558  0.0876  0.4828 -0.3025
 1293TIP3    H128074   5.850   6.507   0.469  0.2325  0.3764 -0.2624
 1293TIP3    H228075   5.874   6.549   0.613  0.9888 -0.6578 -0.0699
 1294TIP3   OH228076   0.911   5.093   0.437 -0.0381  0.0564 -0.1100
 1294TIP3    H128077   0.879   5.098   0.347  2.3888 -0.1187 -1.0754
 1294TIP3    H228078   1.003   5.118   0.430  0.2259 -0.0354  2.3363
 1295TIP3   OH228079   6.288   6.062   7.371 -0.5365  0.3127  0.1113
 1295TIP3    H128080   6.360   6.095   7.317 -1.1858 -0.8872 -1.5468
 1295TIP3    H228081   6.290   5.967   7.359 -1.8053  0.1725  0.8171
 1296TIP3   OH228082   6.730   2.912   9.560  0.0918 -0.2343 -0.5014
 1296TIP3    H128083   6.690   2.997   9.579  0.5321 -0.0085 -0.5729
 1296TIP3    H228084   6.803   2.933   9.502  0.3454 -0.6383 -0.3256
 1297TIP3   OH228085   6.234   6.583   0.496 -0.0460  0.3602  0.1006
 1297TIP3    H128086   6.307   6.550   0.443 -0.3785 -1.6801  0.8129
 1297TIP3    H228087   6.156   6.562   0.445 -0.3081 -0.7677  0.9117
 1298TIP3   OH228088   6.557   2.951   7.336  0.0361 -0.1926  0.4988
 1298TIP3    H128089   6.500   2.935   7.261 -0.2058  1.1036  0.3690
 1298TIP3    H228090   6.644   2.965   7.298  0.1947 -0.8926  0.5888
 1299TIP3   OH228091   3.610   6.953   0.292 -0.0988 -0.1135 -0.4579
 1299TIP3    H128092   3.550   6.904   0.348  0.7995 -1.1187 -0.3462
 1299TIP3    H228093   3.554   7.016   0.246 -0.9353  0.4473  1.2274
 1300TIP3   OH228094   0.726   0.875   1.113  0.2358  0.0381 -0.5744
 1300TIP3    H128095   0.779   0.902   1.187  0.0479  1.3470 -0.8881
 1300TIP3    H228096   0.637   0.871   1.147  0.4040 -1.4257 -0.2342
 1301TIP3   OH228097   1.502   7.214   1.845 -0.4093 -0.1685  0.0008
 1301TIP3    H128098   1.563   7.286   1.832 -0.0627 -0.4537  0.0456
 1301TIP3    H228099   1.488   7.178   1.757 -1.3833  0.5909 -0.1804
 1302TIP3   OH228100   2.250   7.286   7.917 -0.3078  0.1515  0.5701
 1302TIP3    H128101   2.209   7.203   7.941 -1.1469  1.2887  3.6924
 1302TIP3    H228102   2.343   7.273   7.935 -0.4555 -0.1085  1.1910
 1303TIP3   OH228103   4.734   6.498   7.959  0.3114  0.1237 -0.5066
 1303TIP3    H128104   4.765   6.408   7.968  0.0487  0.1410  0.7442
 1303TIP3    H228105   4.687   6.516   8.041  0.3771  1.3985 -0.7224
 1304TIP3   OH228106   6.981   2.636   9.569  0.0489 -0.3997 -0.0398
 1304TIP3    H128107   7.011   2.675   9.487 -0.0331 -0.6885 -0.2070
 1304TIP3    H228108   7.010   2.698   9.637  0.5037 -0.3841 -0.2471
 1305TIP3   OH228109   6.640   7.227   6.824 -0.6517  0.2939 -0.2633
 1305TIP3    H128110   6.631   7.133   6.839  0.1279  0.4725  1.6456
 1305TIP3    H228111   6.732   7.246   6.843 -1.3860  1.8575  2.4448
 1306TIP3   OH228112   0.722   5.013   2.312  0.0593 -0.0839  0.0255
 1306TIP3    H128113   0.811   5.014   2.348  0.0356  0.0949  0.0781
 1306TIP3    H228114   0.699   5.105   2.302 -0.6650 -0.0994  1.3626
 1307TIP3   OH228115   2.440   4.690   8.672  0.0673 -0.1255 -0.3473
 1307TIP3    H128116   2.434   4.786   8.670 -3.3455 -0.2075 -0.3090
 1307TIP3    H228117   2.424   4.663   8.582  0.4221 -0.6924 -0.2445
 1308TIP3   OH228118   1.853   2.564   8.271  0.2763  0.1472 -0.3726
 1308TIP3    H128119   1.842   2.499   8.201  0.7095 -0.3227 -0.0145
 1308TIP3    H228120   1.848   2.513   8.352  3.2076  0.1163 -0.1100
 1309TIP3   OH228121   6.928   0.785   0.875  0.5292 -0.4985  0.1838
 1309TIP3    H128122   6.961   0.844   0.806  0.1467  0.4317  0.7798
 1309TIP3    H228123   6.973   0.702   0.858  1.4850  0.1049 -0.3664
 1310TIP3   OH228124   3.576   1.862   8.710  0.5123  1.0105  0.0024
 1310TIP3    H128125   3.507   1.881   8.775 -0.6541  0.2535 -0.9865
 1310TIP3    H228126   3.591   1.768   8.717  0.9777  1.0614 -0.2671
 1311TIP3   OH228127   4.306   7.622   9.267 -0.0161  0.3929  0.5904
 1311TIP3    H128128   4.288   7.675   9.190 -1.5644  1.1942  1.4335
 1311TIP3    H228129   4.300   7.684   9.340  1.3048 -0.3609  1.3712
 1312TIP3   OH228130   4.876   2.264   6.925  0.4192 -0.3153  0.4264
 1312TIP3    H128131   4.821   2.318   6.869  0.6080 -0.9007 -0.3494
 1312TIP3    H228132   4.823   2.246   7.002 -0.7893 -1.4681 -0.6202
 1313TIP3   OH228133   0.338   4.621   0.469  0.5774  0.8446  0.0766
 1313TIP3    H128134   0.362   4.531   0.492 -0.6797  0.6437  0.7164
 1313TIP3    H228135   0.412   4.654   0.419  1.2724 -0.3855  0.2567
 1314TIP3   OH228136   6.402   7.404   7.993 -0.1662  0.1276  0.0873
 1314TIP3    H128137   6.427   7.360   7.912  1.8128 -1.7536  1.5803
 1314TIP3    H228138   6.316   7.367   8.015  0.5171 -1.4980  0.2007
 1315TIP3   OH228139   1.007   6.867   0.658  0.3333  0.0334 -0.4371
 1315TIP3    H128140   1.047   6.922   0.591 -0.5123  0.6025 -0.4930
 1315TIP3    H228141   1.077   6.809   0.687  0.8685  0.2004 -1.3731
 1316TIP3   OH228142   2.403   5.229   1.646 -0.2504 -0.2941  0.0505
 1316TIP3    H128143   2.484   5.187   1.675 -0.5050 -1.1492 -0.4594
 1316TIP3    H228144   2.348   5.158   1.616 -1.6973  0.1522  1.5170
 1317TIP3   OH228145   5.434   0.708   7.231 -0.3603 -0.0188 -0.5566
 1317TIP3    H128146   5.471   0.717   7.143 -2.2245  1.1365 -1.2759
 1317TIP3    H228147   5.429   0.798   7.264 -0.2201 -0.3863  0.5172
 1318TIP3   OH228148   0.029   5.844   8.767 -0.2435 -0.2692  0.0722
 1318TIP3    H128149   0.118   5.824   8.738 -0.5853  0.5784 -1.6416
 1318TIP3    H228150   0.041   5.897   8.846  0.7619 -0.6158  0.1628
 1319TIP3   OH228151   1.912   2.537   0.079 -0.2667 -0.2445 -0.0560
 1319TIP3    H128152   1.910   2.597   0.153 -0.2595  0.8313 -0.8961
 1319TIP3    H228153   1.980   2.473   0.101 -0.7839 -0.3907  1.1791
 1320TIP3   OH228154   5.108   7.452   6.867 -0.2558  0.2817 -0.1568
 1320TIP3    H128155   5.203   7.459   6.859 -0.2506 -0.1862 -0.5562
 1320TIP3    H228156   5.094   7.366   6.906 -0.4750  0.7722  0.8632
 1321TIP3   OH228157   7.670   0.461   9.269  0.0611 -0.1561 -0.3137
 1321TIP3    H128158   7.624   0.480   9.350  0.0940  1.2063 -0.5818
 1321TIP3    H228159   7.759   0.437   9.296 -0.1719 -0.5637  0.0893
 1322TIP3   OH228160   3.908   2.604   1.558 -0.6437 -0.4638  0.3872
 1322TIP3    H128161   3.826   2.594   1.606 -1.9149  1.0493 -1.3101
 1322TIP3    H228162   3.885   2.583   1.467  0.9749 -0.5078 -0.0408
 1323TIP3   OH228163   7.512   5.090   8.919 -0.1152  0.7034 -0.0797
 1323TIP3    H128164   7.441   5.037   8.955 -0.8677  0.8268 -1.3157
 1323TIP3    H228165   7.587   5.071   8.975 -0.1501 -2.2407 -0.8637
 1324TIP3   OH228166   1.152   1.134   8.209 -0.0907 -0.5653 -0.5237
 1324TIP3    H128167   1.183   1.178   8.289  0.0258 -0.5125 -0.5969
 1324TIP3    H228168   1.128   1.046   8.239  0.8967 -0.8802 -0.5972
 1325TIP3   OH228169   4.498   3.104   8.733 -0.2592 -0.1903 -0.1755
 1325TIP3    H128170   4.584   3.061   8.738  0.1105  0.5007 -0.3394
 1325TIP3    H228171   4.513   3.189   8.775 -1.0827 -0.3921  0.5529
 1326TIP3   OH228172   2.091   7.679   2.567  0.3011  0.7200 -0.3213
 1326TIP3    H128173   2.022   7.745   2.572 -0.6538 -0.2325 -0.5893
 1326TIP3    H228174   2.093   7.640   2.654 -0.8715 -0.5631 -0.8167
 1327TIP3   OH228175   1.765   1.338   1.745  0.4659  0.4539 -0.4701
 1327TIP3    H128176   1.714   1.297   1.814 -0.8032 -0.2016 -1.7347
 1327TIP3    H228177   1.722   1.422   1.729 -0.2425 -0.0887 -1.5243
 1328TIP3   OH228178   2.641   3.346   0.447 -0.2062 -0.1079  0.0940
 1328TIP3    H128179   2.717   3.394   0.415 -0.6674 -0.1082 -1.0532
 1328TIP3    H228180   2.668   3.254   0.448  0.6792  0.1125  2.2961
 1329TIP3   OH228181   2.027   4.666   1.128 -0.5557  0.3671 -0.5087
 1329TIP3    H128182   1.999   4.607   1.058 -1.0007 -0.8212  0.6266
 1329TIP3    H228183   2.071   4.737   1.083  0.2657 -0.9734 -1.9154
 1330TIP3   OH228184   7.189   2.834   0.676  0.2296  0.4669  0.0506
 1330TIP3    H128185   7.136   2.882   0.739  0.9416  0.8874  0.3404
 1330TIP3    H228186   7.235   2.768   0.729 -1.4477 -1.2023 -0.4659
 1331TIP3   OH228187   2.966   7.113   0.102  0.4005  0.4013  0.2732
 1331TIP3    H128188   3.031   7.178   0.077  0.1466 -0.0124 -1.6039
 1331TIP3    H228189   3.009   7.028   0.087  0.0206  0.1239  0.7108
 1332TIP3   OH228190   1.082   0.315   0.245 -0.8459  0.0875  0.2500
 1332TIP3    H128191   1.130   0.311   0.328 -0.8993 -1.2998  0.2356
 1332TIP3    H228192   0.996   0.278   0.264 -0.7489 -0.5578 -0.4889
 1333TIP3   OH228193   7.324   5.559   1.704  0.4209 -0.3853 -0.4111
 1333TIP3    H128194   7.369   5.636   1.669 -0.4217  0.2952 -0.0393
 1333TIP3    H228195   7.280   5.591   1.783  1.8476 -1.7710  1.0124
 1334TIP3   OH228196   2.412   7.556   2.070 -0.5668  0.2263 -0.0380
 1334TIP3    H128197   2.426   7.581   1.979  1.2541 -2.5902 -0.6898
 1334TIP3    H228198   2.355   7.479   2.065 -1.1367  0.5386  1.2708
 1335TIP3   OH228199   5.864   1.625   2.453  0.0222  0.2866  0.2225
 1335TIP3    H128200   5.960   1.632   2.450  0.2518 -1.8724  0.7781
 1335TIP3    H228201   5.839   1.613   2.361  0.3695  0.0393  0.1553
 1336TIP3   OH228202   5.850   5.109   9.289  0.4344 -0.3690  0.3688
 1336TIP3    H128203   5.827   5.162   9.212  1.6636 -1.9330 -1.1455
 1336TIP3    H228204   5.931   5.148   9.321 -0.6157  0.9410  1.5978
 1337TIP3   OH228205   3.965   0.154   8.026  0.5352 -0.0319  0.0612
 1337TIP3    H128206   4.059   0.152   8.007  0.4275  0.1585 -0.4948
 1337TIP3    H228207   3.958   0.203   8.108  1.1046 -1.8086  1.2573
 1338TIP3   OH228208   2.637   1.935   1.517  0.0313  0.5563  1.0543
 1338TIP3    H128209   2.573   1.879   1.561  2.0259 -2.3018  0.5650
 1338TIP3    H228210   2.662   1.887   1.439  1.6475  2.2933  0.4245
 1339TIP3   OH228211   7.298   5.531   0.007  0.7171 -0.2327  0.8679
 1339TIP3    H128212   7.388   5.532  -0.025  0.6353  1.3673  0.6242
 1339TIP3    H228213   7.302   5.480   0.088  1.9059  0.1548  1.0696
 1340TIP3   OH228214   0.331   7.559   9.150 -0.5089 -0.0503  0.3606
 1340TIP3    H128215   0.344   7.634   9.092  0.3877  0.5469  1.3184
 1340TIP3    H228216   0.273   7.591   9.219 -0.4583 -0.3654  0.5520
 1341TIP3   OH228217   0.551   6.533   8.966  0.1611 -0.0973  0.5150
 1341TIP3    H128218   0.586   6.464   8.910  1.2284  0.4289  0.5196
 1341TIP3    H228219   0.585   6.514   9.053  3.0270  2.0626  0.0097
 1342TIP3   OH228220   4.192   0.519   0.472 -0.0829 -0.4513 -0.2329
 1342TIP3    H128221   4.282   0.552   0.469  0.5756 -2.1034  0.0783
 1342TIP3    H228222   4.160   0.527   0.382 -0.1823  1.4856 -0.0745
 1343TIP3   OH228223   5.218   0.049   8.575 -0.3640  0.5946 -0.5055
 1343TIP3    H128224   5.130   0.012   8.570 -0.0778  0.0459 -2.3406
 1343TIP3    H228225   5.262  -0.003   8.643 -1.4295  0.8926  0.4468
 1344TIP3   OH228226   4.738   1.717   0.723  0.0895 -0.0727 -0.0041
 1344TIP3    H128227   4.790   1.795   0.747 -0.7997  0.5552 -0.0738
 1344TIP3    H228228   4.803   1.648   0.711  0.9367  0.7568 -0.3332
 1345TIP3   OH228229   3.229   5.821   7.908  0.3995 -0.0302 -0.4620
 1345TIP3    H128230   3.240   5.863   7.823  1.7778 -0.0856 -0.3328
 1345TIP3    H228231   3.240   5.728   7.891 -0.9515 -0.2096 -0.4671
 1346TIP3   OH228232   3.402   6.119   9.913 -0.1328  0.0931  0.5218
 1346TIP3    H128233   3.476   6.153   9.962 -0.3748 -0.1359  1.0513
 1346TIP3    H228234   3.396   6.027   9.938 -0.9790  0.2600  0.9693
 1347TIP3   OH228235   4.707   0.307   2.468 -0.6296 -0.5104 -0.1083
 1347TIP3    H128236   4.700   0.330   2.560 -0.7692  0.8322 -0.4422
 1347TIP3    H228237   4.668   0.219   2.462 -2.7886  0.3397  0.7153
 1348TIP3   OH228238   1.409   1.246   9.385 -0.4340 -0.4293  0.1995
 1348TIP3    H128239   1.338   1.255   9.449 -0.7127  0.1957 -0.1965
 1348TIP3    H228240   1.409   1.152   9.363 -0.9217 -0.4923  0.4431
 1349TIP3   OH228241   0.910   3.800   0.708 -0.5012 -1.0015 -0.3278
 1349TIP3    H128242   1.004   3.809   0.724 -0.5256  0.9356 -1.0282
 1349TIP3    H228243   0.904   3.751   0.626 -0.0744 -0.8041 -0.4801
 1350TIP3   OH228244   3.690   5.921   7.952  0.1704  0.2510  0.2515
 1350TIP3    H128245   3.754   5.906   8.021 -0.6434  3.9684  2.0598
 1350TIP3    H228246   3.715   6.005   7.913 -1.2846 -0.1872 -1.8329
 1351TIP3   OH228247   1.368   0.188   1.628  0.1898 -0.1694 -0.5355
 1351TIP3    H128248   1.300   0.229   1.575 -0.0533 -1.4142 -1.2261
 1351TIP3    H228249   1.321   0.150   1.702  0.1235 -1.0087 -0.9998
 1352TIP3   OH228250   2.908   0.018   8.483 -0.1285  0.4376  0.0118
 1352TIP3    H128251   2.920   0.100   8.531 -0.9520 -0.1771  1.3082
 1352TIP3    H228252   2.815  -0.002   8.492  0.3138 -1.3674  0.9475
 1353TIP3   OH228253   0.131   5.861   0.774  0.4412  0.3722  0.4198
 1353TIP3    H128254   0.179   5.935   0.811  2.3369 -0.8678  0.6297
 1353TIP3    H228255   0.194   5.821   0.713 -0.8554 -0.5338 -0.3638
 1354TIP3   OH228256   6.103   1.328   0.389 -0.4244 -0.4079  0.1717
 1354TIP3    H128257   6.037   1.370   0.443  0.1025  0.5669  0.0753
 1354TIP3    H228258   6.102   1.236   0.417 -0.7341 -0.0866  1.2498
 1355TIP3   OH228259   3.317   3.472   7.603  0.1826 -0.2420 -0.5326
 1355TIP3    H128260   3.264   3.412   7.551 -0.2687  1.0015 -1.5655
 1355TIP3    H228261   3.339   3.543   7.542  1.9851 -0.1054  0.2123
 1356TIP3   OH228262   2.072   4.864   9.153 -0.2580 -0.0541  0.1406
 1356TIP3    H128263   2.090   4.925   9.081  0.9272  0.5130  0.8744
 1356TIP3    H228264   2.159   4.836   9.182 -0.7410 -3.2593 -1.0721
 1357TIP3   OH228265   1.254   2.447   8.948 -0.2818 -0.0272 -0.4585
 1357TIP3    H128266   1.163   2.473   8.934 -0.3512  0.5023  0.9184
 1357TIP3    H228267   1.300   2.529   8.967  0.1379 -0.5062  0.6201
 1358TIP3   OH228268   7.339   5.324   8.685  0.3907 -0.5036 -0.1973
 1358TIP3    H128269   7.320   5.232   8.664  0.2614 -1.5891  3.9049
 1358TIP3    H228270   7.253   5.363   8.701  0.4926  0.2619 -1.3436
 1359TIP3   OH228271   2.906   2.178   0.194 -0.0265 -0.4065 -0.2947
 1359TIP3    H128272   2.894   2.127   0.274 -1.3231 -0.5092 -0.5364
 1359TIP3    H228273   2.960   2.123   0.138  2.0026  0.1882  0.9562
 1360TIP3   OH228274   4.215   2.998   8.071 -0.1886  0.2373  0.3264
 1360TIP3    H128275   4.192   3.087   8.045 -0.0536  0.2572  0.2727
 1360TIP3    H228276   4.142   2.944   8.041 -1.1583  0.5673  1.9928
 1361TIP3   OH228277   2.595   6.423   1.831 -0.4102  0.0134 -0.1675
 1361TIP3    H128278   2.528   6.386   1.773 -0.3697 -1.8408  0.8740
 1361TIP3    H228279   2.673   6.369   1.816  0.2280  0.8336  0.1177
 1362TIP3   OH228280   2.176   0.946   9.703 -0.8847  0.1758 -0.1549
 1362TIP3    H128281   2.239   1.008   9.739 -0.1033 -0.8146  0.2224
 1362TIP3    H228282   2.092   0.992   9.709 -0.6423  0.4830  1.9628
 1363TIP3   OH228283   1.359   3.134   0.020 -0.5221 -0.3204 -0.0913
 1363TIP3    H128284   1.449   3.102   0.024 -0.2290  0.4719 -0.2983
 1363TIP3    H228285   1.307   3.056  -0.004 -0.1107 -1.1499  1.5830
 1364TIP3   OH228286   0.878   1.967   2.385 -0.1035 -0.4315  0.5375
 1364TIP3    H128287   0.962   1.965   2.430  0.4245  0.9870 -0.2924
 1364TIP3    H228288   0.901   1.961   2.292 -0.9345 -0.2691  0.3130
 1365TIP3   OH228289   4.690   1.572   0.122  0.3155 -0.2112 -0.3704
 1365TIP3    H128290   4.664   1.664   0.125  0.3441 -0.2132  0.0180
 1365TIP3    H228291   4.751   1.562   0.195 -0.9056 -0.9100  0.5841
 1366TIP3   OH228292   2.056   3.016   8.647  0.0413 -0.0789  0.1461
 1366TIP3    H128293   2.107   2.986   8.722 -0.4519  0.9738  0.9384
 1366TIP3    H228294   1.970   3.036   8.684 -0.6646 -0.9089 -0.9835
 1367TIP3   OH228295   2.319   2.068   1.637 -0.3815  0.3161 -0.5010
 1367TIP3    H128296   2.312   2.064   1.733  0.2387  1.0665 -0.4143
 1367TIP3    H228297   2.385   2.001   1.616 -0.9666 -0.2790 -0.4670
 1368TIP3   OH228298   2.913   0.020   7.890 -0.5333  0.0048  0.1892
 1368TIP3    H128299   2.974   0.068   7.946  0.8452 -1.4185 -0.0185
 1368TIP3    H228300   2.907   0.073   7.811 -0.6692  0.8636  0.7601
 1369TIP3   OH228301   0.668   6.819   0.888 -0.4443  0.5652  0.5189
 1369TIP3    H128302   0.647   6.829   0.795  1.3082  0.6672  0.1003
 1369TIP3    H228303   0.718   6.738   0.892  1.2766  1.5925  1.0096
 1370TIP3   OH228304   1.734   1.858   2.821  0.1776 -0.2936  0.9016
 1370TIP3    H128305   1.689   1.837   2.739  0.9613 -2.8360  1.0527
 1370TIP3    H228306   1.670   1.839   2.890  0.5421 -1.2133  0.9955
 1371TIP3   OH228307   2.548   6.695   1.707  0.5285  0.0769 -0.3266
 1371TIP3    H128308   2.557   6.665   1.797 -0.4721 -1.6203 -0.7393
 1371TIP3    H228309   2.620   6.653   1.660 -0.0068 -0.5098 -0.6364
 1372TIP3   OH228310   0.831   5.516   9.853 -0.3393  0.5551  0.0669
 1372TIP3    H128311   0.755   5.504   9.911 -0.7143  0.8147 -0.3632
 1372TIP3    H228312   0.906   5.492   9.907 -0.5489  2.1044  1.1163
 1373TIP3   OH228313   6.043   5.980   0.200  0.2827 -0.1015 -0.4966
 1373TIP3    H128314   6.075   5.891   0.188 -0.5731 -0.3544 -0.9928
 1373TIP3    H228315   5.981   5.973   0.273 -0.7659 -0.1868 -1.3640
 1374TIP3   OH228316   6.959   5.833   6.770 -0.3473  0.0372 -0.3718
 1374TIP3    H128317   7.021   5.784   6.823 -0.2048  0.0048 -0.5674
 1374TIP3    H228318   7.014   5.883   6.710 -0.5122 -0.0037 -0.5561
 1375TIP3   OH228319   7.678   2.987   0.526  0.6121  0.2261 -0.3644
 1375TIP3    H128320   7.622   2.948   0.458  0.5256 -0.9351  0.3330
 1375TIP3    H228321   7.624   3.057   0.563 -0.0259 -0.2612 -0.3362
 1376TIP3   OH228322   6.916   2.571   8.431 -0.1815 -0.1900  0.9050
 1376TIP3    H128323   6.855   2.521   8.485 -1.0140 -0.4378 -0.2378
 1376TIP3    H228324   6.968   2.622   8.494 -0.0195 -1.6897  2.0349
 1377TIP3   OH228325   2.818   3.042   7.228  0.5431  0.1084 -0.1704
 1377TIP3    H128326   2.860   3.021   7.144  1.8219 -1.4447  0.7892
 1377TIP3    H228327   2.732   3.001   7.222  0.9777 -0.8036 -0.4065
 1378TIP3   OH228328   3.111   6.860   0.017 -0.5040 -0.0514  0.5148
 1378TIP3    H128329   3.167   6.918  -0.034  1.2764 -1.0170  1.3026
 1378TIP3    H228330   3.109   6.778  -0.032 -1.3782  0.0082  0.4220
 1379TIP3   OH228331   5.180   1.273   1.673  0.5267 -0.0907 -0.1016
 1379TIP3    H128332   5.230   1.250   1.751  0.5124  0.2508  0.0087
 1379TIP3    H228333   5.205   1.206   1.608 -1.7457 -2.2605  1.0814
 1380TIP3   OH228334   1.503   1.428   7.222  1.4081  0.2067 -0.1687
 1380TIP3    H128335   1.570   1.393   7.164  0.6017  0.6868 -1.4195
 1380TIP3    H228336   1.546   1.499   7.269  2.5712 -1.2953  1.1693
 1381TIP3   OH228337   1.267   7.026   0.700 -0.6204  0.1507 -0.3145
 1381TIP3    H128338   1.270   7.120   0.718 -1.1634  0.0444  0.3880
 1381TIP3    H228339   1.274   7.019   0.605 -0.9363  0.9205 -0.4028
 1382TIP3   OH228340   6.347   2.466   9.220 -0.3140 -0.5622 -0.8196
 1382TIP3    H128341   6.325   2.471   9.312 -0.1400 -0.8318 -0.7622
 1382TIP3    H228342   6.356   2.372   9.202 -1.7565 -0.6061 -1.4473
 1383TIP3   OH228343   4.587   0.087   2.396  0.0943 -0.0441 -0.4476
 1383TIP3    H128344   4.568   0.011   2.340 -0.4372  0.7154 -1.3135
 1383TIP3    H228345   4.514   0.089   2.458  0.6187 -0.8109  0.2236
 1384TIP3   OH228346   7.108   0.371   2.760 -0.0112  0.5297  0.5918
 1384TIP3    H128347   7.204   0.371   2.765 -0.0688  0.0967  2.6247
 1384TIP3    H228348   7.081   0.433   2.828 -1.1814 -0.0003  0.6294
 1385TIP3   OH228349   2.885   1.145   1.835 -0.1828  0.3905  0.1753
 1385TIP3    H128350   2.853   1.235   1.845  0.9849  0.8825 -0.4133
 1385TIP3    H228351   2.947   1.149   1.762  0.9423 -0.6181  1.0447
 1386TIP3   OH228352   2.518   5.144   2.384  0.1188  0.9903  0.2635
 1386TIP3    H128353   2.546   5.129   2.294  2.0141  0.2312  0.9297
 1386TIP3    H228354   2.494   5.058   2.417 -0.7561  1.2925  0.4535
 1387TIP3   OH228355   0.492   2.945   9.692  0.3865  0.0847 -0.0062
 1387TIP3    H128356   0.446   3.028   9.699  1.4619  0.6937  0.1668
 1387TIP3    H228357   0.530   2.946   9.604  1.9809  0.6622  0.6492
 1388TIP3   OH228358   7.470   0.661   2.239  0.1960 -0.0166 -0.2297
 1388TIP3    H128359   7.419   0.742   2.232  2.0084  1.4524  1.9389
 1388TIP3    H228360   7.405   0.594   2.259 -1.2730  1.0341 -1.2229
 1389TIP3   OH228361   3.089   1.375   0.406 -0.5524  0.0357  0.4336
 1389TIP3    H128362   3.041   1.340   0.481 -1.4638  0.9670  0.3062
 1389TIP3    H228363   3.034   1.355   0.331  0.1217 -0.4507  0.0619
 1390TIP3   OH228364   7.309   3.162   1.005  0.1341 -0.2142  0.4326
 1390TIP3    H128365   7.388   3.215   0.999  0.2054 -0.2647  0.8471
 1390TIP3    H228366   7.254   3.192   0.933  1.3325 -1.5759 -1.1261
 1391TIP3   OH228367   5.958   6.996   9.135 -0.2557 -0.0994 -0.3491
 1391TIP3    H128368   5.979   7.030   9.222  1.4875  0.5085 -0.9661
 1391TIP3    H228369   5.925   7.071   9.086 -0.2814 -0.2203 -0.5201
 1392TIP3   OH228370   1.873   0.237   0.618 -0.3673 -0.1348  0.2195
 1392TIP3    H128371   1.918   0.318   0.593 -0.1755 -0.3855 -0.2617
 1392TIP3    H228372   1.913   0.169   0.563 -0.7288 -0.5094  0.4093
 1393TIP3   OH228373   5.181   7.154   9.340 -0.1612 -0.4929  0.1319
 1393TIP3    H128374   5.129   7.201   9.275  0.9473 -0.1634 -0.5385
 1393TIP3    H228375   5.186   7.064   9.307  0.1160 -0.4067 -0.0585
 1394TIP3   OH228376   4.757   6.941   9.335  0.6073  0.0811  0.1492
 1394TIP3    H128377   4.832   6.885   9.351  0.3528 -0.7102 -1.2744
 1394TIP3    H228378   4.682   6.881   9.329 -0.0554  0.7980  0.9549
 1395TIP3   OH228379   1.930   6.942   7.805 -0.1719  0.2316  0.2582
 1395TIP3    H128380   1.870   6.945   7.879  0.2804 -1.5926  0.7508
 1395TIP3    H228381   1.874   6.954   7.728 -0.8788  0.5079  0.8106
 1396TIP3   OH228382   1.425   7.268   7.315  0.2558  0.0924 -0.2691
 1396TIP3    H128383   1.433   7.176   7.339  0.9498  0.3900  0.7193
 1396TIP3    H228384   1.477   7.277   7.235 -0.2097 -0.4568 -0.6410
 1397TIP3   OH228385   7.531   7.340   8.169  0.2464 -0.5979  0.1947
 1397TIP3    H128386   7.602   7.383   8.123  0.9796  0.2023  1.9928
 1397TIP3    H228387   7.518   7.258   8.122 -0.7693  1.1947 -2.9455
 1398TIP3   OH228388   2.055   6.045   0.022  0.5360 -0.4574  0.2929
 1398TIP3    H128389   2.138   6.014   0.060  0.5525 -1.0875 -0.2440
 1398TIP3    H228390   2.065   6.030  -0.072  0.5220  1.1501  0.0183
 1399TIP3   OH228391   4.367   1.925   3.184  0.1344  0.2927 -0.4423
 1399TIP3    H128392   4.379   2.010   3.141  2.3097  0.0261 -0.4571
 1399TIP3    H228393   4.440   1.872   3.153  0.8345 -0.4672  2.2299
 1400TIP3   OH228394   3.107   7.027   6.943 -0.2317 -0.3473 -0.1918
 1400TIP3    H128395   3.113   6.997   6.852 -1.1904 -2.0714  0.2905
 1400TIP3    H228396   3.040   7.096   6.940  1.4125  1.3148 -1.1579
 1401TIP3   OH228397   1.410   0.989   1.627 -0.0100  0.7659  0.2407
 1401TIP3    H128398   1.323   0.974   1.590  0.6502  0.2935 -1.1770
 1401TIP3    H228399   1.453   1.047   1.564  1.6428 -1.2176 -0.5541
 1402TIP3   OH228400   4.394   0.695   2.974  0.3432  0.1509 -0.6568
 1402TIP3    H128401   4.469   0.722   3.025 -0.3206 -1.2136  1.1348
 1402TIP3    H228402   4.358   0.777   2.939  1.9383  0.9208 -0.5929
 1403TIP3   OH228403   3.193   4.797   8.450 -0.0283  0.0009  0.1828
 1403TIP3    H128404   3.200   4.793   8.546 -1.2679 -0.8479  0.2666
 1403TIP3    H228405   3.130   4.728   8.428  0.0197  0.3797 -1.2231
 1404TIP3   OH228406   4.665   6.113   3.083  0.1870  0.1994  0.1782
 1404TIP3    H128407   4.579   6.147   3.106  0.6302  2.0537 -0.7013
 1404TIP3    H228408   4.712   6.108   3.167 -0.2220  0.8389  0.4477
 1405TIP3   OH228409   3.995   6.778   1.724 -0.0208  0.4804 -0.4337
 1405TIP3    H128410   4.010   6.856   1.670 -0.2368  0.1745 -0.9297
 1405TIP3    H228411   4.047   6.795   1.803 -0.9782  1.6644 -0.0196
 1406TIP3   OH228412   6.257   0.661   8.891 -0.3765 -0.1143  0.1583
 1406TIP3    H128413   6.321   0.593   8.873 -1.1149 -1.1834  1.4095
 1406TIP3    H228414   6.175   0.615   8.909 -0.8698  1.0766  1.1662
 1407TIP3   OH228415   6.426   4.245   8.940 -0.1086 -0.1732 -0.7361
 1407TIP3    H128416   6.353   4.190   8.968 -0.0359  0.1058  0.0192
 1407TIP3    H228417   6.491   4.236   9.010 -0.4518  1.5461 -0.1587
 1408TIP3   OH228418   1.054   3.408   8.531  0.8417 -0.4580 -0.1758
 1408TIP3    H128419   1.091   3.467   8.597  0.5811 -1.5430  0.9634
 1408TIP3    H228420   0.974   3.452   8.502  0.2112 -0.6287  1.2629
 1409TIP3   OH228421   7.663   5.556   0.052  0.1703 -0.0427  0.6347
 1409TIP3    H128422   7.658   5.538   0.146 -1.5699 -1.0723  0.3916
 1409TIP3    H228423   7.613   5.485   0.012  2.2060 -0.5112 -1.2082
 1410TIP3   OH228424   1.289   7.441   0.002 -0.3876 -0.0058 -0.7440
 1410TIP3    H128425   1.351   7.390  -0.050  1.5227  0.4957  0.9452
 1410TIP3    H228426   1.310   7.532  -0.018 -0.0895  0.1798  0.3862
 1411TIP3   OH228427   4.264   6.364   2.666 -0.7948  0.3781  0.2676
 1411TIP3    H128428   4.190   6.311   2.694 -0.5078 -0.3500 -0.3192
 1411TIP3    H228429   4.321   6.369   2.742 -1.4314  0.9471  0.7258
 1412TIP3   OH228430   3.267   4.561   1.436 -0.6308  0.0509  0.4768
 1412TIP3    H128431   3.316   4.548   1.354 -0.8300  1.4257  0.1168
 1412TIP3    H228432   3.175   4.558   1.410 -0.6896  1.2360  0.5081
 1413TIP3   OH228433   7.150   2.475   9.027 -0.2703  0.2559  0.1461
 1413TIP3    H128434   7.079   2.538   9.035 -0.3562  0.2909 -0.7737
 1413TIP3    H228435   7.209   2.513   8.962 -0.7007 -0.9356 -1.0010
 1414TIP3   OH228436   4.835   0.637   9.674  0.3451  0.2962  0.3653
 1414TIP3    H128437   4.878   0.621   9.590 -2.1636 -0.9950 -0.7766
 1414TIP3    H228438   4.856   0.561   9.728 -0.0275 -0.0571  0.0142
 1415TIP3   OH228439   7.252   5.726   1.937 -0.1847  0.1739  0.1595
 1415TIP3    H128440   7.188   5.771   1.993 -0.6883 -0.9656  0.5304
 1415TIP3    H228441   7.319   5.694   1.998 -0.2681 -0.2954  0.0050
 1416TIP3   OH228442   5.159   0.838   8.675  0.2920  0.4170 -0.2108
 1416TIP3    H128443   5.114   0.922   8.663  0.9406  1.0480  1.5172
 1416TIP3    H228444   5.190   0.815   8.587  0.1766  2.0259 -0.7093
 1417TIP3   OH228445   5.273   1.317   0.583  0.4982 -1.0431  0.1137
 1417TIP3    H128446   5.278   1.349   0.493 -2.9167 -0.3488  0.0311
 1417TIP3    H228447   5.336   1.371   0.631 -0.5904  1.5936 -1.1797
 1418TIP3   OH228448   1.099   0.281   1.541  0.4393 -0.0610 -0.7448
 1418TIP3    H128449   1.146   0.342   1.484 -1.3947  0.5669 -1.6561
 1418TIP3    H228450   1.019   0.328   1.565  0.7838 -0.6236  1.7572
 1419TIP3   OH228451   0.914   7.574   1.597 -0.5861 -0.1482  0.0638
 1419TIP3    H128452   0.822   7.547   1.598 -0.3805 -0.9894 -1.0330
 1419TIP3    H228453   0.926   7.623   1.678 -2.1939  0.6255 -0.1325
 1420TIP3   OH228454   4.967   5.727   6.728  0.0720  0.1483  0.0677
 1420TIP3    H128455   5.040   5.693   6.676 -0.1336  1.5780 -1.2099
 1420TIP3    H228456   4.904   5.760   6.664 -1.5645 -0.7109  1.1484
 1421TIP3   OH228457   2.790   6.235   0.175  0.4179  0.4128 -0.6118
 1421TIP3    H128458   2.836   6.195   0.249 -1.1112  0.6195  0.4962
 1421TIP3    H228459   2.848   6.220   0.100  3.0036  1.9645  0.9432
 1422TIP3   OH228460   5.498   2.570   8.663 -0.2142 -0.0946 -0.2167
 1422TIP3    H128461   5.483   2.484   8.626 -0.2295 -0.8595  1.4785
 1422TIP3    H228462   5.412   2.597   8.696  0.3715 -0.9079  2.1756
 1423TIP3   OH228463   6.766   6.605   2.248  0.1749  0.2820  0.0669
 1423TIP3    H128464   6.750   6.577   2.158  1.0242  0.4076 -0.1277
 1423TIP3    H228465   6.681   6.639   2.278 -0.5320 -1.1957 -0.1503
 1424TIP3   OH228466   6.401   0.815   2.513 -0.4116  0.0490 -0.0508
 1424TIP3    H128467   6.471   0.752   2.499 -0.4624 -0.2887  1.0945
 1424TIP3    H228468   6.320   0.765   2.503 -0.4949  0.3100 -0.7825
 1425TIP3   OH228469   6.789   5.212   7.320 -0.1238  0.0512 -0.0180
 1425TIP3    H128470   6.798   5.118   7.308 -0.1692 -0.1571  1.3507
 1425TIP3    H228471   6.867   5.250   7.280  0.3706 -0.6568  0.2612
 1426TIP3   OH228472   4.938   1.910   9.291  0.6300  0.6878 -0.2567
 1426TIP3    H128473   4.905   1.971   9.357  1.6536  0.6105  0.3609
 1426TIP3    H228474   4.867   1.901   9.228 -0.8160 -0.0833  1.4114
 1427TIP3   OH228475   2.225   0.875   8.231 -0.0638  0.5790  0.0357
 1427TIP3    H128476   2.242   0.782   8.219  1.8131  1.1003 -2.2927
 1427TIP3    H228477   2.311   0.917   8.219 -0.5709  2.5419  2.4615
 1428TIP3   OH228478   0.000   5.809   7.359 -0.2553 -0.2023 -0.0798
 1428TIP3    H128479  -0.008   5.718   7.387 -1.1328  0.5639  2.3448
 1428TIP3    H228480   0.072   5.807   7.295 -0.0046 -2.5138  0.1590
 1429TIP3   OH228481   0.356   6.840   1.256 -0.6730 -0.1860 -0.3806
 1429TIP3    H128482   0.369   6.921   1.306  0.6485  0.4120 -1.6002
 1429TIP3    H228483   0.428   6.784   1.284  0.0981  0.1660 -1.5730
 1430TIP3   OH228484   0.612   4.171   0.406 -0.3730  0.2729 -0.1406
 1430TIP3    H128485   0.634   4.207   0.320  2.2539  0.7901  0.6491
 1430TIP3    H228486   0.694   4.131   0.436 -0.5684  1.9468  2.9772
 1431TIP3   OH228487   1.430   3.151   1.057  0.4408 -0.3922 -0.3275
 1431TIP3    H128488   1.365   3.220   1.070  0.9561 -0.4400  3.6795
 1431TIP3    H228489   1.387   3.072   1.088  0.7725 -1.4448 -2.4151
 1432TIP3   OH228490   1.875   1.613   1.578  0.5896 -0.1154  0.5752
 1432TIP3    H128491   1.904   1.553   1.508 -2.9266  0.5209 -1.7339
 1432TIP3    H228492   1.887   1.700   1.541 -0.3479  0.2850  1.1812
 1433TIP3   OH228493   1.832   6.635   2.190  0.4898 -0.1519  0.2414
 1433TIP3    H128494   1.775   6.712   2.191  1.0389  0.2704  1.5756
 1433TIP3    H228495   1.817   6.595   2.104  1.0160  2.0586 -0.9633
 1434TIP3   OH228496   5.189   1.420   2.474  0.5237  0.1158  0.0672
 1434TIP3    H128497   5.218   1.465   2.553  0.4439  1.8394 -0.8313
 1434TIP3    H228498   5.103   1.459   2.455  1.2330  0.9358 -1.7148
 1435TIP3   OH228499   0.851   2.470   9.789  0.1563  0.2199  0.0550
 1435TIP3    H128500   0.885   2.558   9.808 -0.3832  0.4277  0.0824
 1435TIP3    H228501   0.866   2.458   9.696  0.7712  0.1012  0.1666
 1436TIP3   OH228502   2.578   5.114   7.890  0.2456  0.4331  0.1291
 1436TIP3    H128503   2.509   5.081   7.949 -1.0559 -0.5846 -1.8307
 1436TIP3    H228504   2.536   5.185   7.841 -0.1610 -1.4128 -2.4226
 1437TIP3   OH228505   1.435   2.022   8.885  0.1602 -0.4808  0.0040
 1437TIP3    H128506   1.393   1.939   8.865 -3.3523  1.5063 -1.7957
 1437TIP3    H228507   1.363   2.081   8.906  2.3542  2.5280 -0.3210
 1438TIP3   OH228508   2.995   3.366   7.937  0.2969  0.1512 -0.2756
 1438TIP3    H128509   2.997   3.455   7.901 -0.5436 -0.3638 -1.6272
 1438TIP3    H228510   3.046   3.314   7.876 -1.2015 -0.7409 -0.8224
 1439TIP3   OH228511   0.336   6.816   9.784  0.3229 -0.0744  0.5907
 1439TIP3    H128512   0.357   6.750   9.850  0.1581 -0.5968  0.1358
 1439TIP3    H228513   0.310   6.764   9.707  1.1499  0.5003 -0.0955
 1440TIP3   OH228514   4.463   0.690   9.142 -0.1892 -0.0898  0.0932
 1440TIP3    H128515   4.390   0.710   9.201  0.4548  0.2973  0.7767
 1440TIP3    H228516   4.422   0.643   9.069 -0.8144 -1.8372  1.4930
 1441TIP3   OH228517   0.538   4.787   0.394 -0.2689  0.1962 -0.4503
 1441TIP3    H128518   0.597   4.850   0.353  0.5584 -0.2592  0.0294
 1441TIP3    H228519   0.573   4.774   0.482  0.0182 -1.4987 -0.7847
 1442TIP3   OH228520   3.239   4.358   9.724 -0.4210  0.0493 -0.1644
 1442TIP3    H128521   3.210   4.393   9.807 -0.2869 -0.2358  0.0037
 1442TIP3    H228522   3.282   4.432   9.680 -0.5602  0.2186 -0.0162
 1443TIP3   OH228523   7.568   0.994   3.008 -0.4955 -0.1834  0.3091
 1443TIP3    H128524   7.635   0.947   2.959  0.5700  0.3868  1.1751
 1443TIP3    H228525   7.505   0.926   3.033  0.5890 -1.0406  0.8258
 1444TIP3   OH228526   6.275   6.974   8.796 -0.1879 -0.0201 -0.4613
 1444TIP3    H128527   6.322   6.902   8.755  0.4034  0.0617  0.0653
 1444TIP3    H228528   6.286   7.047   8.736 -0.7538 -0.3489 -0.9784
 1445TIP3   OH228529   3.419   4.203   9.568  0.1864 -0.5366  0.6484
 1445TIP3    H128530   3.463   4.126   9.604  0.6365  0.1855  1.6847
 1445TIP3    H228531   3.368   4.237   9.641  0.6163  0.5929  0.4419
 1446TIP3   OH228532   5.344   1.062   1.614  0.0511 -0.8679 -0.1382
 1446TIP3    H128533   5.427   1.097   1.581 -0.0454  0.1692  0.6789
 1446TIP3    H228534   5.370   0.989   1.670  0.5396  0.3072  1.2220
 1447TIP3   OH228535   4.673   7.406   1.851  0.1710  0.3833 -0.0452
 1447TIP3    H128536   4.640   7.389   1.763  1.7554 -1.9111 -0.2810
 1447TIP3    H228537   4.750   7.461   1.837 -0.3812  1.2154  0.0719
 1448TIP3   OH228538   1.750   3.764   1.412  0.2787 -0.1564  0.0261
 1448TIP3    H128539   1.778   3.696   1.351  0.4481  0.3049 -0.4179
 1448TIP3    H228540   1.698   3.718   1.478  2.3136 -1.0866  1.0560
 1449TIP3   OH228541   0.969   6.946   8.713 -0.4583 -0.0921 -0.8651
 1449TIP3    H128542   1.043   6.952   8.652  0.5876 -1.6980  0.1728
 1449TIP3    H228543   0.950   6.852   8.718 -1.9765  0.2147 -0.3781
 1450TIP3   OH228544   2.249   2.134   9.094  0.0395  0.1703  0.1458
 1450TIP3    H128545   2.224   2.044   9.114  0.3925  0.1528  0.5030
 1450TIP3    H228546   2.225   2.184   9.172  0.3938  0.2870  0.1810
 1451TIP3   OH228547   7.220   4.810   1.152  0.1269 -0.8559  0.2778
 1451TIP3    H128548   7.152   4.827   1.217  0.2212  0.7487  0.0012
 1451TIP3    H228549   7.176   4.819   1.068  0.7898  0.9867  0.0771
 1452TIP3   OH228550   1.557   2.636   9.194  0.2723  0.2334  0.8978
 1452TIP3    H128551   1.617   2.627   9.120  0.6609 -1.0000  1.3264
 1452TIP3    H228552   1.471   2.649   9.154  0.5420  0.0120  0.2342
 1453TIP3   OH228553   1.437   3.810   7.171 -0.3488  1.3728  0.2818
 1453TIP3    H128554   1.477   3.897   7.177  0.3546  1.0826 -0.0724
 1453TIP3    H228555   1.475   3.772   7.092 -1.1145  0.9718  0.0995
 1454TIP3   OH228556   3.990   4.731   7.342  0.3780  0.1748  0.2272
 1454TIP3    H128557   4.081   4.749   7.319  0.3477  3.5634  2.1180
 1454TIP3    H228558   3.993   4.705   7.434 -0.4267 -2.7432 -0.4528
 1455TIP3   OH228559   5.616   4.031   8.049 -0.0618 -0.2002 -0.0133
 1455TIP3    H128560   5.683   3.981   8.095 -1.2996 -1.4114  0.5265
 1455TIP3    H228561   5.615   3.994   7.961 -0.4220 -0.5700  0.1480
 1456TIP3   OH228562   5.817   1.706   8.213  0.0750 -0.8283  0.0521
 1456TIP3    H128563   5.877   1.780   8.209 -0.8844 -0.0410 -2.9496
 1456TIP3    H228564   5.856   1.640   8.155 -0.9078 -1.1188 -0.3086
 1457TIP3   OH228565   6.798   2.814   1.587  0.1218  0.2633 -0.4344
 1457TIP3    H128566   6.805   2.894   1.535 -0.2618  2.0924  2.1117
 1457TIP3    H228567   6.868   2.758   1.554 -0.0020  1.3370 -2.7522
 1458TIP3   OH228568   5.044   6.474   9.382 -0.5007 -0.2698  0.0448
 1458TIP3    H128569   5.024   6.549   9.438 -0.5291 -0.9838  1.0144
 1458TIP3    H228570   5.135   6.488   9.355 -0.3965 -0.0631  0.5012
 1459TIP3   OH228571   7.191   0.772   7.956 -0.3754  0.3112 -0.1776
 1459TIP3    H128572   7.229   0.743   8.039 -1.5394 -0.8634 -0.0102
 1459TIP3    H228573   7.166   0.691   7.912  0.7852  0.8808 -1.9870
 1460TIP3   OH228574   6.100   2.128   7.440  0.4959 -0.2444 -0.0712
 1460TIP3    H128575   6.046   2.206   7.453 -0.2234 -0.8699  0.9469
 1460TIP3    H228576   6.040   2.064   7.401  1.4082  0.0730 -2.1358
 1461TIP3   OH228577   7.387   0.782   8.351 -0.2445 -0.0908  0.1919
 1461TIP3    H128578   7.349   0.851   8.405 -0.8721 -1.4696  1.5683
 1461TIP3    H228579   7.463   0.752   8.400 -0.0428 -0.4614 -0.3372
 1462TIP3   OH228580   6.950   2.188   0.591  0.1616  0.1322  0.7843
 1462TIP3    H128581   7.000   2.208   0.670  1.4088 -0.6169  0.2152
 1462TIP3    H228582   7.012   2.141   0.534 -0.5800  0.9649 -0.7886
 1463TIP3   OH228583   3.171   4.687   8.714  0.0710  0.4239 -0.3584
 1463TIP3    H128584   3.262   4.671   8.688  0.3018  1.8145 -0.4507
 1463TIP3    H228585   3.140   4.601   8.744  1.1811 -0.2307 -0.9926
 1464TIP3   OH228586   5.712   7.239   8.236  0.3838 -0.2248  0.0408
 1464TIP3    H128587   5.794   7.216   8.280  1.1451  1.2368 -0.5306
 1464TIP3    H228588   5.645   7.189   8.282  1.5724 -1.3563  0.6151
 1465TIP3   OH228589   2.468   3.834   0.011  0.5262  0.2204 -0.0227
 1465TIP3    H128590   2.541   3.869  -0.039  1.0615  1.2252  1.3802
 1465TIP3    H228591   2.510   3.782   0.080 -0.1981 -1.5872 -0.8722
 1466TIP3   OH228592   1.384   2.062   0.585 -0.0510  0.0436 -0.5303
 1466TIP3    H128593   1.363   2.009   0.662 -0.0679 -0.1095 -0.6405
 1466TIP3    H228594   1.370   2.152   0.613 -2.1813 -0.0887 -0.9986
 1467TIP3   OH228595   2.352   0.751   7.402 -0.0153 -0.1826  0.5462
 1467TIP3    H128596   2.427   0.691   7.398  0.2811  0.1451  1.1185
 1467TIP3    H228597   2.308   0.739   7.318 -0.4036 -1.7678  0.9363
 1468TIP3   OH228598   3.409   7.185   8.665 -0.1585  0.4190 -0.5954
 1468TIP3    H128599   3.471   7.229   8.723 -0.5436  0.7108 -0.4031
 1468TIP3    H228600   3.324   7.194   8.708 -0.0917 -1.5668  0.0720
 1469TIP3   OH228601   1.201   5.452   0.779  0.3170 -0.0593 -0.1788
 1469TIP3    H128602   1.129   5.478   0.721  0.8837 -0.1850 -0.9571
 1469TIP3    H228603   1.220   5.530   0.830 -1.4949 -0.5000  1.2767
 1470TIP3   OH228604   7.342   0.703   1.086  0.1771  0.1305 -0.3056
 1470TIP3    H128605   7.340   0.720   1.180 -1.1040  2.2568 -0.6738
 1470TIP3    H228606   7.257   0.663   1.067  0.6265 -0.7576 -0.5098
 1471TIP3   OH228607   4.345   0.626   1.187 -0.5867  0.4664 -0.6909
 1471TIP3    H128608   4.386   0.699   1.232 -2.1587 -0.1527  1.9624
 1471TIP3    H228609   4.282   0.667   1.127 -1.0765  1.3390  0.3802
 1472TIP3   OH228610   0.256   2.087   7.712 -0.0367  0.1959  0.4417
 1472TIP3    H128611   0.202   2.127   7.644  0.3326 -0.1711 -0.0743
 1472TIP3    H228612   0.337   2.139   7.712  0.6816 -0.8843 -0.6350
 1473TIP3   OH228613   4.048   5.149   0.445  0.2184 -0.1356 -0.3983
 1473TIP3    H128614   4.107   5.203   0.497  1.1323  0.6548 -2.1763
 1473TIP3    H228615   4.103   5.116   0.373 -1.1575 -0.5405 -1.3081
 1474TIP3   OH228616   5.699   6.738   9.835 -0.3336 -0.0760 -0.0908
 1474TIP3    H128617   5.742   6.793   9.769  0.9319  0.3098  1.0230
 1474TIP3    H228618   5.740   6.652   9.824 -0.5371 -0.1630 -0.1770
 1475TIP3   OH228619   2.790   4.558   9.079  0.3625 -0.9840 -1.2294
 1475TIP3    H128620   2.878   4.527   9.101 -0.0810 -2.0719 -0.9339
 1475TIP3    H228621   2.757   4.597   9.160  1.2417  1.1730 -1.8171
 1476TIP3   OH228622   1.479   3.468   8.205  0.3258  0.3501  0.2303
 1476TIP3    H128623   1.385   3.462   8.188  0.6439 -3.5206 -1.0745
 1476TIP3    H228624   1.517   3.491   8.121  0.7125 -1.7813 -0.2349
 1477TIP3   OH228625   3.794   6.879   0.600 -0.0169  0.3560 -0.1778
 1477TIP3    H128626   3.714   6.832   0.577 -0.1399  0.6630 -0.3837
 1477TIP3    H228627   3.817   6.928   0.521 -0.0537  0.8704  0.1258
 1478TIP3   OH228628   7.385   7.150   1.255 -0.3837  0.0775  0.1773
 1478TIP3    H128629   7.457   7.138   1.193 -1.7001  0.8246 -1.5792
 1478TIP3    H228630   7.422   7.203   1.325  0.7679  0.4631 -0.6970
 1479TIP3   OH228631   2.030   6.829   7.312 -0.3329  0.5128 -0.2054
 1479TIP3    H128632   1.993   6.824   7.223  1.3239  1.2910 -0.9845
 1479TIP3    H228633   1.989   6.907   7.350 -1.1720  0.0835 -0.2180
 1480TIP3   OH228634   4.484   6.354   2.500  0.3453  0.4811 -0.5082
 1480TIP3    H128635   4.402   6.359   2.550  0.1876  0.5468 -0.7708
 1480TIP3    H228636   4.532   6.282   2.541  0.0004  0.2067 -0.5816
 1481TIP3   OH228637   1.261   0.736   2.888 -0.6333 -0.0076  0.1038
 1481TIP3    H128638   1.292   0.648   2.910 -2.2100 -0.5588  0.2242
 1481TIP3    H228639   1.278   0.788   2.967  2.5603  0.4910 -0.7725
 1482TIP3   OH228640   3.437   6.762   9.003  0.3211 -0.4746 -0.1099
 1482TIP3    H128641   3.373   6.757   9.074 -0.1388 -1.9024 -0.5794
 1482TIP3    H228642   3.514   6.716   9.037 -0.1017 -1.6722 -0.6977
 1483TIP3   OH228643   5.965   4.857   7.131  0.2360  0.4964  0.0784
 1483TIP3    H128644   5.926   4.868   7.218  2.0021 -0.5841  1.0696
 1483TIP3    H228645   5.932   4.772   7.101  0.7170  0.2238  0.3132
 1484TIP3   OH228646   7.476   6.024   9.670 -0.6721  0.5766  0.3174
 1484TIP3    H128647   7.449   5.937   9.701  1.5905 -0.1210  0.5599
 1484TIP3    H228648   7.547   6.049   9.730  2.7998 -0.1044 -3.1251
 1485TIP3   OH228649   3.975   0.043   1.653  0.3251  0.0734 -0.0959
 1485TIP3    H128650   3.909  -0.024   1.669  0.4674 -0.5607 -1.9630
 1485TIP3    H228651   4.005   0.069   1.741 -2.4159  0.4317  0.8097
 1486TIP3   OH228652   4.839   2.726   9.642  0.0859 -0.6133 -0.3002
 1486TIP3    H128653   4.886   2.647   9.668 -1.7895 -1.6837 -0.0179
 1486TIP3    H228654   4.830   2.776   9.723  5.3093  2.3793 -1.0743
 1487TIP3   OH228655   5.766   0.472   1.722 -0.1646  0.1853  0.0195
 1487TIP3    H128656   5.846   0.462   1.774 -1.4222 -0.0323  2.0258
 1487TIP3    H228657   5.752   0.385   1.683  0.0225 -0.0625  0.4962
 1488TIP3   OH228658   6.665   3.504   0.187 -0.1123 -0.8980 -0.0411
 1488TIP3    H128659   6.732   3.563   0.151 -1.1204  0.9285  0.9414
 1488TIP3    H228660   6.700   3.478   0.272 -1.3125  1.5068  1.3026
 1489TIP3   OH228661   1.719   5.459   7.617 -0.5335 -0.2156  0.1896
 1489TIP3    H128662   1.679   5.455   7.704  1.4147  1.3908  1.2191
 1489TIP3    H228663   1.781   5.531   7.621  2.3057 -2.3258 -1.3917
 1490TIP3   OH228664   7.555   5.999   0.288 -0.4928 -0.0261  0.0321
 1490TIP3    H128665   7.578   6.054   0.363 -1.6879 -0.2851  0.6097
 1490TIP3    H228666   7.597   5.915   0.306  1.8123  0.7968 -1.1248
 1491TIP3   OH228667   2.451   0.288   6.937 -0.0042  0.0665  0.0028
 1491TIP3    H128668   2.359   0.278   6.916 -0.4715 -0.3153  1.9922
 1491TIP3    H228669   2.489   0.201   6.920  0.1278  0.3676 -1.3224
 1492TIP3   OH228670   3.781   4.174   7.466 -0.3083 -0.0994 -0.5794
 1492TIP3    H128671   3.723   4.230   7.415 -0.6720 -0.1100 -0.1885
 1492TIP3    H228672   3.726   4.100   7.492 -0.8909  1.0972  1.9244
 1493TIP3   OH228673   2.390   2.451   1.309 -0.6537  0.0155  0.5644
 1493TIP3    H128674   2.295   2.447   1.320 -0.9886  0.2809 -1.7816
 1493TIP3    H228675   2.412   2.541   1.333 -0.8292 -0.3127  2.0323
 1494TIP3   OH228676   1.264   0.799   7.342 -0.5359 -0.6397 -0.1678
 1494TIP3    H128677   1.352   0.812   7.379 -0.3603  1.7847 -1.2375
 1494TIP3    H228678   1.275   0.728   7.279  0.3098 -1.3462  0.7452
 1495TIP3   OH228679   2.980   3.732   7.941 -0.1713 -0.1323  0.0427
 1495TIP3    H128680   3.043   3.661   7.937  0.3483  0.3201  0.1405
 1495TIP3    H228681   2.968   3.750   8.034  1.7718  1.7113 -0.0022
 1496TIP3   OH228682   5.889   3.763   7.611 -0.4652  0.1144  0.4544
 1496TIP3    H128683   5.814   3.785   7.556 -0.0900 -1.6601 -0.8366
 1496TIP3    H228684   5.957   3.825   7.584 -0.5665 -0.1625 -0.4860
 1497TIP3   OH228685   1.428   3.323   0.401 -0.3842 -0.0540 -0.2313
 1497TIP3    H128686   1.353   3.312   0.342 -0.6833  0.9707 -0.0621
 1497TIP3    H228687   1.485   3.384   0.355 -0.0491 -0.1870  0.0095
 1498TIP3   OH228688   0.950   5.489   7.702  0.1483  0.2104 -0.7370
 1498TIP3    H128689   0.926   5.449   7.786  0.2268 -0.6064 -1.0932
 1498TIP3    H228690   0.941   5.583   7.717  0.1962  0.0778  0.2008
 1499TIP3   OH228691   2.069   2.963   9.113  0.1716 -0.3747 -0.2064
 1499TIP3    H128692   1.995   2.920   9.154  0.7529 -0.6538  0.5764
 1499TIP3    H228693   2.135   2.969   9.182 -0.2021  2.6271  0.0334
 1500TIP3   OH228694   0.690   1.383   2.652  0.3696 -0.0324  0.1460
 1500TIP3    H128695   0.668   1.448   2.585  0.5803  0.2359  0.3349
 1500TIP3    H228696   0.766   1.420   2.697 -0.7013  0.5361  1.5526
 1501TIP3   OH228697   3.637   3.329   8.921  0.3052  0.1174 -0.3723
 1501TIP3    H128698   3.579   3.254   8.933 -0.4062  0.5219 -1.1399
 1501TIP3    H228699   3.633   3.375   9.006 -2.6633  1.5816 -1.1546
 1502TIP3   OH228700   5.617   2.957   9.127 -0.3059 -0.0131 -0.0551
 1502TIP3    H128701   5.636   3.030   9.186 -0.8893 -0.0638  0.1988
 1502TIP3    H228702   5.583   2.998   9.048 -0.0006  0.0248 -0.1693
 1503TIP3   OH228703   4.285   3.065   9.816 -0.3960 -0.0191 -0.3361
 1503TIP3    H128704   4.206   3.113   9.791  0.4111  1.5729  0.0276
 1503TIP3    H228705   4.342   3.131   9.856  2.0723 -0.5873 -2.5925
 1504TIP3   OH228706   0.984   5.965   9.883 -0.2629  0.2771  0.2324
 1504TIP3    H128707   1.051   5.897   9.885 -0.2455  0.2917  0.1141
 1504TIP3    H228708   0.901   5.918   9.887 -0.2497  0.2525  0.2083
 1505TIP3   OH228709   1.794   1.196   2.060 -0.3271 -0.2217  0.0443
 1505TIP3    H128710   1.769   1.160   1.975  0.4664  0.8259 -0.6616
 1505TIP3    H228711   1.872   1.145   2.085 -0.6295 -0.6094  0.2113
 1506TIP3   OH228712   6.785   2.852   7.153 -0.2298  0.1181  0.2699
 1506TIP3    H128713   6.731   2.855   7.075  0.9020 -0.0913 -0.5500
 1506TIP3    H228714   6.853   2.787   7.133  1.9894  2.3217  0.1209
 1507TIP3   OH228715   5.700   3.129   9.322 -0.0443  0.0525  0.3341
 1507TIP3    H128716   5.760   3.203   9.336  1.2553 -0.8886 -0.1042
 1507TIP3    H228717   5.730   3.062   9.383  0.8134 -1.2533 -1.4401
 1508TIP3   OH228718   2.722   1.474   9.208 -0.3757 -0.5253  0.1695
 1508TIP3    H128719   2.630   1.461   9.231 -0.5262  0.8149  0.4517
 1508TIP3    H228720   2.743   1.561   9.244  1.3768 -1.3590  1.3017
 1509TIP3   OH228721   2.051   7.356   7.582 -0.5551  0.4676  0.2672
 1509TIP3    H128722   2.050   7.369   7.487  0.9705  1.1034  0.3065
 1509TIP3    H228723   2.126   7.299   7.598 -0.5701  0.6759  1.1335
 1510TIP3   OH228724   7.255   7.166   1.564  0.8683 -0.1646  0.1916
 1510TIP3    H128725   7.340   7.139   1.596 -0.0831 -0.2784  2.8468
 1510TIP3    H228726   7.260   7.262   1.558  0.6733 -0.0093  2.0845
 1511TIP3   OH228727   2.202   4.050   8.488  0.5597  0.5076  0.1241
 1511TIP3    H128728   2.109   4.049   8.511  0.3969  2.1718 -0.3353
 1511TIP3    H228729   2.219   3.962   8.454 -0.2473 -0.5881  2.3798
 1512TIP3   OH228730   2.556   3.860   1.157 -0.1343  0.0413 -0.3281
 1512TIP3    H128731   2.583   3.768   1.159  0.4022  0.1529 -1.7799
 1512TIP3    H228732   2.592   3.895   1.076 -1.8527  1.0763 -0.7159
 1513TIP3   OH228733   6.336   4.667   8.048 -0.0335  0.4550  0.4491
 1513TIP3    H128734   6.306   4.729   7.981 -2.1229  0.4765  1.3410
 1513TIP3    H228735   6.339   4.583   8.002 -3.1252  0.1348  0.6288
 1514TIP3   OH228736   6.845   4.227   7.284 -0.1412 -0.0871  0.2022
 1514TIP3    H128737   6.826   4.282   7.208 -0.1632  0.3259  0.5035
 1514TIP3    H228738   6.770   4.240   7.343 -0.3570 -0.7715  0.0965
 1515TIP3   OH228739   6.988   2.030   2.642 -0.1830  0.5511 -0.1992
 1515TIP3    H128740   7.067   2.080   2.621 -0.2245  0.7825  0.1892
 1515TIP3    H228741   6.925   2.097   2.670  0.5769  0.0946  2.9390
 1516TIP3   OH228742   2.101   0.675   0.937 -0.3091  0.0523 -0.0598
 1516TIP3    H128743   2.076   0.663   0.846 -1.5019  0.0634  0.2477
 1516TIP3    H228744   2.191   0.707   0.933 -0.0076 -0.8810 -1.1871
 1517TIP3   OH228745   4.481   6.454   8.592  0.2553  0.1019  0.8868
 1517TIP3    H128746   4.412   6.509   8.627 -1.2193  0.1208 -1.7873
 1517TIP3    H228747   4.505   6.396   8.665 -1.8775  0.7522  2.1947
 1518TIP3   OH228748   2.452   0.857   1.374  0.2968 -0.3513  0.9273
 1518TIP3    H128749   2.379   0.837   1.315  0.6947  0.1314  0.2635
 1518TIP3    H228750   2.525   0.875   1.316  0.8362 -0.3880  1.5862
 1519TIP3   OH228751   3.339   4.159   2.532 -0.0673  0.1386  0.0635
 1519TIP3    H128752   3.324   4.077   2.486  0.1359 -0.6197  1.3031
 1519TIP3    H228753   3.311   4.142   2.622 -0.5067  1.5863  0.2342
 1520TIP3   OH228754   5.817   4.621   7.133  0.4382 -0.2001  0.3864
 1520TIP3    H128755   5.838   4.583   7.218 -1.1063 -0.6338  0.6021
 1520TIP3    H228756   5.838   4.551   7.070  0.3658 -0.3507  0.5282
 1521TIP3   OH228757   0.082   4.388   7.964 -0.7931 -0.1213 -0.2608
 1521TIP3    H128758   0.097   4.403   7.871  0.8375 -1.2855 -0.2125
 1521TIP3    H228759  -0.013   4.397   7.974 -1.0202 -0.0943 -2.0425
 1522TIP3   OH228760   0.499   5.366   7.417  0.0461  0.2695  1.0859
 1522TIP3    H128761   0.512   5.282   7.459  2.7397 -0.0261 -0.1523
 1522TIP3    H228762   0.580   5.415   7.434 -0.6015  1.8013  0.0482
 1523TIP3   OH228763   6.296   2.802   7.727 -0.3731 -0.4148  0.0973
 1523TIP3    H128764   6.296   2.765   7.639 -1.5042  0.4522 -0.2993
 1523TIP3    H228765   6.302   2.727   7.785  0.3171 -1.0042 -0.7203
 1524TIP3   OH228766   6.317   2.671   9.877  1.1602 -0.1897 -0.0693
 1524TIP3    H128767   6.368   2.672   9.796  0.4413 -0.1275 -0.5359
 1524TIP3    H228768   6.373   2.713   9.942  2.2916 -1.4715 -0.1889
 1525TIP3   OH228769   5.622   1.945   2.392  0.4520  0.2459  0.3323
 1525TIP3    H128770   5.532   1.962   2.418  0.2550  0.2508 -0.3437
 1525TIP3    H228771   5.659   1.896   2.466 -0.8613 -2.0951 -0.4575
 1526TIP3   OH228772   2.878   1.655   8.892 -0.0175  0.1648  0.1955
 1526TIP3    H128773   2.808   1.694   8.943 -0.7029  0.4693 -0.9428
 1526TIP3    H228774   2.840   1.642   8.805  1.9050  2.2173 -1.0590
 1527TIP3   OH228775   0.222   5.731   9.034 -0.1097  0.4233  0.7158
 1527TIP3    H128776   0.229   5.790   9.109  2.7957 -0.0630  0.9506
 1527TIP3    H228777   0.200   5.646   9.072  3.4809 -0.3475  1.4833
 1528TIP3   OH228778   0.266   7.649   9.655 -0.2698  0.7504 -0.2983
 1528TIP3    H128779   0.224   7.648   9.741 -0.7184 -0.5335 -0.5086
 1528TIP3    H228780   0.193   7.658   9.593  0.0705  1.9058 -0.5502
 1529TIP3   OH228781   7.472   7.073   1.667  0.3492 -0.3648 -0.1771
 1529TIP3    H128782   7.484   7.087   1.761  0.6675  1.2200 -0.4326
 1529TIP3    H228783   7.479   6.978   1.656  1.3959 -0.4781  1.2476
 1530TIP3   OH228784   2.200   4.360   9.224 -0.8675  0.6860  0.1610
 1530TIP3    H128785   2.117   4.313   9.220 -0.8211  0.2442  2.7877
 1530TIP3    H228786   2.175   4.452   9.214 -1.2624  0.3943 -2.1582
 1531TIP3   OH228787   0.245   2.994   7.488 -0.2573  0.1773 -0.1395
 1531TIP3    H128788   0.266   3.041   7.407 -0.9870 -0.5491 -0.7590
 1531TIP3    H228789   0.151   2.977   7.483 -0.6655  1.5856  1.6592
 1532TIP3   OH228790   5.084   2.442   8.638 -0.1085  0.1340 -0.2179
 1532TIP3    H128791   5.121   2.518   8.684 -1.8782  0.6467  0.4265
 1532TIP3    H228792   5.081   2.373   8.705  0.6788 -0.2448 -0.5648
 1533TIP3   OH228793   2.881   2.125   1.174  0.2617 -0.2747 -0.7109
 1533TIP3    H128794   2.913   2.038   1.152 -2.9683 -1.6112 -0.8044
 1533TIP3    H228795   2.818   2.146   1.105  0.1653  1.6917 -0.1141
 1534TIP3   OH228796   1.836   0.924   1.704  0.3060  0.4461 -0.5462
 1534TIP3    H128797   1.899   0.852   1.696 -0.7146 -0.5373  0.0366
 1534TIP3    H228798   1.882   0.990   1.756  0.5757 -0.6190  0.6234
 1535TIP3   OH228799   2.953   6.924   2.324  0.3030 -0.0527  0.4828
 1535TIP3    H128800   2.951   7.013   2.289  2.4613 -0.6071 -1.3426
 1535TIP3    H228801   2.991   6.933   2.411 -1.2864  0.9460  1.1260
 1536TIP3   OH228802   2.904   2.867   1.000  0.3979 -0.0197 -0.9277
 1536TIP3    H128803   2.943   2.784   0.971 -0.9408 -0.3219 -1.9734
 1536TIP3    H228804   2.877   2.910   0.919  0.2640  1.0273 -0.3315
 1537TIP3   OH228805   0.373   6.727   8.626  0.4426 -0.3968  0.2598
 1537TIP3    H128806   0.352   6.818   8.605  0.5370  0.9354  4.8231
 1537TIP3    H228807   0.289   6.686   8.645  0.3493 -1.5460 -2.2388
 1538TIP3   OH228808   1.785   7.341   1.059  0.1296  0.0577 -0.0503
 1538TIP3    H128809   1.783   7.376   1.148  0.7443 -0.5876  0.2283
 1538TIP3    H228810   1.797   7.247   1.071  1.4789  0.1115 -0.8276
 1539TIP3   OH228811   7.664   6.714   8.047  0.2414  0.0157  0.2460
 1539TIP3    H128812   7.688   6.751   8.132 -1.4971  0.4742  0.5846
 1539TIP3    H228813   7.709   6.768   7.983 -0.8752  1.6836  0.8034
 1540TIP3   OH228814   5.717   0.707   9.393  0.3067  0.1013  0.0864
 1540TIP3    H128815   5.803   0.747   9.383  0.8135 -1.3263 -1.6733
 1540TIP3    H228816   5.735   0.613   9.401 -1.0470 -0.1294  0.7369
 1541TIP3   OH228817   6.187   3.036   7.573  0.0145 -0.4637 -0.7367
 1541TIP3    H128818   6.142   3.081   7.644  0.0397  0.7458 -1.4554
 1541TIP3    H228819   6.247   2.975   7.616 -0.7190 -0.5046  0.2495
 1542TIP3   OH228820   0.377   7.490   0.886  0.0585  0.0770 -0.0094
 1542TIP3    H128821   0.430   7.503   0.965 -0.0028  0.3955 -0.0192
 1542TIP3    H228822   0.333   7.406   0.901  0.0945  0.1055  0.2712
 1543TIP3   OH228823   0.900   1.926   9.284  0.0410 -0.2201  0.0049
 1543TIP3    H128824   0.891   2.000   9.224 -0.7125  0.0529  0.4537
 1543TIP3    H228825   0.987   1.936   9.321  0.2281  0.0247 -0.4847
 1544TIP3   OH228826   3.917   0.008   0.474 -0.2637 -0.1443  0.2662
 1544TIP3    H128827   3.992   0.010   0.533 -0.2642  0.1828  0.2602
 1544TIP3    H228828   3.949  -0.039   0.397 -0.1565 -0.2707  0.3872
 1545TIP3   OH228829   4.845   4.739   8.442  0.3357  0.7530 -0.6902
 1545TIP3    H128830   4.850   4.647   8.469 -0.1494  0.4144 -1.6906
 1545TIP3    H228831   4.785   4.779   8.505 -0.0124  0.2104 -0.6654
 1546TIP3   OH228832   6.738   3.408   8.086  0.1906  0.3967 -0.0622
 1546TIP3    H128833   6.716   3.325   8.042  0.7993  1.0332 -1.6498
 1546TIP3    H228834   6.653   3.446   8.108 -0.2910  1.0445 -2.7007
 1547TIP3   OH228835   5.069   4.786   7.412 -0.1467  0.2870  0.1348
 1547TIP3    H128836   5.011   4.712   7.397  0.5005 -0.0005 -1.1132
 1547TIP3    H228837   5.021   4.862   7.380 -0.6468  0.3680  1.0395
 1548TIP3   OH228838   7.594   7.249   8.755  0.0074  0.3189 -0.5943
 1548TIP3    H128839   7.560   7.179   8.811  0.4830  0.5619  0.0201
 1548TIP3    H228840   7.555   7.329   8.791  1.6365  0.6714  0.5051
 1549TIP3   OH228841   6.473   2.321   6.617  0.0419  0.0817  0.0648
 1549TIP3    H128842   6.391   2.272   6.625 -1.5837  2.3414 -1.3877
 1549TIP3    H228843   6.535   2.260   6.579 -1.8647 -0.8780 -1.6457
 1550TIP3   OH228844   3.969   3.652   9.065  0.0534 -0.1015 -0.2966
 1550TIP3    H128845   3.908   3.694   9.126 -1.2768 -2.3939  0.0862
 1550TIP3    H228846   3.989   3.568   9.106  0.3876 -1.0452 -2.2656
 1551TIP3   OH228847   6.395   6.459   7.040  0.0509  0.3425  0.0201
 1551TIP3    H128848   6.411   6.370   7.073 -2.3155 -0.0303  0.2943
 1551TIP3    H228849   6.385   6.448   6.945 -1.9593 -0.0189  0.2296
 1552TIP3   OH228850   5.926   6.491   2.822  0.3136  0.2965  0.6847
 1552TIP3    H128851   5.832   6.505   2.806  0.4375  0.1234 -0.2521
 1552TIP3    H228852   5.943   6.538   2.903  0.1605  3.4429 -0.9325
 1553TIP3   OH228853   3.225   5.671   1.056 -0.3584 -0.3600  0.2665
 1553TIP3    H128854   3.154   5.616   1.023 -1.3744  0.6312  0.6961
 1553TIP3    H228855   3.261   5.713   0.978 -1.4930  0.5319  0.1934
 1554TIP3   OH228856   1.626   2.183   9.496 -0.6203 -0.2622  0.3632
 1554TIP3    H128857   1.602   2.190   9.588 -0.8364  0.7606  0.2410
 1554TIP3    H228858   1.713   2.143   9.497 -1.4403 -2.1609  0.8940
 1555TIP3   OH228859   5.634   0.443   2.205  0.4731 -0.3083  0.3605
 1555TIP3    H128860   5.564   0.379   2.214  0.7726 -0.5439  1.0906
 1555TIP3    H228861   5.609   0.515   2.263 -0.3126  0.6753 -1.1267
 1556TIP3   OH228862   0.235   6.089   2.301 -0.0967 -0.0169 -0.7130
 1556TIP3    H128863   0.287   6.077   2.221  0.2344  2.0797 -0.8688
 1556TIP3    H228864   0.150   6.052   2.280  0.5213 -1.1176 -1.3859
 1557TIP3   OH228865   1.212   5.093   2.549  0.0205 -0.0653 -0.2514
 1557TIP3    H128866   1.229   4.999   2.543  0.0620 -0.0084 -1.2290
 1557TIP3    H228867   1.292   5.134   2.518 -0.3344  0.2720 -0.7438
 1558TIP3   OH228868   3.683   4.723   8.890  0.2491 -0.1511 -1.0623
 1558TIP3    H128869   3.755   4.741   8.951  1.2440 -2.1390 -1.5596
 1558TIP3    H228870   3.627   4.661   8.936  0.0783 -0.3312 -1.5045
 1559TIP3   OH228871   1.462   5.316   1.953 -0.3194  0.0421 -0.1069
 1559TIP3    H128872   1.390   5.375   1.975 -0.3205 -0.3607  1.0662
 1559TIP3    H228873   1.540   5.360   1.986 -0.1369  0.0679 -0.5689
 1560TIP3   OH228874   1.414   2.977   1.618 -0.3329  0.3934  0.5003
 1560TIP3    H128875   1.387   2.888   1.642  2.0138 -0.3127  0.7593
 1560TIP3    H228876   1.392   2.985   1.525  1.9790 -1.5832 -0.3109
 1561TIP3   OH228877   1.363   5.451   1.033 -0.2287 -0.0022  0.2911
 1561TIP3    H128878   1.279   5.491   1.015 -0.0116  0.4575  0.3001
 1561TIP3    H228879   1.350   5.358   1.012 -1.0365 -0.1309  1.2855
 1562TIP3   OH228880   3.714   2.199   1.635  0.1432 -0.4245  0.2245
 1562TIP3    H128881   3.776   2.182   1.705 -0.7933 -0.7612  0.9886
 1562TIP3    H228882   3.644   2.135   1.648 -0.7405  0.4287 -0.1532
 1563TIP3   OH228883   4.719   4.042   9.765 -0.0526 -0.3395 -0.2295
 1563TIP3    H128884   4.747   3.952   9.745 -1.1148 -0.6281 -0.4767
 1563TIP3    H228885   4.635   4.031   9.810 -1.2895  0.5877 -2.1769
 1564TIP3   OH228886   1.523   4.521   9.452 -0.2768  0.3013 -0.1413
 1564TIP3    H128887   1.609   4.494   9.485  0.1923  0.0057 -1.5264
 1564TIP3    H228888   1.532   4.616   9.438  0.2890  0.0786 -1.4957
 1565TIP3   OH228889   3.234   3.932   0.838  0.1917  0.0547 -0.5713
 1565TIP3    H128890   3.178   3.911   0.763  0.0479 -0.8396 -0.2288
 1565TIP3    H228891   3.180   3.988   0.893  1.0632  2.6646 -2.1778
 1566TIP3   OH228892   3.441   0.403   8.108  0.2934  0.2007 -0.6119
 1566TIP3    H128893   3.503   0.395   8.180 -0.1062 -0.4555 -0.3301
 1566TIP3    H228894   3.475   0.475   8.055 -0.8924  2.6879  1.7352
 1567TIP3   OH228895   7.090   0.093   8.118 -0.1960  0.3302  0.1408
 1567TIP3    H128896   7.138   0.169   8.085 -0.2389 -0.2055 -1.1908
 1567TIP3    H228897   7.000   0.107   8.089  0.1993 -1.2783 -2.0905
 1568TIP3   OH228898   1.682   7.502   7.679 -0.5615 -0.1951 -0.3005
 1568TIP3    H128899   1.619   7.543   7.620  0.4457  0.5114 -0.9035
 1568TIP3    H228900   1.661   7.409   7.676 -1.6627  0.0471 -0.3766
 1569TIP3   OH228901   3.522   1.239   1.523 -0.4013  0.7995  0.3618
 1569TIP3    H128902   3.474   1.300   1.580 -1.7285 -0.7790  0.9904
 1569TIP3    H228903   3.461   1.220   1.452 -1.0066 -1.6582  1.4528
 1570TIP3   OH228904   5.447   2.078   3.040  0.4446 -0.0879 -0.3246
 1570TIP3    H128905   5.450   1.983   3.037  1.2671 -0.3578  3.4259
 1570TIP3    H228906   5.537   2.106   3.024  0.5910 -0.1137  0.4079
 1571TIP3   OH228907   1.242   7.374   1.182  0.6616 -0.2157 -0.0034
 1571TIP3    H128908   1.284   7.360   1.267  1.8512  0.3067 -0.4833
 1571TIP3    H228909   1.236   7.469   1.174 -0.0132 -0.2756 -0.2471
 1572TIP3   OH228910   5.892   1.095   7.714  0.5734  0.1732  0.2028
 1572TIP3    H128911   5.812   1.088   7.765  1.3033 -0.4697  1.2948
 1572TIP3    H228912   5.883   1.178   7.666 -0.5550  0.2961  0.6042
 1573TIP3   OH228913   7.410   7.552   0.163 -0.0341 -0.1808 -0.5887
 1573TIP3    H128914   7.408   7.474   0.218 -1.6261 -0.5177 -1.0839
 1573TIP3    H228915   7.329   7.548   0.112 -0.6320  2.2576  0.0162
 1574TIP3   OH228916   3.905   7.123   8.849  0.2124  0.0653 -0.0390
 1574TIP3    H128917   3.830   7.066   8.832  1.4437 -1.4033 -0.7380
 1574TIP3    H228918   3.866   7.209   8.867 -1.6051 -0.5719 -0.7215
 1575TIP3   OH228919   1.990   5.269   7.200 -0.6315  0.7614 -0.2186
 1575TIP3    H128920   1.969   5.282   7.292  0.7212 -2.3876  0.6879
 1575TIP3    H228921   1.929   5.201   7.170  0.1884  0.3651 -1.0552
 1576TIP3   OH228922   3.454   7.559   1.710  0.7216  0.3664 -0.1971
 1576TIP3    H128923   3.469   7.480   1.762  3.2723  0.6118 -0.4042
 1576TIP3    H228924   3.400   7.615   1.767  1.5198 -0.2892  1.2717
 1577TIP3   OH228925   2.731   0.954   8.072 -0.1047  0.5005  0.3405
 1577TIP3    H128926   2.768   0.878   8.026  0.9933 -0.0359  2.0144
 1577TIP3    H228927   2.724   0.926   8.163 -1.2186  1.8820  0.7140
 1578TIP3   OH228928   4.577   5.726   9.654 -0.1138 -0.7865 -0.4513
 1578TIP3    H128929   4.627   5.647   9.634 -0.3699 -1.0385 -0.1012
 1578TIP3    H228930   4.488   5.705   9.627  0.4029  0.6503 -3.7807
 1579TIP3   OH228931   2.818   3.545   8.406  0.5396  0.7691  0.1942
 1579TIP3    H128932   2.777   3.462   8.428 -1.4108  1.5032 -0.4898
 1579TIP3    H228933   2.906   3.538   8.443  0.7631 -1.9238 -0.5959
 1580TIP3   OH228934   4.581   3.475   7.636  0.5678 -0.3368  0.2919
 1580TIP3    H128935   4.555   3.387   7.663  0.0855 -0.5186 -0.7327
 1580TIP3    H228936   4.640   3.505   7.705 -0.5697 -0.8115  1.5167
 1581TIP3   OH228937   1.891   3.256   6.926 -0.1730  0.4809  0.0041
 1581TIP3    H128938   1.931   3.180   6.969 -0.7577  0.6703  0.9333
 1581TIP3    H228939   1.797   3.237   6.928 -0.3253  1.2368  0.2907
 1582TIP3   OH228940   2.230   3.047   0.678  0.4955  0.0378 -0.0479
 1582TIP3    H128941   2.262   2.989   0.747  0.5612  0.1272 -0.0016
 1582TIP3    H228942   2.286   3.125   0.685  1.0433 -0.2798 -0.7240
 1583TIP3   OH228943   3.105   3.937   1.112  0.2462  0.0994 -0.0761
 1583TIP3    H128944   3.132   3.954   1.203 -2.5119  0.8643  0.7135
 1583TIP3    H228945   3.049   3.859   1.118 -1.7174  1.3779 -0.6651
 1584TIP3   OH228946   1.925   5.435   6.771  0.0282 -0.5700 -0.3515
 1584TIP3    H128947   1.941   5.349   6.810 -1.2476 -0.6113  0.1265
 1584TIP3    H228948   1.886   5.417   6.686  0.7022 -0.4559 -0.6954
 1585TIP3   OH228949   1.383   7.156   8.866  0.2200  0.1386  0.5187
 1585TIP3    H128950   1.378   7.224   8.933  1.6601  1.0625 -0.2439
 1585TIP3    H228951   1.348   7.198   8.787  0.1894 -0.3324  0.2797
 1586TIP3   OH228952   4.348   5.252   7.972 -0.6218 -0.5663  0.0886
 1586TIP3    H128953   4.275   5.191   7.985 -0.6042 -0.8058 -0.8556
 1586TIP3    H228954   4.399   5.213   7.900 -0.5227  0.4700 -0.4195
 1587TIP3   OH228955   2.953   6.799   7.229 -0.2377 -0.1482  0.2347
 1587TIP3    H128956   2.953   6.768   7.138  1.3903 -3.4297  1.1909
 1587TIP3    H228957   3.029   6.857   7.234 -0.0219 -0.3625 -0.4301
 1588TIP3   OH228958   3.410   3.823   7.859 -0.0072 -0.4156 -0.5244
 1588TIP3    H128959   3.506   3.818   7.855  0.0081 -0.6353  0.0370
 1588TIP3    H228960   3.384   3.853   7.772  0.7092  1.5664 -0.1274
 1589TIP3   OH228961   3.357   2.124   2.097 -0.1956 -0.1406  0.2120
 1589TIP3    H128962   3.401   2.129   2.013 -2.4100  0.6233 -0.9731
 1589TIP3    H228963   3.332   2.032   2.105 -0.1775 -0.1719 -0.0778
 1590TIP3   OH228964   0.566   0.587   2.343 -0.1251 -0.3438 -0.3168
 1590TIP3    H128965   0.584   0.664   2.396 -2.3769  0.9346 -1.2874
 1590TIP3    H228966   0.591   0.612   2.255  0.0292 -1.0829 -0.4876
 1591TIP3   OH228967   5.932   2.926   7.830 -0.0982  0.2065  0.2662
 1591TIP3    H128968   6.011   2.961   7.870  0.2666 -0.7695  0.4209
 1591TIP3    H228969   5.947   2.935   7.736 -0.4812  1.4567  0.3018
 1592TIP3   OH228970   1.649   1.585   0.070  0.3284  0.3123  0.1365
 1592TIP3    H128971   1.581   1.651   0.068  3.3704  3.7667  0.0676
 1592TIP3    H228972   1.626   1.528   0.144 -2.8993  0.7680 -0.3758
 1593TIP3   OH228973   5.842   6.329   9.977 -0.3524  0.1493 -0.0563
 1593TIP3    H128974   5.785   6.282  10.038  0.1516 -0.8380 -0.3356
 1593TIP3    H228975   5.928   6.290   9.990 -0.1084  0.3797 -0.9529
 1594TIP3   OH228976   6.608   3.609   9.791  0.2168 -0.1664  0.1783
 1594TIP3    H128977   6.546   3.609   9.864 -1.2579  0.6236 -0.9961
 1594TIP3    H228978   6.619   3.517   9.768 -0.8763 -0.3057  0.1576
 1595TIP3   OH228979   3.343   5.415   7.439 -0.3138 -0.3063 -0.3945
 1595TIP3    H128980   3.340   5.446   7.349  0.8316 -0.3849 -0.4770
 1595TIP3    H228981   3.278   5.467   7.485 -0.8781 -0.2315 -1.2544
 1596TIP3   OH228982   0.144   1.885   1.070 -0.0248  0.5915 -0.0300
 1596TIP3    H128983   0.222   1.853   1.114 -0.5938 -0.6258  0.1352
 1596TIP3    H228984   0.110   1.954   1.127  1.1128  1.3872 -0.2885
 1597TIP3   OH228985   6.784   7.493   1.702 -0.4482  0.5204  0.0934
 1597TIP3    H128986   6.757   7.447   1.622 -0.6762  1.7047 -0.5282
 1597TIP3    H228987   6.726   7.569   1.707  0.5905  1.3036  0.5323
 1598TIP3   OH228988   4.685   6.839   9.067  0.1519  0.0007 -0.4830
 1598TIP3    H128989   4.631   6.808   9.140  0.8349 -0.6564 -0.2494
 1598TIP3    H228990   4.627   6.833   8.991 -0.5923  0.7715  0.0017
 1599TIP3   OH228991   3.314   5.497   0.297 -0.4318 -0.0098 -0.0607
 1599TIP3    H128992   3.396   5.533   0.263  1.1280 -1.9491  1.3511
 1599TIP3    H228993   3.277   5.449   0.223  1.5521 -1.9749  0.0960
 1600TIP3   OH228994   1.109   2.433   1.582  0.2613 -0.1600  0.2919
 1600TIP3    H128995   1.175   2.364   1.577  0.8750  0.3957  0.5876
 1600TIP3    H228996   1.156   2.509   1.617 -0.2754  0.5561 -0.4936
 1601TIP3   OH228997   7.354   0.805   0.149 -0.3234 -0.4411 -0.5543
 1601TIP3    H128998   7.325   0.817   0.059 -3.0350  0.8122  0.4058
 1601TIP3    H228999   7.278   0.771   0.195  0.9321 -0.8705  1.3470
 1602TIP3   OH229000   6.924   7.406   9.917  0.4261  0.2980  0.2420
 1602TIP3    H129001   6.940   7.358   9.836  1.2953 -1.6110  1.4873
 1602TIP3    H229002   6.893   7.492   9.888  0.5474 -0.3842 -2.0913
 1603TIP3   OH229003   3.532   3.487   2.426 -0.3707  0.1568  0.0356
 1603TIP3    H129004   3.523   3.523   2.338  0.1062 -0.7885 -0.4208
 1603TIP3    H229005   3.627   3.483   2.440 -0.3768 -1.5488 -0.2213
 1604TIP3   OH229006   3.656   7.549   7.476 -0.0387 -0.4877  0.2952
 1604TIP3    H129007   3.707   7.555   7.395  0.6855  1.3171  0.8360
 1604TIP3    H229008   3.722   7.550   7.546 -0.7368  0.2656  0.9582
 1605TIP3   OH229009   0.492   2.603   0.556 -0.4172 -0.0896 -0.7317
 1605TIP3    H129010   0.412   2.648   0.528  0.2591  0.9808 -1.0362
 1605TIP3    H229011   0.464   2.548   0.629 -1.4379  0.2329 -0.8521
 1606TIP3   OH229012   6.485   7.639   9.923  0.1247 -0.6088 -0.3369
 1606TIP3    H129013   6.402   7.610   9.961  0.2434  1.0685  1.3508
 1606TIP3    H229014   6.550   7.578   9.959 -0.2842 -1.7388 -1.4258
 1607TIP3   OH229015   0.022   1.574   2.766 -0.0390 -0.5581  0.0135
 1607TIP3    H129016  -0.069   1.559   2.794  0.0945 -0.3402  0.5765
 1607TIP3    H229017   0.052   1.645   2.822 -0.1593  0.7678 -1.5245
 1608TIP3   OH229018   1.408   5.625   3.104 -0.1892 -0.1034  0.0378
 1608TIP3    H129019   1.337   5.668   3.151  0.8215  0.7316  0.8561
 1608TIP3    H229020   1.456   5.697   3.063 -0.9470 -0.8052 -2.1937
 1609TIP3   OH229021   6.487   7.119   7.480  0.9393 -0.2263 -0.2470
 1609TIP3    H129022   6.427   7.048   7.457 -0.3365  0.6799  0.1544
 1609TIP3    H229023   6.525   7.147   7.397  0.2377 -0.3343 -0.6104
 1610TIP3   OH229024   1.255   0.572   8.690  0.0244  0.1915 -0.0185
 1610TIP3    H129025   1.324   0.581   8.756  0.2061 -1.0350 -0.0176
 1610TIP3    H229026   1.177   0.547   8.740 -0.1919  0.6646 -0.1176
 1611TIP3   OH229027   7.466   5.211   9.591  0.5472 -0.5433 -0.7414
 1611TIP3    H129028   7.557   5.218   9.563  0.4698  2.1493 -0.5418
 1611TIP3    H229029   7.460   5.265   9.670 -0.9387 -1.8180  0.0926
 1612TIP3   OH229030   6.707   1.253   6.714 -0.3285  0.6754 -0.3649
 1612TIP3    H129031   6.713   1.342   6.680  1.3322 -0.2588 -2.7883
 1612TIP3    H229032   6.797   1.222   6.717 -0.6275 -0.2561  2.6543
 1613TIP3   OH229033   7.223   7.112   0.874  0.4201  0.0843  0.1104
 1613TIP3    H129034   7.157   7.109   0.805 -1.5595 -0.7882  1.9106
 1613TIP3    H229035   7.286   7.044   0.851 -0.5815 -0.6685 -0.4986
 1614TIP3   OH229036   4.570   2.207   1.812  0.6239 -0.0230  0.1860
 1614TIP3    H129037   4.475   2.219   1.813  0.7746  1.3131  0.2462
 1614TIP3    H229038   4.604   2.282   1.764  1.7699  0.5935  1.8483
 1615TIP3   OH229039   5.142   3.026   7.091  0.8772  0.1979  0.5296
 1615TIP3    H129040   5.162   2.950   7.037  0.3327 -0.5801  1.3803
 1615TIP3    H229041   5.128   3.097   7.029  1.0865 -0.4728 -0.3017
 1616TIP3   OH229042   1.330   3.885   2.864  0.6708  0.4492  0.0534
 1616TIP3    H129043   1.418   3.894   2.827  1.6042 -1.0225  1.7482
 1616TIP3    H229044   1.306   3.794   2.846 -0.2511  0.6641  0.1526
 1617TIP3   OH229045   1.807   4.574   6.728 -0.4583 -0.5671  0.2052
 1617TIP3    H129046   1.884   4.531   6.765  0.0854 -0.9829 -1.3334
 1617TIP3    H229047   1.779   4.516   6.657 -2.1421 -0.3714  0.6540
 1618TIP3   OH229048   2.901   2.715   9.126 -0.0460  0.0224 -0.1346
 1618TIP3    H129049   2.974   2.715   9.065 -1.0880 -1.1330 -1.4480
 1618TIP3    H229050   2.830   2.758   9.079 -0.2885  0.9760  1.0509
 1619TIP3   OH229051   0.002   1.408   0.071  0.3138 -0.1443  0.1218
 1619TIP3    H129052   0.088   1.373   0.047  1.2909  0.6369  2.1833
 1619TIP3    H229053   0.017   1.450   0.156 -1.5286  2.3003 -0.6503
 1620TIP3   OH229054   6.665   1.379   6.957 -0.4017  0.0166  0.2039
 1620TIP3    H129055   6.754   1.348   6.976  0.5187  2.0725 -0.4630
 1620TIP3    H229056   6.635   1.324   6.885 -0.1966 -1.5411  1.2652
 1621TIP3   OH229057   4.609   1.792   0.975  0.4341  0.1935 -0.0882
 1621TIP3    H129058   4.563   1.875   0.980  1.4345  0.7185  0.7186
 1621TIP3    H229059   4.643   1.788   0.885  2.7701  2.0154  0.6031
 1622TIP3   OH229060   0.570   2.152   0.825  0.4475 -0.3486 -0.1721
 1622TIP3    H129061   0.663   2.143   0.846  0.9278  1.7365 -1.2155
 1622TIP3    H229062   0.534   2.208   0.894  0.1671 -0.3305 -0.3289
 1623TIP3   OH229063   2.469   6.557   2.034  0.0936  0.1638  0.1553
 1623TIP3    H129064   2.520   6.503   1.973  2.4400 -0.2534  2.3003
 1623TIP3    H229065   2.536   6.604   2.085 -1.6290 -0.7791  3.4954
 1624TIP3   OH229066   4.102   2.059   3.158  0.4425  0.6383  0.5805
 1624TIP3    H129067   4.153   2.018   3.228 -0.4177  0.3780  1.0716
 1624TIP3    H229068   4.158   2.130   3.126  0.8730  0.7244  1.4916
 1625TIP3   OH229069   1.763   7.124   9.336  0.2775 -0.3546 -0.2739
 1625TIP3    H129070   1.728   7.096   9.420 -1.1842 -0.7495 -0.9807
 1625TIP3    H229071   1.717   7.071   9.271 -1.9151  2.8717 -1.6271
 1626TIP3   OH229072   2.298   3.570   9.281 -0.0337 -0.2519 -0.2200
 1626TIP3    H129073   2.224   3.597   9.335 -0.0101 -0.6752  0.0356
 1626TIP3    H229074   2.360   3.533   9.344  0.7804  0.9013 -0.3157
 1627TIP3   OH229075   5.657   2.328   8.068  0.4519  0.2336  0.4224
 1627TIP3    H129076   5.663   2.240   8.105  0.8777 -0.1619 -0.5660
 1627TIP3    H229077   5.650   2.315   7.974 -2.3554  1.1612  0.3963
 1628TIP3   OH229078   2.754   0.590   7.013 -0.3615 -0.3584  0.0585
 1628TIP3    H129079   2.808   0.554   6.943 -1.3919 -0.3658 -0.7574
 1628TIP3    H229080   2.750   0.520   7.078  0.3709 -0.4595  0.0096
 1629TIP3   OH229081   1.705   5.768   8.592 -0.2933 -0.7236 -0.4020
 1629TIP3    H129082   1.643   5.778   8.664 -0.3034  0.7401 -0.5958
 1629TIP3    H229083   1.695   5.676   8.565 -1.9205 -0.6879 -0.0381
 1630TIP3   OH229084   6.425   6.641   0.700  0.1501  0.4066  0.5249
 1630TIP3    H129085   6.358   6.709   0.694 -1.8933 -1.5701 -0.4251
 1630TIP3    H229086   6.457   6.630   0.611 -0.6363 -0.8315  0.3561
 1631TIP3   OH229087   1.313   0.696   8.461  0.4091  0.0550 -0.1542
 1631TIP3    H129088   1.258   0.721   8.535  0.9161  0.0973  0.2177
 1631TIP3    H229089   1.372   0.770   8.449 -0.8002  0.8182 -1.7393
 1632TIP3   OH229090   3.354   5.315   1.408 -0.0061 -0.6925 -0.6403
 1632TIP3    H129091   3.286   5.249   1.422 -1.2190  0.1344 -2.2503
 1632TIP3    H229092   3.351   5.332   1.313  0.1845  1.7427 -0.2668
 1633TIP3   OH229093   6.312   3.856   8.304 -0.0055  0.6237  0.7886
 1633TIP3    H129094   6.343   3.859   8.394  1.6376  0.7326  0.2470
 1633TIP3    H229095   6.376   3.801   8.258 -0.0440  1.6764 -0.5880
 1634TIP3   OH229096   2.015   3.891   1.331  0.1253  0.3656  0.1692
 1634TIP3    H129097   1.954   3.862   1.263  0.0105  1.8010 -0.3802
 1634TIP3    H229098   2.101   3.866   1.298 -0.0091  0.1872 -0.0491
 1635TIP3   OH229099   2.360   2.904   0.166  0.2291 -0.0529  0.4128
 1635TIP3    H129100   2.439   2.919   0.218  0.7301 -1.5226  0.1310
 1635TIP3    H229101   2.341   2.989   0.126  1.4475  0.4159  0.7817
 1636TIP3   OH229102   3.721   6.706   7.879 -0.2639 -0.4391  0.0279
 1636TIP3    H129103   3.683   6.736   7.962 -0.5048 -1.6262  0.3604
 1636TIP3    H229104   3.706   6.779   7.819 -2.8711 -0.7084  0.2133
 1637TIP3   OH229105   0.404   6.491   1.567  0.2992 -0.3557 -0.6695
 1637TIP3    H129106   0.336   6.547   1.529  1.4539  2.3899  1.0024
 1637TIP3    H229107   0.471   6.486   1.499  0.2264  0.4545 -0.8141
 1638TIP3   OH229108   1.775   0.932   9.069 -0.1915 -0.2241 -0.1538
 1638TIP3    H129109   1.755   0.839   9.077  0.8629 -0.3865  0.7779
 1638TIP3    H229110   1.720   0.974   9.135 -0.4519 -0.2082 -0.3773
 1639TIP3   OH229111   2.460   3.127   2.674 -0.4115 -0.1443  0.3108
 1639TIP3    H129112   2.445   3.041   2.712 -1.8563  0.0315  0.2204
 1639TIP3    H229113   2.529   3.166   2.727  1.0374 -1.7552 -0.3295
 1640TIP3   OH229114   7.398   4.152   8.213  0.8542 -0.0209  0.4748
 1640TIP3    H129115   7.437   4.188   8.292 -0.2244  1.2547  0.4461
 1640TIP3    H229116   7.304   4.144   8.233  0.5526  0.3990 -0.6882
 1641TIP3   OH229117   6.555   1.219   1.838  0.0298 -0.5417 -0.3975
 1641TIP3    H129118   6.564   1.159   1.912  0.7796  1.9746  1.7161
 1641TIP3    H229119   6.467   1.256   1.848 -0.3708 -1.1018 -1.5994
 1642TIP3   OH229120   4.199   6.816   0.448 -0.0405  0.6449 -0.4363
 1642TIP3    H129121   4.150   6.772   0.378  1.4580 -1.0669 -0.4660
 1642TIP3    H229122   4.166   6.777   0.529  0.3158  0.4673 -0.3753
 1643TIP3   OH229123   0.275   0.909   1.880  0.1180 -0.6031  0.8017
 1643TIP3    H129124   0.185   0.909   1.913 -1.1376  3.2194 -1.8431
 1643TIP3    H229125   0.325   0.960   1.945 -0.1134 -0.9385  1.2469
 1644TIP3   OH229126   7.198   3.952   0.763 -0.4008 -0.1316 -0.3595
 1644TIP3    H129127   7.279   3.992   0.795 -1.3429 -0.4840  2.7503
 1644TIP3    H229128   7.195   3.867   0.806 -2.9307  0.3241  0.4868
 1645TIP3   OH229129   0.314   0.050   2.509 -0.2192 -0.3108 -0.5837
 1645TIP3    H129130   0.400   0.014   2.531 -1.1633 -1.5811  1.2609
 1645TIP3    H229131   0.289   0.005   2.428 -0.0747 -1.5618  0.0577
 1646TIP3   OH229132   0.219   2.048   8.889 -0.0457 -0.3422 -0.2809
 1646TIP3    H129133   0.159   2.074   8.960  0.0473  0.7584 -0.5777
 1646TIP3    H229134   0.167   2.060   8.809  0.2484 -0.3602 -0.4758
 1647TIP3   OH229135   6.225   2.614   8.631  0.5799 -0.0625  0.1345
 1647TIP3    H129136   6.245   2.708   8.634  1.2174 -0.1811  3.4812
 1647TIP3    H229137   6.129   2.610   8.632  0.4969  0.4882 -1.7619
 1648TIP3   OH229138   5.754   2.763   9.387 -0.2051 -0.1445 -0.0938
 1648TIP3    H129139   5.767   2.838   9.445  0.1098 -0.5809  0.4108
 1648TIP3    H229140   5.692   2.794   9.320  1.0501  1.0364 -0.7648
 1649TIP3   OH229141   0.384   6.616   0.005  0.0324 -0.0177 -0.2220
 1649TIP3    H129142   0.367   6.690   0.063  0.1842  0.6834 -1.0526
 1649TIP3    H229143   0.338   6.542   0.046 -1.1338  0.7998 -0.0125
 1650TIP3   OH229144   7.660   5.085   7.115 -0.0646  0.0799  0.1197
 1650TIP3    H129145   7.647   4.991   7.118  1.6395 -0.2355 -1.0260
 1650TIP3    H229146   7.594   5.117   7.054  1.7555 -0.9438 -2.5585
 1651TIP3   OH229147   5.117   3.331   8.570 -0.1754 -0.2760 -0.2766
 1651TIP3    H129148   5.145   3.321   8.479 -0.3320  2.4124 -0.7098
 1651TIP3    H229149   5.175   3.397   8.606 -0.8503 -0.4720  1.2460
 1652TIP3   OH229150   6.270   2.466   9.486 -0.0285  0.0136  0.0852
 1652TIP3    H129151   6.232   2.554   9.498  2.1644  0.8640  1.4504
 1652TIP3    H229152   6.301   2.441   9.573  1.2539 -1.1997 -0.6726
 1653TIP3   OH229153   2.369   3.401   0.982 -0.3814 -0.0809  0.7488
 1653TIP3    H129154   2.438   3.391   1.048  0.4885  1.1882  0.0854
 1653TIP3    H229155   2.294   3.356   1.018  0.9744 -2.0656  1.2346
 1654TIP3   OH229156   5.464   0.730   9.332 -0.2392 -0.4468  0.0875
 1654TIP3    H129157   5.553   0.702   9.356 -0.5307 -0.2769  1.4395
 1654TIP3    H229158   5.478   0.801   9.269  0.5779 -0.5147  0.1716
 1655TIP3   OH229159   0.301   3.436   8.845  0.4138  0.2665 -0.5804
 1655TIP3    H129160   0.386   3.479   8.860 -0.2213  1.4615 -0.2961
 1655TIP3    H229161   0.254   3.495   8.786 -0.6128  0.1369  0.0863
 1656TIP3   OH229162   4.926   3.458   6.500 -0.2274 -0.2821  0.3815
 1656TIP3    H129163   4.863   3.402   6.545 -0.8940  0.6429  0.6427
 1656TIP3    H229164   4.897   3.458   6.408 -0.8128  0.3961  0.5600
 1657TIP3   OH229165   0.839   7.039   1.820  0.7730 -0.2906  0.9066
 1657TIP3    H129166   0.758   7.044   1.870  0.9339 -0.3498  1.1813
 1657TIP3    H229167   0.817   7.074   1.734  0.2774 -0.9841  0.7437
 1658TIP3   OH229168   6.203   5.608   8.235  1.1523  0.4660  0.1090
 1658TIP3    H129169   6.253   5.687   8.214  1.1651  0.7798  1.2211
 1658TIP3    H229170   6.199   5.559   8.153  2.1975  1.0416 -0.3042
 1659TIP3   OH229171   3.723   4.208   9.150  0.5336  0.2798  0.0372
 1659TIP3    H129172   3.769   4.125   9.158  0.4579  0.3682  1.5056
 1659TIP3    H229173   3.640   4.194   9.196 -0.2832  0.6017 -1.2806
 1660TIP3   OH229174   1.295   1.152   2.578 -0.8883  0.0332 -0.1526
 1660TIP3    H129175   1.263   1.131   2.665 -1.7359  0.1540 -0.4145
 1660TIP3    H229176   1.326   1.242   2.585 -1.7356  0.3409 -0.1570
 1661TIP3   OH229177   0.937   3.273   9.968  0.1326 -0.4631 -0.4698
 1661TIP3    H129178   0.923   3.341  10.033 -0.2678  0.1916 -1.2229
 1661TIP3    H229179   1.023   3.237   9.988  0.5662  0.6112 -0.3657
 1662TIP3   OH229180   4.733   5.625   7.614  0.2813  0.3299 -0.5019
 1662TIP3    H129181   4.798   5.583   7.671  0.0399  1.0618  0.3476
 1662TIP3    H229182   4.774   5.627   7.528  0.5946 -0.9561 -0.3967
 1663TIP3   OH229183   0.048   5.471   9.433 -0.0647  0.3051  0.4357
 1663TIP3    H129184   0.049   5.378   9.457  1.2105  0.0736 -0.4642
 1663TIP3    H229185  -0.042   5.487   9.404 -0.2466 -0.7007  0.4165
 1664TIP3   OH229186   7.391   1.745   2.269  0.2297 -0.7104  0.4026
 1664TIP3    H129187   7.475   1.783   2.243  0.0015 -0.0625  0.6009
 1664TIP3    H229188   7.369   1.790   2.350 -0.8185 -0.1266 -0.1929
 1665TIP3   OH229189   7.186   4.789   9.942  0.0598  0.8769 -0.0756
 1665TIP3    H129190   7.270   4.748   9.959 -1.1566 -1.8360 -0.0230
 1665TIP3    H229191   7.206   4.864   9.885  2.4358  0.0918 -0.3729
 1666TIP3   OH229192   6.972   2.253   7.195  0.2918  0.4305 -0.1905
 1666TIP3    H129193   6.956   2.299   7.277 -0.0375  1.3881 -0.7825
 1666TIP3    H229194   6.888   2.257   7.148  0.9397  1.4365 -1.3265
 1667TIP3   OH229195   1.710   1.252   8.864  0.2616 -0.3199  0.4916
 1667TIP3    H129196   1.658   1.177   8.891 -0.2505 -0.5498 -1.0473
 1667TIP3    H229197   1.800   1.221   8.864  0.1302 -0.6982  0.6374
 1668TIP3   OH229198   2.881   7.514   0.064  0.3308  0.0795 -0.2220
 1668TIP3    H129199   2.861   7.547  -0.024 -1.3476 -1.7252 -0.5919
 1668TIP3    H229200   2.965   7.470   0.055 -1.2490 -2.9103 -1.8390
 1669TIP3   OH229201   7.483   4.404   9.172  0.1234  0.8025  0.5798
 1669TIP3    H129202   7.397   4.440   9.150  0.8082  2.2456  0.1268
 1669TIP3    H229203   7.494   4.329   9.114 -1.6476 -0.6849  2.0471
 1670TIP3   OH229204   2.207   5.405   8.415 -0.0291  0.0002 -0.2125
 1670TIP3    H129205   2.191   5.497   8.397 -1.2731 -0.1673 -0.0208
 1670TIP3    H229206   2.160   5.358   8.346  0.1357 -0.5017  0.0092
 1671TIP3   OH229207   6.281   6.611   8.578  0.0117 -0.0706 -0.2153
 1671TIP3    H129208   6.204   6.616   8.635 -1.8110  1.8954 -2.6072
 1671TIP3    H229209   6.346   6.666   8.621 -1.0579  0.7646  0.4003
 1672TIP3   OH229210   1.364   0.792   2.176  0.0816 -0.4602 -0.1203
 1672TIP3    H129211   1.389   0.733   2.105  1.2483 -0.2924  0.1214
 1672TIP3    H229212   1.427   0.864   2.170 -2.4279  1.7916 -1.5858
 1673TIP3   OH229213   3.298   5.594   2.401 -0.0629  0.3905  0.3126
 1673TIP3    H129214   3.220   5.646   2.421 -0.9210 -0.1065 -1.5145
 1673TIP3    H229215   3.332   5.568   2.486 -1.0359  1.8560  1.1974
 1674TIP3   OH229216   3.845   6.863   1.363 -0.0107  0.2803 -0.2706
 1674TIP3    H129217   3.823   6.942   1.313 -0.7565  0.0582 -0.2945
 1674TIP3    H229218   3.895   6.896   1.438  0.8612  0.6477 -0.9829
 1675TIP3   OH229219   1.841   3.143   0.806  0.2258 -0.1865  0.0860
 1675TIP3    H129220   1.752   3.157   0.772 -0.7193  0.4032  2.5625
 1675TIP3    H229221   1.893   3.122   0.729 -1.6194  1.5391 -1.7661
 1676TIP3   OH229222   5.542   3.102   8.902 -0.5077 -0.3740  0.5199
 1676TIP3    H129223   5.532   3.196   8.917  0.5893 -0.3609  1.2700
 1676TIP3    H229224   5.606   3.096   8.831 -1.7353 -0.5552 -0.6315
 1677TIP3   OH229225   6.911   4.514   7.317 -0.1809  0.0630  0.2909
 1677TIP3    H129226   6.966   4.481   7.246 -1.0479 -0.0935 -0.3226
 1677TIP3    H229227   6.934   4.461   7.393  0.5718  0.0637  0.0658
 1678TIP3   OH229228   1.262   7.050   9.980  0.4556 -0.1678  0.2516
 1678TIP3    H129229   1.228   7.117   9.921 -0.8081  0.6417  1.8187
 1678TIP3    H229230   1.345   7.023   9.941  0.3066  1.2851 -1.1592
 1679TIP3   OH229231   0.792   2.583   0.621 -0.1699  0.1538 -0.6941
 1679TIP3    H129232   0.856   2.538   0.676 -1.4312 -1.0764 -0.1749
 1679TIP3    H229233   0.710   2.577   0.669 -1.0544  0.1011 -2.1448
 1680TIP3   OH229234   0.493   1.750   7.214 -0.3380 -0.3344  0.3844
 1680TIP3    H129235   0.470   1.779   7.302 -1.4142 -1.4951  0.5122
 1680TIP3    H229236   0.520   1.659   7.224 -2.5147 -1.1654 -0.7320
 1681TIP3   OH229237   4.868   0.176   0.980  0.5016 -0.1864  0.1016
 1681TIP3    H129238   4.805   0.121   0.932  0.9117 -1.2314  0.7244
 1681TIP3    H229239   4.892   0.244   0.917 -0.7879 -0.1199 -0.3506
 1682TIP3   OH229240   1.705   7.671   2.716  0.5164 -0.5004 -0.2626
 1682TIP3    H129241   1.610   7.660   2.721  0.4614  0.2865  0.6794
 1682TIP3    H229242   1.735   7.666   2.806  1.6422 -2.6949 -0.6724
 1683TIP3   OH229243   5.426   2.553   7.423  0.0862 -0.1053 -0.2494
 1683TIP3    H129244   5.418   2.535   7.517 -0.4701 -1.5852 -0.5491
 1683TIP3    H229245   5.339   2.535   7.388  0.6473 -1.0148 -1.2486
 1684TIP3   OH229246   6.953   7.360   9.226  0.4841 -0.7566 -0.4709
 1684TIP3    H129247   6.886   7.383   9.161  1.5460 -0.9767 -1.6900
 1684TIP3    H229248   6.923   7.401   9.307  0.2456  1.5000 -1.6083
 1685TIP3   OH229249   0.167   2.647   8.314 -0.3506  0.2671 -0.0835
 1685TIP3    H129250   0.094   2.703   8.288  1.0032  1.7137 -0.9264
 1685TIP3    H229251   0.245   2.702   8.303  1.0249 -1.6801 -0.6090
 1686TIP3   OH229252   1.128   2.405   7.183  0.1415 -0.3299 -0.2552
 1686TIP3    H129253   1.203   2.409   7.124 -0.9660  0.0133 -1.6739
 1686TIP3    H229254   1.052   2.394   7.126 -0.8771 -0.9687  1.1676
 1687TIP3   OH229255   4.564   4.809   9.142 -0.2348 -0.0710  0.0388
 1687TIP3    H129256   4.607   4.888   9.108 -1.7680  0.8011  0.0484
 1687TIP3    H229257   4.611   4.736   9.100  0.4894  0.8732 -0.8395
 1688TIP3   OH229258   3.886   2.571   8.857 -0.1159 -0.6353  0.4025
 1688TIP3    H129259   3.895   2.576   8.952  0.8464 -0.7565  0.3353
 1688TIP3    H229260   3.795   2.595   8.839 -0.6331 -1.7509  1.4357
 1689TIP3   OH229261   3.072   0.467   0.690  0.4974  0.0467  0.5651
 1689TIP3    H129262   3.110   0.410   0.623 -0.2159 -0.7762  0.8464
 1689TIP3    H229263   3.113   0.438   0.771 -1.2750 -1.4329  1.0084
 1690TIP3   OH229264   5.789   7.466   1.147  0.3785  0.2839 -0.0862
 1690TIP3    H129265   5.790   7.448   1.241 -0.1192 -1.0465 -0.3094
 1690TIP3    H229266   5.718   7.529   1.135 -0.4453 -0.5463  0.2878
 1691TIP3   OH229267   0.856   4.547   2.918 -0.3947 -0.2008 -0.3423
 1691TIP3    H129268   0.763   4.566   2.926 -0.2849 -0.1592  1.0762
 1691TIP3    H229269   0.867   4.461   2.959  0.0590 -0.6396 -1.3345
 1692TIP3   OH229270   4.030   7.240   9.385  0.1641  0.3840  0.2309
 1692TIP3    H129271   4.055   7.150   9.409 -2.1011  0.1199  1.9308
 1692TIP3    H229272   3.955   7.229   9.326  1.4309  1.1846 -1.6193
 1693TIP3   OH229273   6.099   0.223   9.588  0.5677  1.0910 -0.1403
 1693TIP3    H129274   6.117   0.237   9.495 -0.8722 -0.4170 -0.7059
 1693TIP3    H229275   6.164   0.158   9.616  0.6135  1.0863 -0.2590
 1694TIP3   OH229276   4.636   0.915   9.554 -0.1261  0.2091  0.4292
 1694TIP3    H129277   4.640   0.853   9.482 -1.6937 -0.9411  1.2726
 1694TIP3    H229278   4.543   0.932   9.566  0.0005 -0.3618  2.7523
 1695TIP3   OH229279   4.337   2.030   9.584  0.1035  0.1999 -0.1708
 1695TIP3    H129280   4.270   2.096   9.606  0.1553  0.4510 -0.7428
 1695TIP3    H229281   4.399   2.034   9.656 -0.3176  0.2040  0.2018
 1696TIP3   OH229282   1.472   2.642   8.338 -0.4444  0.0647 -0.3697
 1696TIP3    H129283   1.443   2.552   8.322 -0.2987  0.1200 -0.9481
 1696TIP3    H229284   1.541   2.657   8.274  1.1334 -0.1776  1.1918
 1697TIP3   OH229285   6.280   6.236   9.388 -0.1149  0.7424  0.0044
 1697TIP3    H129286   6.196   6.271   9.417 -0.2101 -0.5035  1.3057
 1697TIP3    H229287   6.260   6.189   9.307 -1.0147 -0.9405  1.1558
 1698TIP3   OH229288   3.773   0.711   2.277 -0.3193  0.3256  0.0476
 1698TIP3    H129289   3.831   0.737   2.348 -1.4276  1.4187  0.5990
 1698TIP3    H229290   3.812   0.749   2.199 -0.7982  1.9856  0.5619
 1699TIP3   OH229291   0.875   0.236   1.334  0.0119  0.0009  1.0112
 1699TIP3    H129292   0.842   0.172   1.397  0.6371 -0.2254  1.1142
 1699TIP3    H229293   0.915   0.183   1.265 -2.9650  0.1046 -0.9645
 1700TIP3   OH229294   1.519   0.301   0.833 -0.1826  0.4923  0.3302
 1700TIP3    H129295   1.580   0.244   0.787  0.0736  0.8341  0.2437
 1700TIP3    H229296   1.568   0.382   0.848 -0.3849  0.5229  0.8712
 1701TIP3   OH229297   4.337   1.355   0.233 -0.0073 -0.1159  0.1907
 1701TIP3    H129298   4.309   1.274   0.275 -1.3114  0.9913  1.5955
 1701TIP3    H229299   4.274   1.421   0.263  2.8999  2.1570  1.8484
 1702TIP3   OH229300   5.811   3.883   9.191 -0.1543 -0.8302  0.0616
 1702TIP3    H129301   5.784   3.909   9.103 -0.9757  1.0157  0.8126
 1702TIP3    H229302   5.731   3.882   9.242  0.4777 -0.6149  1.0918
 1703TIP3   OH229303   4.639   7.146   1.108 -0.1493 -0.2930  0.0762
 1703TIP3    H129304   4.609   7.237   1.100  0.4733 -0.0671  0.2164
 1703TIP3    H229305   4.707   7.138   1.041 -1.4057 -1.1882 -1.1531
 1704TIP3   OH229306   2.811   0.169   0.645 -0.1613  0.1450 -0.0988
 1704TIP3    H129307   2.858   0.119   0.713  1.2398  0.0968 -1.0620
 1704TIP3    H229308   2.780   0.102   0.584  1.2824  0.3674 -1.1239
 1705TIP3   OH229309   2.036   6.722   0.139  0.3893  0.3590 -0.2551
 1705TIP3    H129310   2.103   6.781   0.174  1.2913  0.2006 -1.6069
 1705TIP3    H229311   2.066   6.703   0.050 -0.6771 -0.9417 -0.3674
 1706TIP3   OH229312   0.339   5.832   8.359 -0.5883  0.6538  0.1943
 1706TIP3    H129313   0.381   5.751   8.330  1.5617  1.5829  0.5299
 1706TIP3    H229314   0.254   5.804   8.393 -1.7529 -0.9255 -3.4995
 1707TIP3   OH229315   2.222   2.662   9.610  0.1836  0.1004 -0.1133
 1707TIP3    H129316   2.299   2.609   9.631 -1.6579 -2.2176  1.1747
 1707TIP3    H229317   2.214   2.722   9.684  0.0822 -0.4615  0.3385
 1708TIP3   OH229318   7.586   7.555   9.649  0.1737 -0.1089  0.2383
 1708TIP3    H129319   7.655   7.498   9.683  2.8463  0.7580 -3.1700
 1708TIP3    H229320   7.592   7.634   9.703 -0.2970 -1.1713  1.9161
 1709TIP3   OH229321   4.316   5.103   8.270  0.3935  0.3776 -0.3226
 1709TIP3    H129322   4.316   5.198   8.263  1.6678  0.4768  0.8840
 1709TIP3    H229323   4.223   5.079   8.265  0.1603  1.5040 -2.4689
 1710TIP3   OH229324   5.123   6.604   1.575 -0.2277 -0.4802  0.0107
 1710TIP3    H129325   5.096   6.610   1.667 -1.3101  1.2702 -0.3695
 1710TIP3    H229326   5.193   6.668   1.566  1.3622 -2.1320  0.0442
 1711TIP3   OH229327   0.951   5.839   9.586 -0.2766  0.4614 -0.1620
 1711TIP3    H129328   0.983   5.774   9.524 -1.4812 -3.1798  2.6602
 1711TIP3    H229329   1.030   5.880   9.621  0.5961 -0.2103 -1.2740
 1712TIP3   OH229330   1.791   1.034   7.690 -0.2626 -0.1706 -0.2603
 1712TIP3    H129331   1.723   1.066   7.749  1.5675  1.7187  0.9783
 1712TIP3    H229332   1.863   1.008   7.747  0.8800 -0.0084 -1.5659
 1713TIP3   OH229333   2.477   3.352   8.402  0.8091  0.2305 -0.3538
 1713TIP3    H129334   2.430   3.284   8.450  0.3277  0.7688 -0.0508
 1713TIP3    H229335   2.570   3.327   8.409  0.7392  0.2216  0.7389
 1714TIP3   OH229336   2.206   3.530   2.377  0.6922 -0.7069 -0.2642
 1714TIP3    H129337   2.213   3.580   2.296 -0.1125  2.6842  1.5750
 1714TIP3    H229338   2.295   3.530   2.413  0.3013  1.9241  0.9674
 1715TIP3   OH229339   2.402   7.296   2.195  0.0862  0.0377  0.0885
 1715TIP3    H129340   2.315   7.258   2.185 -0.0312 -0.1045  1.5114
 1715TIP3    H229341   2.450   7.266   2.117 -0.9831 -0.2577 -0.4770
 1716TIP3   OH229342   5.017   2.697   9.196  0.4075 -0.2360 -0.3927
 1716TIP3    H129343   4.989   2.607   9.215  1.2143 -0.2350  0.8854
 1716TIP3    H229344   4.938   2.750   9.211  0.4515 -0.5048  0.8492
 1717TIP3   OH229345   0.542   0.507   8.566  0.0284  0.8516  0.4373
 1717TIP3    H129346   0.590   0.586   8.541 -1.1143  1.6304  0.6429
 1717TIP3    H229347   0.461   0.511   8.515  1.1833 -1.7336 -1.8349
 1718TIP3   OH229348   5.431   0.089   1.516  0.5934 -0.2092  0.1421
 1718TIP3    H129349   5.413   0.182   1.533 -0.0061 -0.5108  1.2231
 1718TIP3    H229350   5.349   0.044   1.538  1.5711 -1.2411  1.9166
 1719TIP3   OH229351   3.796   2.438   0.088 -0.4439  0.1554  0.1502
 1719TIP3    H129352   3.787   2.526   0.125  2.2344  1.8854 -2.7870
 1719TIP3    H229353   3.808   2.382   0.163  0.8984  2.8059  2.0765
 1720TIP3   OH229354   2.131   0.082   0.918 -0.3268 -1.2010  0.1567
 1720TIP3    H129355   2.152   0.172   0.942 -1.8228 -0.8095  0.1347
 1720TIP3    H229356   2.155   0.075   0.826  0.8365 -1.1825  0.4518
 1721TIP3   OH229357   3.388   0.242   1.422 -0.6994 -0.1329 -0.0371
 1721TIP3    H129358   3.355   0.155   1.444 -0.6513 -0.4272 -1.0915
 1721TIP3    H229359   3.478   0.242   1.454 -0.7289 -0.4405  0.0516
 1722TIP3   OH229360   3.636   7.197   2.088 -0.2700  0.7553 -0.2393
 1722TIP3    H129361   3.603   7.191   2.177  0.6959 -0.3038  0.0671
 1722TIP3    H229362   3.635   7.291   2.068 -1.8556  0.8995  0.3381
 1723TIP3   OH229363   4.252   4.799   8.533  0.4167  0.1564  0.2417
 1723TIP3    H129364   4.332   4.851   8.521  0.6433 -0.3604 -0.5422
 1723TIP3    H229365   4.255   4.772   8.625  0.8380  0.6373  0.3749
 1724TIP3   OH229366   5.092   5.800   7.118 -0.0092  0.1331 -0.1147
 1724TIP3    H129367   5.008   5.805   7.072 -0.2033  1.1328  0.3173
 1724TIP3    H229368   5.158   5.810   7.049 -0.2408 -0.3798 -0.4189
 1725TIP3   OH229369   6.423   2.303   0.280  0.2372 -0.8469  0.0935
 1725TIP3    H129370   6.456   2.246   0.211  2.5910  0.3872  0.0869
 1725TIP3    H229371   6.345   2.344   0.243  1.3730 -0.2872 -1.8450
 1726TIP3   OH229372   0.454   5.687   2.013 -0.3126 -0.1405 -0.0877
 1726TIP3    H129373   0.500   5.634   1.949 -0.8022 -0.2863 -0.3234
 1726TIP3    H229374   0.499   5.670   2.096 -0.6254 -1.1176 -0.1118
 1727TIP3   OH229375   7.032   6.885   7.820  0.6622  0.0530 -0.5570
 1727TIP3    H129376   7.117   6.909   7.782  0.0375  0.8558 -1.4723
 1727TIP3    H229377   7.030   6.789   7.816  1.9367 -0.0439  0.4015
 1728TIP3   OH229378   4.286   6.562   0.067 -0.1318 -0.0029  0.5330
 1728TIP3    H129379   4.345   6.486   0.057 -0.3323 -0.4786  2.4651
 1728TIP3    H229380   4.216   6.530   0.124 -0.9613  1.2581  0.2474
 1729TIP3   OH229381   6.279   2.261   1.295  0.0715 -0.0810 -0.1188
 1729TIP3    H129382   6.202   2.289   1.246  0.5486 -0.8111 -1.3374
 1729TIP3    H229383   6.333   2.340   1.301 -0.6244  0.3640  0.4979
 1730TIP3   OH229384   3.733   6.681   0.292  0.1686  0.9455  0.6837
 1730TIP3    H129385   3.676   6.623   0.241  2.2126 -1.4669  0.9711
 1730TIP3    H229386   3.681   6.703   0.369 -1.5960  1.6525 -0.6377
 1731TIP3   OH229387   3.302   4.111   9.009  0.0355 -0.5916 -0.1816
 1731TIP3    H129388   3.255   4.061   8.941 -0.1278 -0.2422 -0.3268
 1731TIP3    H229389   3.264   4.081   9.091 -1.4522  0.7163 -0.3612
 1732TIP3   OH229390   6.444   3.959   8.821  0.7104  0.5267  0.0484
 1732TIP3    H129391   6.506   3.917   8.881  0.9271  1.0500  0.1888
 1732TIP3    H229392   6.471   4.050   8.818 -1.2216  1.2289  1.6460
 1733TIP3   OH229393   3.942   1.284   2.248 -0.2250  0.1329  0.2442
 1733TIP3    H129394   3.869   1.230   2.277 -0.2247  0.6024  1.1614
 1733TIP3    H229395   3.934   1.287   2.153 -1.5946  0.4690  0.3569
 1734TIP3   OH229396   5.167   0.055   1.565 -0.2135  0.0202  0.1678
 1734TIP3    H129397   5.096   0.109   1.529  0.7042 -0.2753 -2.3129
 1734TIP3    H229398   5.136  -0.035   1.556 -1.4798 -0.0491  3.7217
 1735TIP3   OH229399   4.274   7.234   9.778  0.5869  1.1635 -0.2687
 1735TIP3    H129400   4.245   7.159   9.829  0.0944  1.6750  0.2068
 1735TIP3    H229401   4.289   7.303   9.842  0.0861  1.7729 -0.7912
 1736TIP3   OH229402   4.032   6.448   9.108 -0.3422 -0.1427  0.1638
 1736TIP3    H129403   3.971   6.377   9.088 -0.9698  0.2756  0.5492
 1736TIP3    H229404   4.082   6.415   9.183 -0.1336 -0.4689 -0.1207
 1737TIP3   OH229405   1.412   4.922   8.589 -0.9364  0.3955 -0.8627
 1737TIP3    H129406   1.344   4.969   8.637  0.8832  1.7604  0.5007
 1737TIP3    H229407   1.489   4.978   8.593  1.3878 -2.6067  0.8070
 1738TIP3   OH229408   5.627   3.451   9.106  0.1439 -0.2204 -0.5557
 1738TIP3    H129409   5.718   3.435   9.130  0.5192 -0.0516 -1.8351
 1738TIP3    H229410   5.582   3.370   9.129  0.7523 -0.5783 -0.6009
 1739TIP3   OH229411   6.159   0.049   1.092  0.1181  0.6189 -0.0052
 1739TIP3    H129412   6.119  -0.033   1.061 -0.2423  0.0183  1.9139
 1739TIP3    H229413   6.104   0.118   1.054 -0.7781 -0.0959 -0.0528
 1740TIP3   OH229414   3.171   7.633   2.405 -0.4414  0.0897  0.1124
 1740TIP3    H129415   3.253   7.586   2.393  0.0526  1.0632 -0.5042
 1740TIP3    H229416   3.112   7.596   2.339 -0.1962  0.0504 -0.0843
 1741TIP3   OH229417   2.602   2.363   7.779 -0.1952  0.4378 -0.7560
 1741TIP3    H129418   2.530   2.411   7.821  0.8430  0.7352  0.7663
 1741TIP3    H229419   2.614   2.286   7.834  1.2637  0.8760 -0.4280
 1742TIP3   OH229420   4.057   7.330   0.934 -0.0325  0.1545  0.2294
 1742TIP3    H129421   3.974   7.321   0.887 -0.5271 -0.7115  1.2320
 1742TIP3    H229422   4.093   7.241   0.938 -0.0015  0.1995  1.4582
 1743TIP3   OH229423   7.024   5.830   9.017 -0.3399 -0.3277 -0.5355
 1743TIP3    H129424   7.116   5.805   9.007 -0.6531 -1.7515 -0.0406
 1743TIP3    H229425   6.997   5.789   9.099 -1.1195  1.0421 -0.0807
 1744TIP3   OH229426   1.454   2.518   1.954 -0.6118  0.0680  0.0044
 1744TIP3    H129427   1.457   2.611   1.976 -2.0021 -0.2362  1.6402
 1744TIP3    H229428   1.545   2.496   1.934 -0.0365  1.4903  0.8795
 1745TIP3   OH229429   3.510   6.950   8.587  0.8093 -0.0824  0.2435
 1745TIP3    H129430   3.438   6.904   8.545 -0.1303 -0.6069  2.2869
 1745TIP3    H229431   3.480   7.040   8.596  0.9108 -0.0263  0.0342
 1746TIP3   OH229432   0.870   3.389   0.994  0.1433  0.6259  0.3565
 1746TIP3    H129433   0.921   3.421   0.919  1.1231  0.5221  0.9669
 1746TIP3    H229434   0.853   3.468   1.046  0.7213  0.4718  0.7740
 1747TIP3   OH229435   0.311   2.288   9.862 -0.0757  0.9184  0.5282
 1747TIP3    H129436   0.327   2.341   9.941  0.3437  0.3973  0.7961
 1747TIP3    H229437   0.262   2.212   9.895 -0.5251  1.0488  0.1710
 1748TIP3   OH229438   3.098   7.166   1.682  0.3093  0.1785  0.6033
 1748TIP3    H129439   3.053   7.247   1.659  0.8279  0.9468  2.1757
 1748TIP3    H229440   3.186   7.175   1.644 -0.3364 -0.7073 -1.2365
 1749TIP3   OH229441   5.114   3.342   9.424  0.8043 -0.0645  0.3125
 1749TIP3    H129442   5.073   3.396   9.491  2.3935  1.0233  0.4431
 1749TIP3    H229443   5.101   3.252   9.455 -1.8623  0.1553  0.0906
 1750TIP3   OH229444   6.276   1.853   8.479  0.4993  0.0378 -0.0351
 1750TIP3    H129445   6.209   1.920   8.467 -1.4460 -1.8210  0.0579
 1750TIP3    H229446   6.356   1.894   8.446 -0.5192  2.5205  0.3452
 1751TIP3   OH229447   2.496   1.489   8.910 -0.0373  0.0354  0.1264
 1751TIP3    H129448   2.457   1.521   8.991  1.1564 -0.0062  0.7274
 1751TIP3    H229449   2.514   1.397   8.927  0.2188  0.0263 -0.1888
 1752TIP3   OH229450   7.126   1.079   9.787  0.2911  0.0185 -0.0551
 1752TIP3    H129451   7.067   1.030   9.731 -0.5565 -0.3375  1.1015
 1752TIP3    H229452   7.110   1.045   9.875  0.7637  1.3140  0.5725
 1753TIP3   OH229453   1.907   4.885   2.318 -0.5422 -0.0216 -0.1894
 1753TIP3    H129454   1.865   4.799   2.320 -2.8008  0.8913 -2.2898
 1753TIP3    H229455   1.927   4.900   2.226 -0.4246  1.7705  0.0853
 1754TIP3   OH229456   2.730   2.928   9.412 -0.1054 -0.1189  0.4842
 1754TIP3    H129457   2.686   2.845   9.432  0.3893 -0.5276 -0.0986
 1754TIP3    H229458   2.697   2.953   9.325  1.1382 -0.6720 -0.1774
 1755TIP3   OH229459   2.653   5.413   8.920 -0.4129 -0.1964 -0.2708
 1755TIP3    H129460   2.676   5.320   8.930 -0.3799 -0.1596 -0.0156
 1755TIP3    H229461   2.673   5.432   8.828  1.6277  0.1006  0.1744
 1756TIP3   OH229462   2.152   5.563   0.623  0.2121  0.8821 -0.1968
 1756TIP3    H129463   2.120   5.576   0.534  0.8828 -0.8748 -0.7374
 1756TIP3    H229464   2.141   5.469   0.639  0.0976  1.1559  1.5887
 1757TIP3   OH229465   1.825   1.533   8.720 -0.1950  0.1088  0.1170
 1757TIP3    H129466   1.750   1.504   8.773 -0.8806 -0.1350 -0.9695
 1757TIP3    H229467   1.889   1.563   8.785 -1.4630  0.9115  1.0552
 1758TIP3   OH229468   4.240   6.745   9.389 -0.0814  1.0448  0.7334
 1758TIP3    H129469   4.257   6.658   9.425 -0.1037  0.7825  0.1247
 1758TIP3    H229470   4.193   6.729   9.308  0.3776  1.5981  0.3434
 1759TIP3   OH229471   1.777   3.289   1.065 -0.7242 -0.0454 -0.4608
 1759TIP3    H129472   1.813   3.230   0.999  0.7518  0.0955  0.1774
 1759TIP3    H229473   1.834   3.277   1.142 -1.4019  0.9928  0.2290
 1760TIP3   OH229474   4.863   2.302   3.000 -0.3318  0.3853 -0.6223
 1760TIP3    H129475   4.784   2.336   3.043  0.2039  1.7126 -0.6311
 1760TIP3    H229476   4.847   2.208   2.991 -2.6188  0.8321 -2.1168
 1761TIP3   OH229477   3.527   7.241   1.177 -0.5887 -0.3449 -0.0044
 1761TIP3    H129478   3.535   7.149   1.153  0.5792  0.0067 -1.0966
 1761TIP3    H229479   3.555   7.289   1.099 -0.1295  0.9245  0.9030
 1762TIP3   OH229480   4.117   2.467   0.348  0.2550  0.2472  0.5615
 1762TIP3    H129481   4.113   2.383   0.395 -0.8540 -1.2739 -2.0247
 1762TIP3    H229482   4.040   2.515   0.378 -0.1571 -0.4632  0.6647
 1763TIP3   OH229483   5.276   6.851   1.506 -0.2931 -0.5731  0.2280
 1763TIP3    H129484   5.309   6.785   1.445 -0.8540  0.3280 -1.0875
 1763TIP3    H229485   5.331   6.928   1.491 -0.3677 -0.3762  0.9357
 1764TIP3   OH229486   2.186   2.903   2.558  0.0969 -0.4301  0.1220
 1764TIP3    H129487   2.187   2.860   2.643  3.1642  1.0650  0.9633
 1764TIP3    H229488   2.212   2.994   2.577 -0.9399  0.4301 -2.2081
 1765TIP3   OH229489   4.996   5.878   9.444 -0.3359  0.0257 -0.3137
 1765TIP3    H129490   5.054   5.951   9.468 -0.4119 -1.0745  4.0104
 1765TIP3    H229491   4.910   5.919   9.434  0.0150  0.8040 -0.2660
 1766TIP3   OH229492   0.275   4.632   1.681 -0.1685  0.3667 -0.1043
 1766TIP3    H129493   0.332   4.612   1.607 -0.0889  1.3611 -0.3314
 1766TIP3    H229494   0.208   4.564   1.679  1.2687 -1.1637  0.4900
 1767TIP3   OH229495   2.242   1.508   8.759  1.0533  0.2753  0.2796
 1767TIP3    H129496   2.328   1.527   8.795  0.5508  3.0856  0.1822
 1767TIP3    H229497   2.243   1.546   8.671  0.2094 -1.0799 -0.3697
 1768TIP3   OH229498   3.415   5.369   9.955  0.1836  0.2650  0.0687
 1768TIP3    H129499   3.440   5.446  10.006 -0.1696 -1.1790  2.5878
 1768TIP3    H229500   3.320   5.376   9.947  0.0468 -0.2869  1.0386
 1769TIP3   OH229501   0.114   0.629   0.866  0.3044 -0.2046  0.2475
 1769TIP3    H129502   0.096   0.677   0.947 -0.9000  0.6355 -0.4804
 1769TIP3    H229503   0.050   0.663   0.803 -2.2664 -4.3331  0.2334
 1770TIP3   OH229504   3.698   1.178   2.266  0.4850 -0.0079 -0.0217
 1770TIP3    H129505   3.615   1.226   2.267 -0.0345 -0.8447 -1.1925
 1770TIP3    H229506   3.688   1.112   2.334  0.2214 -0.0545 -0.1039
 1771TIP3   OH229507   1.226   7.599   0.754 -0.0598 -0.2855  0.2461
 1771TIP3    H129508   1.143   7.621   0.711  0.0334 -0.7377 -0.1662
 1771TIP3    H229509   1.293   7.638   0.699  0.0037  0.1656  0.6336
 1772TIP3   OH229510   0.998   6.612   0.976 -0.1947  0.3711  0.1035
 1772TIP3    H129511   0.984   6.705   0.963  1.0697  1.0378  2.8170
 1772TIP3    H229512   1.035   6.605   1.064  2.0225 -2.4720 -0.8886
 1773TIP3   OH229513   1.459   2.976   2.826  0.0382  0.0697  0.2383
 1773TIP3    H129514   1.476   3.050   2.884 -1.3768 -0.9889  2.0958
 1773TIP3    H229515   1.516   2.906   2.858  0.3311 -0.1000 -0.6139
 1774TIP3   OH229516   3.124   6.605   9.908  0.2897  0.4691  0.3964
 1774TIP3    H129517   3.081   6.555   9.978  1.0530 -0.2062  0.3982
 1774TIP3    H229518   3.141   6.541   9.840  0.4369  0.9287 -0.0039
 1775TIP3   OH229519   6.560   1.281   0.105 -0.3495  0.3070  0.0318
 1775TIP3    H129520   6.474   1.273   0.147  0.3772  0.0671  1.5484
 1775TIP3    H229521   6.593   1.191   0.100 -0.1939  0.3945 -0.5804
 1776TIP3   OH229522   4.385   7.436   9.993 -0.0746 -0.0448  0.1310
 1776TIP3    H129523   4.463   7.411  10.042 -0.0867  0.9160  0.6570
 1776TIP3    H229524   4.402   7.526   9.964 -1.5382  0.6963  1.4399
 1777TIP3   OH229525   7.054   0.916   7.531 -0.2019  0.1609 -0.6046
 1777TIP3    H129526   7.148   0.916   7.551 -0.5916 -0.9410  1.5886
 1777TIP3    H229527   7.042   0.843   7.470  0.2145 -0.4807  0.0691
 1778TIP3   OH229528   3.930   6.733   9.787  0.0734 -0.0944  0.6354
 1778TIP3    H129529   3.877   6.685   9.724 -0.7688  0.7261  0.6965
 1778TIP3    H229530   3.912   6.825   9.769  1.9889  0.2390  0.2251
 1779TIP3   OH229531   7.382   1.821   1.877  0.1320 -0.4045  0.0790
 1779TIP3    H129532   7.407   1.848   1.789 -0.2515 -0.5482 -0.0777
 1779TIP3    H229533   7.456   1.845   1.932  0.3139 -0.1840 -0.2612
 1780TIP3   OH229534   3.207   6.567   0.493  0.2039  0.0215 -0.3608
 1780TIP3    H129535   3.235   6.576   0.402 -0.3364 -1.9666 -0.7518
 1780TIP3    H229536   3.179   6.477   0.501 -1.1439  0.5500  1.4109
 1781TIP3   OH229537   3.241   0.096   8.681  0.1111  0.0868 -0.1070
 1781TIP3    H129538   3.235   0.190   8.696 -0.0879 -0.0021  0.3862
 1781TIP3    H229539   3.314   0.068   8.736  0.2698 -0.0242 -0.3718
 1782TIP3   OH229540   0.014   4.029   8.332 -0.3290  0.1089  0.3106
 1782TIP3    H129541   0.041   3.950   8.379 -0.6360 -0.6144 -0.7130
 1782TIP3    H229542   0.067   4.029   8.252 -0.0967  1.1200  0.4431
 1783TIP3   OH229543   1.517   7.011   8.488 -0.1126  0.0502  0.0465
 1783TIP3    H129544   1.600   7.000   8.535  0.0453  1.6934  0.1862
 1783TIP3    H229545   1.486   7.098   8.513 -0.4683  0.6166 -2.2109
 1784TIP3   OH229546   3.519   7.611   9.856 -0.1102  0.4153  0.3667
 1784TIP3    H129547   3.590   7.629   9.794 -0.1120 -2.5984 -0.6737
 1784TIP3    H229548   3.562   7.608   9.942  0.8161 -0.0538 -0.0908
 1785TIP3   OH229549   7.543   6.778   1.101 -0.0642 -0.3529 -0.7548
 1785TIP3    H129550   7.472   6.788   1.164  0.1789  0.1539 -0.5637
 1785TIP3    H229551   7.584   6.864   1.096  2.8507 -1.4166  1.8518
 1786TIP3   OH229552   4.852   3.131   8.413 -0.1853 -0.1243 -0.7593
 1786TIP3    H129553   4.788   3.060   8.414  1.1051 -1.4221 -2.4893
 1786TIP3    H229554   4.935   3.088   8.436  0.2847  1.2705  0.2547
 1787TIP3   OH229555   0.778   2.027   0.185 -0.5266 -0.2200  0.4850
 1787TIP3    H129556   0.702   2.049   0.131  1.2163  1.0991 -1.5894
 1787TIP3    H229557   0.786   2.100   0.246 -0.4287  0.0690  0.1296
 1788TIP3   OH229558   2.407   7.675   8.968  0.1905 -0.4194  0.0182
 1788TIP3    H129559   2.382   7.589   9.002  0.1473 -0.1911  0.5821
 1788TIP3    H229560   2.405   7.732   9.045 -1.8859  0.5649 -0.7002
 1789TIP3   OH229561   6.886   1.254   8.069  0.4214 -0.3050  0.4517
 1789TIP3    H129562   6.975   1.267   8.037  0.1031 -1.4271 -0.9919
 1789TIP3    H229563   6.831   1.267   7.992 -0.4474 -2.3122  0.6827
 1790TIP3   OH229564   5.009   5.843   9.726 -0.2731  0.5013  0.0664
 1790TIP3    H129565   4.922   5.813   9.753 -1.3866  2.4580 -1.1130
 1790TIP3    H229566   5.002   5.857   9.632  1.4432  0.4112 -0.1140
 1791TIP3   OH229567   4.764   7.309   8.952  0.4756 -0.3171 -0.4381
 1791TIP3    H129568   4.687   7.366   8.959  2.6675  2.8494 -0.5137
 1791TIP3    H229569   4.786   7.287   9.043 -0.0148 -0.5652 -0.3746
 1792TIP3   OH229570   5.003   1.466   2.198  0.1913  0.0175  0.2592
 1792TIP3    H129571   4.944   1.413   2.145 -1.0019  1.6132 -0.1093
 1792TIP3    H229572   4.950   1.491   2.274  0.7562  0.5755  0.4797
 1793TIP3   OH229573   6.314   0.486   1.299  1.0554  0.3985 -0.5847
 1793TIP3    H129574   6.259   0.499   1.376  0.3991 -1.7264 -0.6277
 1793TIP3    H229575   6.375   0.416   1.324  2.6018  1.4715 -1.1515
 1794TIP3   OH229576   0.381   2.976   7.196 -0.4487  0.2855 -0.6932
 1794TIP3    H129577   0.329   2.899   7.173 -1.3964  0.7405 -0.1486
 1794TIP3    H229578   0.384   3.028   7.115  0.1860 -0.2955 -1.0601
 1795TIP3   OH229579   3.412   2.568   9.619  0.6809 -0.0431  0.0470
 1795TIP3    H129580   3.392   2.580   9.526  1.9523  1.1416 -0.1179
 1795TIP3    H229581   3.481   2.632   9.637  1.9302 -1.6351  1.3112
 1796TIP3   OH229582   1.571   4.108   2.572 -0.0859 -0.8147  0.5339
 1796TIP3    H129583   1.480   4.134   2.585  0.0539 -0.9433  1.8678
 1796TIP3    H229584   1.586   4.038   2.636  1.0772 -0.4845  0.6449
 1797TIP3   OH229585   1.568   2.392   0.214 -0.0931  0.4510 -0.1332
 1797TIP3    H129586   1.580   2.346   0.297  1.8348  2.6297  0.9246
 1797TIP3    H229587   1.647   2.370   0.164  1.2661  3.0687  0.7115
 1798TIP3   OH229588   2.104   5.042   8.575  0.6534 -0.7196  0.2804
 1798TIP3    H129589   2.059   4.989   8.510  0.3793 -1.0268  0.7170
 1798TIP3    H229590   2.197   5.028   8.556  0.6412  1.4534 -1.8821
 1799TIP3   OH229591   5.539   1.267   1.359  0.5148  0.5601  0.1540
 1799TIP3    H129592   5.577   1.227   1.437  3.0097  1.9458 -0.2449
 1799TIP3    H229593   5.508   1.194   1.306  0.4788 -0.5052  1.6059
 1800TIP3   OH229594   4.361   4.020   9.004 -0.1707 -0.0496  0.1889
 1800TIP3    H129595   4.306   4.081   8.953 -1.6469 -2.3298 -1.1161
 1800TIP3    H229596   4.445   4.021   8.959 -1.1208 -1.1996 -1.7468
 1801TIP3   OH229597   3.559   4.879   0.203 -0.0918  0.5470 -0.5500
 1801TIP3    H129598   3.569   4.936   0.128 -0.8682  1.9608  0.3838
 1801TIP3    H229599   3.631   4.902   0.262 -1.1329  1.5198  0.3955
 1802TIP3   OH229600   2.232   3.194   2.564  0.0266 -0.5514  0.2735
 1802TIP3    H129601   2.324   3.178   2.588  0.9272  1.2037 -1.6928
 1802TIP3    H229602   2.214   3.282   2.598 -0.4011 -0.2522 -0.7095
 1803TIP3   OH229603   5.851   1.270   9.555 -0.1658 -0.4934  0.2059
 1803TIP3    H129604   5.805   1.334   9.610 -1.0734  0.8283 -1.9711
 1803TIP3    H229605   5.937   1.309   9.538  0.4859 -1.3431  1.4015
 1804TIP3   OH229606   1.920   5.800   1.036 -0.1456 -0.4539 -0.0053
 1804TIP3    H129607   1.917   5.736   1.108  1.9532 -1.3875 -0.6549
 1804TIP3    H229608   1.910   5.747   0.957 -0.0323  0.2493 -0.4974
 1805TIP3   OH229609   4.370   3.791   8.719 -0.0926 -0.0409 -0.1230
 1805TIP3    H129610   4.294   3.751   8.762  0.2897 -0.2018  0.4145
 1805TIP3    H229611   4.390   3.731   8.647  0.4139 -0.7894  0.6175
 1806TIP3   OH229612   2.225   1.435   9.351  0.1441  0.1795  0.5898
 1806TIP3    H129613   2.286   1.387   9.407 -0.3975 -0.2779  0.7975
 1806TIP3    H229614   2.164   1.476   9.412  0.2442  0.6362  0.3844
 1807TIP3   OH229615   1.034   3.076   1.599  0.7910  0.0764 -0.4637
 1807TIP3    H129616   0.938   3.068   1.601  0.8816 -3.0997 -2.6165
 1807TIP3    H229617   1.049   3.154   1.545 -0.5871  0.3281 -0.5424
 1808TIP3   OH229618   2.974   1.431   2.036  0.4567  0.7567 -0.3234
 1808TIP3    H129619   2.916   1.472   2.100 -0.3148 -2.2961  1.1086
 1808TIP3    H229620   2.922   1.427   1.956 -0.2797  0.6261  0.1464
 1809TIP3   OH229621   4.682   2.713   7.110 -0.1156 -0.2941 -0.1608
 1809TIP3    H129622   4.693   2.794   7.060 -1.7262  0.2643  0.3151
 1809TIP3    H229623   4.701   2.643   7.048 -1.2936  0.4011 -1.3594
 1810TIP3   OH229624   7.575   7.430   2.351 -1.0458 -0.1975  0.2669
 1810TIP3    H129625   7.584   7.516   2.310 -0.4541 -0.7425 -0.7997
 1810TIP3    H229626   7.648   7.425   2.413 -1.5494  0.3657  0.9258
 1811TIP3   OH229627   4.132   4.801   7.854  0.8580 -0.2867  0.0714
 1811TIP3    H129628   4.163   4.741   7.922  0.0544  0.1181  0.8270
 1811TIP3    H229629   4.036   4.795   7.860  0.7771  0.3232 -0.5224
 1812TIP3   OH229630   3.385   4.363   0.279 -0.1099  0.0669 -0.6344
 1812TIP3    H129631   3.430   4.341   0.197 -1.2436  1.4515 -1.6838
 1812TIP3    H229632   3.453   4.401   0.334  0.4849 -0.0046 -1.2992
 1813TIP3   OH229633   6.627   5.159   9.174  0.0745 -0.1907  0.3100
 1813TIP3    H129634   6.554   5.138   9.232 -1.6267  1.0550 -1.2664
 1813TIP3    H229635   6.600   5.127   9.088  0.9779  1.0569 -0.4832
 1814TIP3   OH229636   3.820   3.199   8.268  0.0610 -0.3441  0.0084
 1814TIP3    H129637   3.746   3.142   8.250 -0.0695 -0.6248  1.3309
 1814TIP3    H229638   3.794   3.285   8.233  0.0198 -0.9350 -1.4612
 1815TIP3   OH229639   2.221   1.736   8.553  0.1995  0.8171 -0.7790
 1815TIP3    H129640   2.292   1.800   8.563  1.7066 -0.9183  0.2269
 1815TIP3    H229641   2.156   1.763   8.618 -0.1098  2.4199 -1.6949
 1816TIP3   OH229642   7.628   3.953   0.400  0.1161 -0.0365 -0.6009
 1816TIP3    H129643   7.671   4.035   0.427 -0.2694 -0.3399  1.0839
 1816TIP3    H229644   7.556   3.981   0.344  0.6241  0.6941 -0.9111
 1817TIP3   OH229645   5.915   0.008   8.834 -0.5463  0.1026 -0.1434
 1817TIP3    H129646   5.994   0.003   8.779 -0.8426  0.0366 -0.5669
 1817TIP3    H229647   5.866  -0.071   8.813 -0.3788 -0.2248  0.6703
 1818TIP3   OH229648   5.090   4.029   7.977  0.1552  0.0629 -0.3344
 1818TIP3    H129649   5.013   3.973   7.986 -0.2993  0.7767  0.4239
 1818TIP3    H229650   5.062   4.114   8.011  0.7377  0.8503 -1.7426
 1819TIP3   OH229651   1.177   4.621   1.682 -0.4381  0.5781  0.4400
 1819TIP3    H129652   1.101   4.641   1.736  0.1568 -0.6491  1.8041
 1819TIP3    H229653   1.241   4.584   1.743  0.7044  0.2245 -0.9172
 1820TIP3   OH229654   2.082   0.337   9.689 -0.6276 -0.6068  0.2886
 1820TIP3    H129655   2.174   0.359   9.673 -0.7312 -0.7635 -0.6225
 1820TIP3    H229656   2.044   0.333   9.601 -1.1911 -1.9034  0.5771
 1821TIP3   OH229657   4.238   4.368   0.289  0.0196 -0.0378  0.5788
 1821TIP3    H129658   4.150   4.373   0.328  0.2172  0.3432  0.9953
 1821TIP3    H229659   4.227   4.401   0.200 -0.5872 -1.6315  0.0341
 1822TIP3   OH229660   0.495   6.852   9.333 -0.2765 -0.1194 -0.3418
 1822TIP3    H129661   0.476   6.907   9.409  0.0951 -0.5203  0.0430
 1822TIP3    H229662   0.546   6.908   9.275 -0.0264 -0.0058 -0.0182
 1823TIP3   OH229663   0.399   5.314   1.479 -0.3545  1.0493  0.1058
 1823TIP3    H129664   0.340   5.358   1.418 -0.9289 -0.9797 -0.8892
 1823TIP3    H229665   0.487   5.330   1.444 -0.6127  0.7465 -0.7057
 1824TIP3   OH229666   1.069   6.146   7.224 -0.3077  0.2147 -0.3115
 1824TIP3    H129667   1.141   6.142   7.287  0.1718 -0.4264 -0.8867
 1824TIP3    H229668   1.074   6.234   7.187  0.0309  0.2525 -0.1801
 1825TIP3   OH229669   2.406   2.161   9.771 -0.0795 -0.2761 -0.8536
 1825TIP3    H129670   2.327   2.187   9.818 -0.3698  0.6453 -1.8077
 1825TIP3    H229671   2.404   2.066   9.771 -1.1360 -0.2626 -0.7805
 1826TIP3   OH229672   0.289   0.576   9.015 -0.5457 -0.3889 -0.0954
 1826TIP3    H129673   0.317   0.667   9.022  0.5817 -0.6509 -0.9132
 1826TIP3    H229674   0.246   0.570   8.930  0.2237 -0.8202 -0.4668
 1827TIP3   OH229675   4.827   6.847   0.430 -0.7490 -0.5065  0.1597
 1827TIP3    H129676   4.909   6.799   0.440  1.5947  3.3722  1.8771
 1827TIP3    H229677   4.825   6.871   0.337  0.2180 -0.4449  0.1434
 1828TIP3   OH229678   4.168   1.239   8.665  0.2315 -0.1297  0.2698
 1828TIP3    H129679   4.209   1.307   8.719  1.1616 -0.7565  0.3702
 1828TIP3    H229680   4.077   1.239   8.693  0.7505 -0.6723  2.1225
 1829TIP3   OH229681   2.256   1.911   7.634  0.0301 -0.1402 -0.1445
 1829TIP3    H129682   2.343   1.912   7.675  0.7433 -0.6953 -1.5735
 1829TIP3    H229683   2.249   1.824   7.594 -1.3624 -0.2449  0.2646
 1830TIP3   OH229684   3.794   0.857   1.125  0.7024  0.4831  0.1552
 1830TIP3    H129685   3.741   0.791   1.082  1.4810 -0.4486  0.5959
 1830TIP3    H229686   3.752   0.940   1.102 -1.7295 -0.2712  1.5604
 1831TIP3   OH229687   0.031   2.124   8.682  0.4487  0.5830 -0.5713
 1831TIP3    H129688   0.042   2.104   8.589 -0.6381  0.4676 -0.6983
 1831TIP3    H229689  -0.030   2.199   8.683 -0.2285  0.0418  0.0595
 1832TIP3   OH229690   1.889   5.998   8.606 -0.2290 -0.2203  0.0419
 1832TIP3    H129691   1.829   5.926   8.585 -0.4258 -0.5416  1.5832
 1832TIP3    H229692   1.975   5.965   8.581 -0.5017 -0.3754 -0.7158
 1833TIP3   OH229693   1.414   1.974   3.009 -0.7710  0.0174 -0.4658
 1833TIP3    H129694   1.401   1.917   2.933  0.1475  0.5047 -1.0009
 1833TIP3    H229695   1.380   1.923   3.083  1.2216 -1.8141 -0.7019
 1834TIP3   OH229696   2.622   7.318   0.088 -0.2625 -0.2756  0.1973
 1834TIP3    H129697   2.698   7.377   0.093 -0.9259  0.6425 -0.3455
 1834TIP3    H229698   2.655   7.240   0.044  0.4621 -0.0396  0.3086
 1835TIP3   OH229699   4.863   0.351   9.461  0.3822 -0.5411  0.2740
 1835TIP3    H129700   4.931   0.307   9.411 -0.3866 -0.1292 -1.1822
 1835TIP3    H229701   4.783   0.302   9.441  0.3184 -1.5897  2.6710
 1836TIP3   OH229702   3.033   6.142   7.209  0.4260 -0.1427  0.0835
 1836TIP3    H129703   3.011   6.052   7.186 -0.2564  0.2130 -0.7337
 1836TIP3    H229704   2.959   6.171   7.263 -0.1974  0.4294 -1.0274
 1837TIP3   OH229705   1.909   6.788   0.542 -0.0711  0.2968 -0.0232
 1837TIP3    H129706   1.905   6.864   0.483  2.9558  1.3755  0.9807
 1837TIP3    H229707   1.947   6.822   0.623  0.3296 -2.0917  0.8662
 1838TIP3   OH229708   0.211   0.243   2.669 -0.2340  0.2488  0.2627
 1838TIP3    H129709   0.289   0.198   2.637  1.2507  1.6608  1.7021
 1838TIP3    H229710   0.234   0.271   2.758 -3.1542 -1.0982  1.5626
 1839TIP3   OH229711   7.011   0.936   1.537  0.0326 -0.5811 -0.1100
 1839TIP3    H129712   7.074   0.903   1.473 -0.2096 -1.3961  0.0674
 1839TIP3    H229713   6.928   0.938   1.490  0.0382 -0.2514 -0.1090
 1840TIP3   OH229714   2.929   1.422   0.173  0.0380  0.0826 -0.6147
 1840TIP3    H129715   3.003   1.432   0.113 -1.5657  1.7228 -2.4883
 1840TIP3    H229716   2.902   1.511   0.193 -0.9443 -0.4793  0.7030
 1841TIP3   OH229717   5.275   3.317   8.060 -0.1669 -0.2137 -0.1827
 1841TIP3    H129718   5.350   3.342   8.114  0.7420 -0.9804 -1.0531
 1841TIP3    H229719   5.285   3.223   8.046 -1.5454 -0.4171  0.0455
 1842TIP3   OH229720   2.410   0.165   1.320  0.2372 -0.1868  0.1258
 1842TIP3    H129721   2.377   0.076   1.307 -0.0434 -0.2325  1.0732
 1842TIP3    H229722   2.331   0.219   1.327  0.4030  0.0886 -0.1019
 1843TIP3   OH229723   6.269   4.169   7.257  0.2022  0.2962  0.1426
 1843TIP3    H129724   6.193   4.226   7.270  0.7253  1.0300  0.0970
 1843TIP3    H229725   6.247   4.088   7.301 -0.2692  0.8011  0.8472
 1844TIP3   OH229726   1.215   5.299   1.636  0.1842  0.1421 -0.6285
 1844TIP3    H129727   1.198   5.370   1.574 -1.4977 -1.1795 -1.7839
 1844TIP3    H229728   1.137   5.296   1.691  0.5954 -0.2739 -0.0577
 1845TIP3   OH229729   5.114   2.156   2.152 -0.3961  0.5520 -0.0838
 1845TIP3    H129730   5.114   2.221   2.082 -0.7354  0.0118 -0.5970
 1845TIP3    H229731   5.044   2.184   2.211 -1.1555  0.1581 -0.7805
 1846TIP3   OH229732   2.898   1.620   7.398  0.2577  0.0297  0.8479
 1846TIP3    H129733   2.868   1.695   7.347 -0.6011  0.4192  1.8874
 1846TIP3    H229734   2.849   1.546   7.362  2.0749 -0.3140 -1.0687
 1847TIP3   OH229735   2.962   2.441   1.554 -0.3501 -0.9061  0.1854
 1847TIP3    H129736   3.025   2.387   1.507  0.0772 -0.0854 -0.2231
 1847TIP3    H229737   2.877   2.419   1.517 -0.1237 -0.9509 -0.3078
 1848TIP3   OH229738   2.427   2.129   8.292 -0.0362 -0.0266  0.2293
 1848TIP3    H129739   2.349   2.134   8.236  0.3659 -0.2493 -0.3649
 1848TIP3    H229740   2.440   2.218   8.325 -0.2921  0.1036 -0.0182
 1849TIP3   OH229741   2.690   4.080   8.924 -0.5388 -0.5671 -0.2667
 1849TIP3    H129742   2.692   4.076   9.020  3.6970 -1.9394 -0.1945
 1849TIP3    H229743   2.694   4.173   8.903 -0.2303 -0.2917  0.9446
 1850TIP3   OH229744   6.322   1.126   0.616 -0.5024 -0.4959 -0.4162
 1850TIP3    H129745   6.396   1.150   0.561 -0.6051 -1.5381 -1.0376
 1850TIP3    H229746   6.360   1.085   0.693 -0.3728  0.6525  0.1510
 1851TIP3   OH229747   6.049   3.413   9.858  0.2804  0.2114  0.4086
 1851TIP3    H129748   5.976   3.461   9.819  0.4190 -0.2409 -0.4269
 1851TIP3    H229749   6.020   3.393   9.947 -0.6342 -0.0209  0.0675
 1852TIP3   OH229750   2.167   7.654   2.300  0.4179 -0.2245 -0.0480
 1852TIP3    H129751   2.137   7.648   2.390 -0.7411 -2.0315 -0.5026
 1852TIP3    H229752   2.105   7.601   2.250 -0.2204  2.4183 -2.2643
 1853TIP3   OH229753   0.128   0.239   8.722  0.2390 -1.0597 -0.1368
 1853TIP3    H129754   0.175   0.320   8.741 -0.8682 -0.5158  0.3569
 1853TIP3    H229755   0.190   0.170   8.744  0.4597 -0.3747  1.5220
 1854TIP3   OH229756   0.343   7.436   2.599 -0.2450  0.7394 -0.3688
 1854TIP3    H129757   0.378   7.355   2.563 -0.3162  0.9015 -0.8021
 1854TIP3    H229758   0.419   7.492   2.611 -0.3407  1.0569 -1.2214
 1855TIP3   OH229759   2.454   7.574   1.798 -0.6117  0.2731  0.2859
 1855TIP3    H129760   2.451   7.639   1.727 -1.9878 -2.2975 -2.2398
 1855TIP3    H229761   2.396   7.504   1.768  2.9421 -3.5194  1.3698
 1856TIP3   OH229762   1.765   0.338   8.445  0.1911  0.2500  0.3659
 1856TIP3    H129763   1.699   0.408   8.439 -1.0305 -0.9294 -0.4171
 1856TIP3    H229764   1.789   0.336   8.538 -0.4389  1.0781  0.5614
 1857TIP3   OH229765   0.665   3.845   9.418 -0.4351 -0.1456  0.5193
 1857TIP3    H129766   0.721   3.828   9.342  0.6878 -0.5422  1.4018
 1857TIP3    H229767   0.580   3.808   9.394 -0.6422  1.2635 -1.2214
 1858TIP3   OH229768   3.308   1.283   9.835 -0.1323 -0.3018  0.2968
 1858TIP3    H129769   3.251   1.278   9.759  0.5563  0.8874 -0.3307
 1858TIP3    H229770   3.395   1.303   9.799  0.4285 -0.8081  1.3177
 1859TIP3   OH229771   2.932   6.802   8.958 -0.5175 -0.3139  0.3602
 1859TIP3    H129772   2.851   6.813   9.006 -1.7542  0.6599 -1.7967
 1859TIP3    H229773   2.932   6.874   8.894  1.5301 -0.8921 -0.3744
 1860TIP3   OH229774   7.343   6.539   8.447 -0.1832  0.8012  0.0378
 1860TIP3    H129775   7.321   6.580   8.363 -0.9049  0.9706  0.3034
 1860TIP3    H229776   7.430   6.503   8.434 -1.4037 -1.8266 -1.7995
 1861TIP3   OH229777   6.381   1.639   7.766  0.0094 -0.2545 -0.2671
 1861TIP3    H129778   6.451   1.574   7.773  1.6635  1.5811  1.6632
 1861TIP3    H229779   6.395   1.681   7.681 -0.5111 -1.7232 -1.1163
 1862TIP3   OH229780   5.238   0.886   0.816 -0.1459  0.8794 -0.4562
 1862TIP3    H129781   5.244   0.957   0.879 -1.4305 -0.1709  0.9353
 1862TIP3    H229782   5.161   0.908   0.763  0.2352  1.1782 -0.8853
 1863TIP3   OH229783   1.167   2.928   1.417 -0.2467 -0.5477  0.3695
 1863TIP3    H129784   1.130   2.982   1.487  0.7495  1.2271 -0.4137
 1863TIP3    H229785   1.251   2.969   1.397 -0.4715 -1.0498 -1.8100
 1864TIP3   OH229786   0.425   6.176   7.995  0.2448 -0.5723  0.4122
 1864TIP3    H129787   0.397   6.163   7.904 -0.4115 -0.4985  0.6017
 1864TIP3    H229788   0.433   6.271   8.004 -0.8135 -0.5008  0.7538
 1865TIP3   OH229789   0.250   0.703   2.380  0.5010  0.5918  0.0075
 1865TIP3    H129790   0.159   0.681   2.399  0.1807  0.3301 -1.7015
 1865TIP3    H229791   0.253   0.798   2.381  0.2786  0.5974  0.3174
 1866TIP3   OH229792   3.857   2.262   1.898 -0.1504 -0.4495 -0.2897
 1866TIP3    H129793   3.893   2.344   1.863 -0.1776 -0.5568 -0.5728
 1866TIP3    H229794   3.932   2.204   1.904  0.0994 -0.0172  1.0805
 1867TIP3   OH229795   7.482   0.682   9.858 -0.1179 -0.4366  0.5452
 1867TIP3    H129796   7.526   0.651   9.937 -2.1522  0.3609  2.0874
 1867TIP3    H229797   7.459   0.773   9.877 -1.2071 -0.4105 -0.7145
 1868TIP3   OH229798   3.371   0.959   1.021  0.8634 -0.2174  0.5041
 1868TIP3    H129799   3.456   1.003   1.021  1.3492 -1.1032  1.3619
 1868TIP3    H229800   3.388   0.872   0.983  0.5063 -0.6719  1.3466
 1869TIP3   OH229801   0.219   5.442   0.663 -0.4309  0.0586  0.1145
 1869TIP3    H129802   0.251   5.490   0.739 -0.5072  1.3769 -0.6609
 1869TIP3    H229803   0.133   5.410   0.688 -1.1915  1.9410  0.0224
 1870TIP3   OH229804   3.189   7.003   7.211 -0.0476  0.4996  0.4191
 1870TIP3    H129805   3.280   6.973   7.205  0.4758  1.6075  2.1426
 1870TIP3    H229806   3.157   7.001   7.121  1.1717 -1.4135 -0.0214
 1871TIP3   OH229807   5.213   1.566   7.983  0.4120 -0.6560  0.0542
 1871TIP3    H129808   5.270   1.642   7.968 -0.0844  0.1760  2.0875
 1871TIP3    H229809   5.251   1.523   8.059 -0.1884 -1.6030 -0.1762
 1872TIP3   OH229810   0.026   6.257   7.397  0.0238 -0.0927  0.1664
 1872TIP3    H129811  -0.018   6.341   7.410 -1.7997 -1.0039  0.0833
 1872TIP3    H229812   0.083   6.249   7.474 -1.1185  0.4140  1.1041
 1873TIP3   OH229813   5.551   6.598   0.362  0.1602 -0.8643 -0.7370
 1873TIP3    H129814   5.564   6.653   0.284  0.7214  0.6008  0.3391
 1873TIP3    H229815   5.584   6.512   0.337  3.2290  0.3184 -1.1860
 1874TIP3   OH229816   7.090   3.532   8.883  0.0369  0.2616 -0.0373
 1874TIP3    H129817   7.132   3.617   8.870 -0.2559  0.8646  2.3377
 1874TIP3    H229818   7.027   3.525   8.812  1.0897  1.3514 -1.1243
 1875TIP3   OH229819   2.687   6.560   8.873 -0.1553 -0.4082  0.3192
 1875TIP3    H129820   2.732   6.631   8.919 -0.3184 -0.1309  0.0653
 1875TIP3    H229821   2.632   6.606   8.808  1.4206 -0.8442 -1.3983
 1876TIP3   OH229822   6.623   3.858   8.995  0.3299  0.0685  0.1339
 1876TIP3    H129823   6.594   3.809   9.072  2.0633  0.1402  0.8802
 1876TIP3    H229824   6.675   3.795   8.945  0.2928  0.3905 -0.3150
 1877TIP3   OH229825   3.591   7.089   1.609 -0.1496  0.1426 -0.8945
 1877TIP3    H129826   3.622   7.050   1.527  0.5119  2.4923 -1.8660
 1877TIP3    H229827   3.627   7.178   1.608 -0.2978  0.3244  1.8785
 1878TIP3   OH229828   6.107   1.028   9.696  0.1822 -0.9776  0.1033
 1878TIP3    H129829   6.138   0.962   9.758  0.1096 -1.0158  0.0987
 1878TIP3    H229830   6.046   1.081   9.747 -0.0502 -1.1472  0.0023
 1879TIP3   OH229831   0.610   2.302   7.933  0.5813 -0.2897  0.1771
 1879TIP3    H129832   0.597   2.270   7.843 -0.5784 -0.4535  0.3881
 1879TIP3    H229833   0.648   2.228   7.980  0.8666 -0.3149 -0.0878
 1880TIP3   OH229834   0.587   6.549   8.637 -0.4743  0.1970  0.3063
 1880TIP3    H129835   0.519   6.616   8.641 -0.7445 -0.0890  0.5646
 1880TIP3    H229836   0.641   6.564   8.715 -0.4784  0.1750  0.3134
 1881TIP3   OH229837   4.914   3.287   9.638  0.3278 -0.1029 -0.5291
 1881TIP3    H129838   4.865   3.213   9.675  0.9564 -0.0259  0.4991
 1881TIP3    H229839   4.888   3.289   9.546 -0.9370 -0.5907 -0.2113
 1882TIP3   OH229840   3.045   2.338   9.706 -0.1967  0.2299  0.0679
 1882TIP3    H129841   2.950   2.339   9.695 -0.1416 -1.5318 -0.8799
 1882TIP3    H229842   3.079   2.362   9.620  0.2078 -1.2188 -0.1898
 1883TIP3   OH229843   7.600   0.038   1.370  0.5830  0.0075 -0.0811
 1883TIP3    H129844   7.563   0.074   1.290  2.6861  2.3561 -0.1439
 1883TIP3    H229845   7.556   0.085   1.441  1.0459  0.3621 -0.0223
 1884TIP3   OH229846   7.146   1.849   0.185 -0.4977 -0.3040  0.2288
 1884TIP3    H129847   7.223   1.800   0.212 -1.8753 -1.8339  1.6018
 1884TIP3    H229848   7.097   1.789   0.129 -1.8445 -0.2634  1.3191
 1885TIP3   OH229849   3.747   3.567   0.290 -0.5146 -0.1642  0.2005
 1885TIP3    H129850   3.678   3.623   0.326  0.8575  0.8662  1.3878
 1885TIP3    H229851   3.744   3.582   0.196 -0.4948  1.5942  0.4443
 1886TIP3   OH229852   0.861   7.411   9.803 -0.4686 -0.3387 -0.4310
 1886TIP3    H129853   0.888   7.427   9.893 -1.0239 -1.7800  0.0321
 1886TIP3    H229854   0.932   7.445   9.749 -0.4728  1.2282  0.5130
 1887TIP3   OH229855   0.692   5.834   7.109 -0.4494 -0.0756 -0.0442
 1887TIP3    H129856   0.714   5.787   7.190 -0.1230  0.1951  0.0253
 1887TIP3    H229857   0.775   5.872   7.080 -0.5678 -0.1616 -0.5022
 1888TIP3   OH229858   4.243   4.313   8.419 -0.2196 -0.5458  0.1296
 1888TIP3    H129859   4.331   4.336   8.389 -0.7517 -0.2798 -1.3406
 1888TIP3    H229860   4.237   4.349   8.508  0.6649  0.7050 -0.2975
 1889TIP3   OH229861   3.927   4.383   8.066 -0.0477 -0.0320 -0.4928
 1889TIP3    H129862   3.918   4.288   8.074  0.1687  0.0529  0.9354
 1889TIP3    H229863   3.918   4.400   7.972 -1.5009 -1.3016 -0.6118
 1890TIP3   OH229864   3.610   6.460   1.326 -0.1760 -0.2319 -0.5262
 1890TIP3    H129865   3.616   6.368   1.299 -0.1799 -0.5631  0.5662
 1890TIP3    H229866   3.637   6.460   1.418  0.7361  1.0014 -0.7662
 1891TIP3   OH229867   0.517   0.280   6.695 -0.0015  0.3907  0.0387
 1891TIP3    H129868   0.549   0.252   6.609 -0.4618  1.3600 -0.4611
 1891TIP3    H229869   0.548   0.213   6.755  1.7873  0.5707 -0.6285
 1892TIP3   OH229870   0.820   6.566   2.463  0.6080 -0.4521 -0.4636
 1892TIP3    H129871   0.866   6.484   2.478  0.9469  0.0405  1.4222
 1892TIP3    H229872   0.876   6.615   2.403  0.5334 -1.4446 -1.3820
 1893TIP3   OH229873   7.298   0.585   8.159 -0.1809  0.5079 -0.3090
 1893TIP3    H129874   7.236   0.538   8.214 -2.8338  1.5033 -2.2413
 1893TIP3    H229875   7.329   0.658   8.212  0.7569 -0.9694  1.2730
 1894TIP3   OH229876   6.676   7.529   0.852  0.0428 -0.2375  0.2764
 1894TIP3    H129877   6.662   7.539   0.758 -0.4774  1.9627  0.5184
 1894TIP3    H229878   6.763   7.566   0.867  0.8446 -2.0925  0.4925
 1895TIP3   OH229879   3.371   2.427   1.820 -0.3728  0.4227  0.1633
 1895TIP3    H129880   3.426   2.394   1.891 -2.4182 -2.9368  0.3778
 1895TIP3    H229881   3.333   2.508   1.854  1.6812  0.9720  1.3071
 1896TIP3   OH229882   2.625   6.875   9.452 -0.0284  0.0458 -0.4896
 1896TIP3    H129883   2.586   6.811   9.392 -1.4974 -0.0364  0.5187
 1896TIP3    H229884   2.676   6.932   9.395 -2.4009  0.7549 -2.0741
 1897TIP3   OH229885   2.639   2.381   7.451 -0.5510  0.3659  0.0959
 1897TIP3    H129886   2.730   2.404   7.431 -0.4018 -0.7167 -0.5512
 1897TIP3    H229887   2.636   2.372   7.546  0.2328 -0.4375  0.0547
 1898TIP3   OH229888   7.368   5.042   8.697  0.7196  0.2096 -0.1220
 1898TIP3    H129889   7.433   5.031   8.766  0.0748 -0.9846  0.3147
 1898TIP3    H229890   7.397   4.982   8.628  0.2011 -0.1690 -0.0119
 1899TIP3   OH229891   5.721   2.119   0.038  0.1694  0.0050 -0.4324
 1899TIP3    H129892   5.780   2.191   0.061 -0.4462  0.7533 -1.1032
 1899TIP3    H229893   5.691   2.141  -0.051  0.2952 -1.3027 -0.8166
 1900TIP3   OH229894   6.874   6.610   6.818 -0.6540 -0.3253  0.0227
 1900TIP3    H129895   6.816   6.636   6.890 -1.0991 -1.1761 -0.0148
 1900TIP3    H229896   6.817   6.561   6.758  0.0164 -0.8541 -0.1942
 1901TIP3   OH229897   4.819   2.608   8.520 -0.1758  0.5072 -0.9472
 1901TIP3    H129898   4.757   2.551   8.565  0.6316  0.4844  0.1693
 1901TIP3    H229899   4.881   2.634   8.587  2.0712 -0.8584 -2.3767
 1902TIP3   OH229900   4.539   6.495   9.294  0.3931  0.3344 -0.9211
 1902TIP3    H129901   4.449   6.462   9.304  0.6793 -0.1777  0.0380
 1902TIP3    H229902   4.528   6.577   9.247 -0.7625  1.1876  0.7304
 1903TIP3   OH229903   1.478   5.372   0.740 -0.2204  0.1245 -0.6287
 1903TIP3    H129904   1.416   5.414   0.799  1.5527  1.9767  0.0251
 1903TIP3    H229905   1.467   5.278   0.757 -1.9004  0.4569  0.3629
 1904TIP3   OH229906   0.235   1.327   0.606  0.5094  0.1147  0.5540
 1904TIP3    H129907   0.142   1.339   0.586  0.7405 -1.8112 -2.0918
 1904TIP3    H229908   0.242   1.237   0.636  1.8978 -1.0243 -2.7470
 1905TIP3   OH229909   0.791   2.229   9.581  0.1276  0.0756  0.0459
 1905TIP3    H129910   0.884   2.242   9.563  0.5305  0.0968  1.9726
 1905TIP3    H229911   0.784   2.234   9.676 -1.4087 -2.7409  0.1645
 1906TIP3   OH229912   2.109   5.639   0.334  0.0732 -0.5200  0.5100
 1906TIP3    H129913   2.023   5.611   0.364  0.3874 -0.3419  1.6218
 1906TIP3    H229914   2.124   5.722   0.379  1.7561 -1.6275  2.1609
 1907TIP3   OH229915   3.832   2.979   2.570 -0.7404 -0.3446 -0.0458
 1907TIP3    H129916   3.826   2.954   2.477 -1.1295 -1.7370  0.3316
 1907TIP3    H229917   3.777   2.915   2.615 -0.3162  0.1436  1.1852
 1908TIP3   OH229918   6.394   3.832   8.567 -0.5397  0.5430 -0.0487
 1908TIP3    H129919   6.371   3.888   8.641 -0.4392  1.6613 -0.8468
 1908TIP3    H229920   6.471   3.784   8.597 -1.6362 -0.4898  1.2837
 1909TIP3   OH229921   1.813   2.583   1.605 -0.0818  0.0075  0.1051
 1909TIP3    H129922   1.803   2.675   1.582 -0.9982 -0.2321 -0.5310
 1909TIP3    H229923   1.725   2.546   1.596  0.5774 -1.3406 -1.6019
 1910TIP3   OH229924   5.967   6.422   8.864 -0.8807  0.3655  0.1754
 1910TIP3    H129925   5.951   6.367   8.940  0.4627 -0.0037  0.2078
 1910TIP3    H229926   6.034   6.376   8.814 -2.6217 -0.0776 -1.9339
 1911TIP3   OH229927   6.978   0.667   2.654 -0.6301  0.4596  0.2441
 1911TIP3    H129928   7.059   0.684   2.606 -1.1845  0.0740 -0.8579
 1911TIP3    H229929   6.986   0.720   2.733  1.4780 -0.8711  1.0334
 1912TIP3   OH229930   2.323   3.712   8.914 -0.1520  0.5510  0.2139
 1912TIP3    H129931   2.341   3.787   8.970 -2.9098  0.1541  1.8660
 1912TIP3    H229932   2.247   3.739   8.863 -0.3227 -0.6233 -0.1738
 1913TIP3   OH229933   6.102   1.123   0.770  0.1454 -0.1231  0.3855
 1913TIP3    H129934   6.176   1.121   0.708 -0.8405 -0.3786 -0.8256
 1913TIP3    H229935   6.084   1.217   0.781 -0.9187 -0.0737 -1.3175
 1914TIP3   OH229936   4.450   3.991   9.838 -0.0981 -0.3062  0.6477
 1914TIP3    H129937   4.400   3.969   9.916 -0.3970  1.2912  0.9482
 1914TIP3    H229938   4.383   4.013   9.772  0.1238  1.8902  1.0633
 1915TIP3   OH229939   0.471   7.471   8.867  0.1880 -0.5138  0.1942
 1915TIP3    H129940   0.507   7.544   8.816 -2.2001 -0.2002 -1.1901
 1915TIP3    H229941   0.489   7.494   8.958 -1.3586  2.3760 -0.1134
 1916TIP3   OH229942   1.805   6.634   7.446 -0.8480  0.4838  0.4361
 1916TIP3    H129943   1.890   6.671   7.423 -2.0089  1.8806 -1.9401
 1916TIP3    H229944   1.803   6.548   7.403 -0.9034  0.7736 -0.1504
 1917TIP3   OH229945   6.106   7.033   8.189  0.7633  0.1358 -0.2505
 1917TIP3    H129946   6.097   7.106   8.250  1.2389 -0.5318  0.6417
 1917TIP3    H229947   6.073   7.067   8.106 -1.8308  0.4615  0.8082
 1918TIP3   OH229948   0.867   2.188   0.884  0.1333 -0.1515 -0.1831
 1918TIP3    H129949   0.902   2.099   0.881 -0.4806 -0.3804 -0.9777
 1918TIP3    H229950   0.911   2.233   0.812 -0.8690 -0.3291 -0.9262
 1919TIP3   OH229951   1.645   4.373   2.566 -0.9610 -0.1678  0.5684
 1919TIP3    H129952   1.643   4.278   2.575  1.3916 -0.4564 -1.1533
 1919TIP3    H229953   1.590   4.390   2.489  0.5426 -0.4498 -0.6244
 1920TIP3   OH229954   0.095   0.321   7.649 -0.7208  0.0533  0.0910
 1920TIP3    H129955   0.039   0.308   7.725  0.7326 -1.5749  0.9775
 1920TIP3    H229956   0.112   0.415   7.646 -2.8114  0.4732  0.2397
 1921TIP3   OH229957   7.277   4.966   6.888 -0.4774 -0.1584  0.4250
 1921TIP3    H129958   7.325   4.988   6.969  1.8375 -2.3012 -0.2083
 1921TIP3    H229959   7.309   5.029   6.824  1.5575 -1.4806  0.0444
 1922TIP3   OH229960   0.162   3.607   8.669  0.1749  0.1237 -0.7853
 1922TIP3    H129961   0.078   3.579   8.631  0.8987 -2.7102 -0.4784
 1922TIP3    H229962   0.226   3.587   8.601  0.8684  0.1184 -0.1317
 1923TIP3   OH229963   5.744   1.108   9.369  0.6223  0.2068  0.2546
 1923TIP3    H129964   5.668   1.152   9.333  0.0745 -1.0000 -0.1208
 1923TIP3    H229965   5.779   1.169   9.434 -1.0440  0.5099  0.9102
 1924TIP3   OH229966   2.579   6.289   3.053  0.1713 -0.4110 -0.0713
 1924TIP3    H129967   2.632   6.298   3.132 -2.9055  1.0859  2.0062
 1924TIP3    H229968   2.510   6.226   3.077 -0.8400  0.0747 -1.5392
 1925TIP3   OH229969   5.263   7.263   1.171 -0.0946  0.1653  0.0296
 1925TIP3    H129970   5.224   7.335   1.221 -0.0789 -0.6823  1.3032
 1925TIP3    H229971   5.274   7.192   1.235 -0.4799 -1.1184 -1.2723
 1926TIP3   OH229972   4.877   4.566   9.436 -0.1126 -0.1675 -0.0760
 1926TIP3    H129973   4.907   4.630   9.371  1.3640 -1.1105 -0.3830
 1926TIP3    H229974   4.811   4.613   9.487  0.1180  1.2324 -0.9923
 1927TIP3   OH229975   4.645   3.045   9.180  0.1580 -0.5447  0.2174
 1927TIP3    H129976   4.588   3.069   9.107 -0.4962  1.8314  1.3947
 1927TIP3    H229977   4.732   3.036   9.141 -0.3231 -0.1536 -0.9859
 1928TIP3   OH229978   4.242   0.996   1.896 -0.7468 -0.7149  0.1337
 1928TIP3    H129979   4.302   0.985   1.969 -1.8601 -1.4631  0.9638
 1928TIP3    H229980   4.214   1.087   1.901 -0.1325 -0.5177  0.0822
 1929TIP3   OH229981   1.371   0.395   9.879 -0.6858  0.0194  0.4586
 1929TIP3    H129982   1.278   0.374   9.893 -0.6261  0.4010  1.4628
 1929TIP3    H229983   1.388   0.367   9.789 -1.4186 -1.3588  0.7172
 1930TIP3   OH229984   7.026   3.311   8.058  0.3371  0.1485  0.4173
 1930TIP3    H129985   7.073   3.329   8.140  0.3063  1.1514  0.2320
 1930TIP3    H229986   6.990   3.396   8.032  0.2891 -0.1704 -0.6043
 1931TIP3   OH229987   1.510   3.870   1.339 -0.5684  0.3329 -0.0218
 1931TIP3    H129988   1.495   3.844   1.248  0.1526  0.6242 -0.2357
 1931TIP3    H229989   1.605   3.881   1.345 -0.7172  1.5014  0.4407
 1932TIP3   OH229990   2.491   0.873   2.256  0.2737 -0.0059  0.6113
 1932TIP3    H129991   2.548   0.830   2.319 -1.0378 -0.7230  1.3656
 1932TIP3    H229992   2.403   0.860   2.291 -0.5932 -1.0432 -1.6833
 1933TIP3   OH229993   0.581   1.484   7.248  0.3438  0.5037 -0.2485
 1933TIP3    H129994   0.656   1.426   7.263 -1.1900 -1.4237  0.4050
 1933TIP3    H229995   0.534   1.443   7.175 -1.3940  0.2056  0.9756
 1934TIP3   OH229996   7.469   6.948   0.877 -0.2908  0.0266 -0.1321
 1934TIP3    H129997   7.519   7.004   0.937 -0.8696  1.7463 -1.1832
 1934TIP3    H229998   7.534   6.915   0.815 -0.0034 -0.1440  0.2561
 1935TIP3   OH229999   3.286   2.450   1.010  0.3677 -0.0750 -0.0640
 1935TIP3    H130000   3.223   2.523   1.010  0.9928  0.4784  0.1998
 1935TIP3    H230001   3.235   2.375   0.981 -0.7961  0.0259  1.5415
 1936TIP3   OH230002   1.323   4.664   9.922 -0.8739  0.2556  0.2215
 1936TIP3    H130003   1.418   4.676   9.933 -0.3314 -3.1538  0.5295
 1936TIP3    H230004   1.300   4.718   9.846  1.5720  0.2524 -0.6076
 1937TIP3   OH230005   7.351   0.082   8.829 -0.1414  0.1225 -0.3865
 1937TIP3    H130006   7.300   0.017   8.876 -0.1543 -1.0203 -1.9065
 1937TIP3    H230007   7.299   0.163   8.836 -0.4282 -0.1503  0.9905
 1938TIP3   OH230008   2.337   1.533   1.709 -0.1526 -0.1324 -0.2460
 1938TIP3    H130009   2.323   1.491   1.624  1.8761 -1.0388 -0.1737
 1938TIP3    H230010   2.317   1.465   1.773 -0.6004  0.2121 -0.0133
 1939TIP3   OH230011   4.446   6.782   7.482 -0.0042  0.0903  0.2064
 1939TIP3    H130012   4.486   6.696   7.494 -0.3181  0.0256  0.8413
 1939TIP3    H230013   4.419   6.784   7.390 -0.1230 -0.5453  0.2247
 1940TIP3   OH230014   2.336   4.964   8.377 -0.3584 -0.1374 -0.7162
 1940TIP3    H130015   2.417   4.997   8.338  0.2538 -1.1326 -0.3185
 1940TIP3    H230016   2.311   4.890   8.322 -1.1926  0.3710 -1.0354
 1941TIP3   OH230017   5.291   5.965   7.817  0.0063 -0.9320  0.0820
 1941TIP3    H130018   5.295   5.874   7.848  1.1046 -0.9341 -0.0368
 1941TIP3    H230019   5.323   5.961   7.727  1.4641 -0.2290  0.5429
 1942TIP3   OH230020   1.413   4.011   9.756 -0.1415  0.0378  0.5283
 1942TIP3    H130021   1.447   3.926   9.786 -0.2561 -0.3976 -0.5254
 1942TIP3    H230022   1.352   3.988   9.686  0.5498  1.0520 -0.4202
 1943TIP3   OH230023   4.706   6.065   8.292  0.3045 -0.1391 -0.5395
 1943TIP3    H130024   4.767   6.002   8.253 -0.3805 -1.1624 -0.0137
 1943TIP3    H230025   4.626   6.056   8.240  0.7325  1.6277 -1.6131
 1944TIP3   OH230026   5.483   6.900   7.326 -0.0962  0.1145 -0.2356
 1944TIP3    H130027   5.575   6.896   7.354  0.0700 -0.2356 -0.8221
 1944TIP3    H230028   5.462   6.811   7.298 -0.0984  0.5508 -1.7159
 1945TIP3   OH230029   1.135   1.519   9.833  0.4139  0.6548  0.0898
 1945TIP3    H130030   1.144   1.425   9.847 -0.7907  0.2460 -1.6590
 1945TIP3    H230031   1.225   1.552   9.838  0.7764 -0.4372  1.4838
 1946TIP3   OH230032   0.302   1.774   7.454 -0.0592 -0.3600 -0.0691
 1946TIP3    H130033   0.264   1.741   7.373  1.5495 -1.6833 -0.3536
 1946TIP3    H230034   0.229   1.781   7.515 -1.0300 -0.9655 -1.1368
 1947TIP3   OH230035   4.245   3.562   9.909 -0.1073  0.3907 -0.2579
 1947TIP3    H130036   4.279   3.546   9.821  1.2679  2.3864 -0.1597
 1947TIP3    H230037   4.261   3.481   9.957  1.8323  0.2393 -1.0777
 1948TIP3   OH230038   1.169   1.246   9.924  0.4590  0.5544 -0.0131
 1948TIP3    H130039   1.140   1.162   9.962  1.7105  0.4677  0.7971
 1948TIP3    H230040   1.146   1.239   9.831 -1.6916  0.3276  0.4633
 1949TIP3   OH230041   1.910   6.881   3.073  0.0819  0.2449 -0.0628
 1949TIP3    H130042   1.832   6.829   3.095 -0.2149  0.0516 -1.4964
 1949TIP3    H230043   1.876   6.952   3.018  1.1596 -1.1914 -2.7644
 1950TIP3   OH230044   1.082   0.359   9.956 -0.2166 -0.5371  0.3250
 1950TIP3    H130045   0.988   0.369   9.972 -0.2656 -0.8937  0.2767
 1950TIP3    H230046   1.113   0.304  10.028  0.0523 -0.0077  0.6195
 1951TIP3   OH230047   6.586   7.205   0.424  0.0507 -0.3543  0.7788
 1951TIP3    H130048   6.497   7.222   0.395  0.1766  0.1814  0.6931
 1951TIP3    H230049   6.586   7.230   0.516  0.4951  1.1245  0.4057
 1952TIP3   OH230050   3.328   7.013   2.700  0.3399 -0.5959  0.6769
 1952TIP3    H130051   3.289   6.937   2.743 -1.2545  0.8372  1.9533
 1952TIP3    H230052   3.304   7.087   2.757  0.2306  1.1098 -1.4332
 1953TIP3   OH230053   2.294   4.584   7.486 -0.3327  0.1544 -0.0712
 1953TIP3    H130054   2.263   4.674   7.495 -0.5738  0.1005 -0.3650
 1953TIP3    H230055   2.253   4.552   7.407  0.1446 -0.0601 -0.2368
 1954TIP3   OH230056   4.960   0.985   9.613  0.7802 -0.1219  0.0610
 1954TIP3    H130057   4.906   0.959   9.538  1.4957 -1.7981  0.1063
 1954TIP3    H230058   4.950   1.081   9.616 -1.4121 -0.2651 -0.5050
 1955TIP3   OH230059   7.102   3.158   0.776 -0.1324  0.4747  0.1562
 1955TIP3    H130060   7.069   3.081   0.822  1.3845  0.2801  0.9819
 1955TIP3    H230061   7.027   3.191   0.727 -1.1009 -0.8608  0.6941
 1956TIP3   OH230062   6.006   0.407   1.853  0.5714 -0.2703 -0.2488
 1956TIP3    H130063   5.965   0.462   1.921  1.8589  1.8161 -1.0589
 1956TIP3    H230064   6.094   0.390   1.886  0.4056 -1.3600 -0.3186
 1957TIP3   OH230065   5.400   0.913   9.525 -0.3992  0.4286 -0.0232
 1957TIP3    H130066   5.391   0.836   9.470 -4.6197 -0.4163  1.4342
 1957TIP3    H230067   5.427   0.879   9.610 -0.5307  0.7658  0.1574
 1958TIP3   OH230068   2.808   4.581   1.879 -0.1752 -0.3539 -0.6765
 1958TIP3    H130069   2.859   4.581   1.798 -2.1216 -1.4957 -1.9955
 1958TIP3    H230070   2.757   4.500   1.875 -2.4272  0.9165  0.3003
 1959TIP3   OH230071   5.580   0.035   6.789 -0.7727 -0.2468 -0.1301
 1959TIP3    H130072   5.658   0.087   6.806 -1.6701  0.8225  0.9431
 1959TIP3    H230073   5.608  -0.056   6.798  0.2393  0.1335  0.6996
 1960TIP3   OH230074   1.726   0.707   6.883 -0.7204  0.2681 -0.2162
 1960TIP3    H130075   1.814   0.743   6.873  0.9527 -3.3457 -0.2402
 1960TIP3    H230076   1.686   0.715   6.796  0.0466  0.8702 -0.5184
 1961TIP3   OH230077   6.585   4.794   7.813  0.4246 -0.6833 -0.0795
 1961TIP3    H130078   6.635   4.734   7.758 -0.1721 -1.3828  0.1392
 1961TIP3    H230079   6.495   4.765   7.805  0.1473  0.0836  0.1607
 1962TIP3   OH230080   7.379   5.580   8.191  0.5131 -0.2327 -0.3971
 1962TIP3    H130081   7.331   5.641   8.248 -1.4813 -1.1558 -1.0058
 1962TIP3    H230082   7.425   5.522   8.252  0.8277  0.6307  0.2131
 1963TIP3   OH230083   0.842   0.197   0.341  0.2939 -0.2295 -0.0328
 1963TIP3    H130084   0.800   0.116   0.313  1.6131 -1.3988  1.2107
 1963TIP3    H230085   0.820   0.205   0.434  2.7352 -0.9082  0.6764
 1964TIP3   OH230086   0.459   1.120   0.465 -0.6113  0.3023 -0.1194
 1964TIP3    H130087   0.372   1.089   0.491 -0.7361 -0.0372 -0.8929
 1964TIP3    H230088   0.514   1.107   0.543 -1.0778 -0.2097  0.1304
 1965TIP3   OH230089   1.872   3.368   9.358  0.0750  0.1299 -0.4379
 1965TIP3    H130090   1.927   3.301   9.318 -1.0733 -0.1067 -1.7016
 1965TIP3    H230091   1.796   3.374   9.300 -0.9278  0.8996  0.9013
 1966TIP3   OH230092   6.736   6.766   3.499 -0.2816  0.6869 -0.5389
 1966TIP3    H130093   6.704   6.845   3.457 -1.2400  0.4625 -0.2645
 1966TIP3    H230094   6.657   6.714   3.517  0.3839 -0.7580 -1.5645
 1967TIP3   OH230095   1.634   1.372   2.446 -0.4017  0.1351  0.7621
 1967TIP3    H130096   1.706   1.397   2.387  0.5435 -1.3463  1.2412
 1967TIP3    H230097   1.573   1.324   2.390 -1.0882  1.4426  0.3421
 1968TIP3   OH230098   4.468   4.591   8.114  0.2585  0.1968  0.6388
 1968TIP3    H130099   4.506   4.533   8.047 -0.5390 -0.4550  0.7239
 1968TIP3    H230100   4.386   4.622   8.074 -0.2253 -0.2032  1.2986
 1969TIP3   OH230101   4.498   6.170   7.795  0.0024  0.7384 -0.1531
 1969TIP3    H130102   4.581   6.161   7.748  1.5813  2.4566  2.0810
 1969TIP3    H230103   4.475   6.263   7.786  0.3576  1.1197  2.3370
 1970TIP3   OH230104   2.533   1.212   0.631  0.1259  0.2830 -0.4175
 1970TIP3    H130105   2.561   1.299   0.601 -2.0985  0.8470 -1.0718
 1970TIP3    H230106   2.598   1.187   0.696  2.8475  0.8395 -2.7095
 1971TIP3   OH230107   5.738   6.320   9.077  0.6093 -0.1208  0.7595
 1971TIP3    H130108   5.720   6.291   9.166  0.6756 -0.7698  0.5695
 1971TIP3    H230109   5.833   6.313   9.068  0.6045 -0.0408  0.6456
 1972TIP3   OH230110   0.363   3.508   1.236 -0.3540  0.1663  0.0253
 1972TIP3    H130111   0.444   3.499   1.285 -0.6353  0.4475  0.5530
 1972TIP3    H230112   0.385   3.564   1.161  0.6620 -2.1741 -1.5419
 1973TIP3   OH230113   1.313   6.088   8.274  0.0286  0.3543 -0.0938
 1973TIP3    H130114   1.402   6.084   8.237  0.3018 -1.0661  0.6200
 1973TIP3    H230115   1.258   6.045   8.208  0.3004 -0.9808  0.5120
 1974TIP3   OH230116   1.263   5.373   0.165 -0.4084 -0.0032  0.7666
 1974TIP3    H130117   1.287   5.465   0.155 -2.5588  0.7022  1.4666
 1974TIP3    H230118   1.321   5.340   0.234  1.1612  0.4709 -0.2807
 1975TIP3   OH230119   0.090   4.519   8.759 -0.3943 -0.0686 -0.3083
 1975TIP3    H130120   0.166   4.577   8.758  0.5903 -1.2461  0.8746
 1975TIP3    H230121   0.015   4.576   8.747  0.6761  1.1357 -1.5011
 1976TIP3   OH230122   6.257   6.486   1.429  0.0169 -0.0219 -0.1837
 1976TIP3    H130123   6.347   6.499   1.400 -0.3826 -1.6450 -2.3218
 1976TIP3    H230124   6.227   6.409   1.382 -2.5898  0.6053  0.3133
 1977TIP3   OH230125   5.504   0.901   0.203 -0.7990 -0.5516  0.0513
 1977TIP3    H130126   5.489   0.926   0.112 -0.8405  2.0314  0.6834
 1977TIP3    H230127   5.597   0.915   0.217 -0.4856 -2.3489  0.0809
 1978TIP3   OH230128   7.182   4.804   8.670  0.6260 -0.3692 -0.0179
 1978TIP3    H130129   7.237   4.773   8.598  1.7571 -0.3300  0.8172
 1978TIP3    H230130   7.241   4.852   8.727 -0.8871  2.7106 -0.8172
 1979TIP3   OH230131   1.302   2.699   7.144 -0.1423  0.2590  0.4796
 1979TIP3    H130132   1.290   2.604   7.134 -0.5607  0.4476 -1.1554
 1979TIP3    H230133   1.214   2.734   7.152 -0.0589  0.5951  0.0039
 1980TIP3   OH230134   5.255   1.632   8.554 -0.0086 -0.3687  0.0667
 1980TIP3    H130135   5.238   1.725   8.562  1.7354 -0.1482  2.4034
 1980TIP3    H230136   5.292   1.621   8.466  1.4880  1.4768  0.4099
 1981TIP3   OH230137   6.693   5.865   6.792  0.0051  0.6693  0.3406
 1981TIP3    H130138   6.682   5.928   6.721  0.4663 -0.6231 -0.9324
 1981TIP3    H230139   6.787   5.850   6.798 -0.1236 -0.2470  0.2918
 1982TIP3   OH230140   0.360   3.272   7.322 -0.5122 -0.2790 -0.3132
 1982TIP3    H130141   0.436   3.273   7.380 -1.8625 -0.5852  1.5759
 1982TIP3    H230142   0.378   3.201   7.260  0.8659 -0.1333 -0.1065
 1983TIP3   OH230143   3.823   6.957   0.879  0.1507 -0.5939 -0.3905
 1983TIP3    H130144   3.859   6.927   0.796  1.6920 -1.7700  0.6493
 1983TIP3    H230145   3.828   6.881   0.937  0.3234  0.5380  1.1653
 1984TIP3   OH230146   1.746   1.546   9.015 -0.0727 -0.3502  0.1326
 1984TIP3    H130147   1.825   1.590   8.987  0.8835 -0.3521  2.5879
 1984TIP3    H230148   1.777   1.469   9.063 -1.6207 -1.4809 -0.6004
 1985TIP3   OH230149   5.267   1.990   2.355 -0.5442  0.3072 -0.1286
 1985TIP3    H130150   5.246   2.043   2.278 -0.3143  0.2103 -0.2597
 1985TIP3    H230151   5.299   2.053   2.420 -0.7892  0.3954 -0.0927
 1986TIP3   OH230152   4.873   3.451   8.370 -0.5826  0.2760 -0.0542
 1986TIP3    H130153   4.956   3.464   8.325  0.3258  1.0693  1.7404
 1986TIP3    H230154   4.853   3.358   8.356  1.4554 -0.3584  0.7705
 1987TIP3   OH230155   2.080   5.199   7.947 -0.1238  0.3068  0.3534
 1987TIP3    H130156   1.990   5.188   7.917 -0.7052 -0.8755  2.3748
 1987TIP3    H230157   2.105   5.114   7.983  1.0051  1.2007  1.8340
 1988TIP3   OH230158   1.831   0.228   0.250 -0.5019 -0.0562 -0.1854
 1988TIP3    H130159   1.782   0.289   0.305  1.2226  1.4098 -0.1709
 1988TIP3    H230160   1.923   0.250   0.265  0.0852 -0.2276 -2.9269
 1989TIP3   OH230161   5.364   6.850   0.125  0.3348 -0.1407  0.4588
 1989TIP3    H130162   5.281   6.812   0.153 -0.2173 -0.0676 -1.0068
 1989TIP3    H230163   5.377   6.925   0.183 -0.9158  0.1908  0.3298
 1990TIP3   OH230164   5.795   6.573   0.078  0.1147 -0.7968  0.3990
 1990TIP3    H130165   5.819   6.495   0.028 -0.6892 -0.2038 -0.9703
 1990TIP3    H230166   5.703   6.587   0.058  0.4407  0.9553 -0.0646
 1991TIP3   OH230167   5.563   4.707   9.208  0.3494  0.0507  0.3295
 1991TIP3    H130168   5.639   4.750   9.169  1.2515  0.3612  2.2954
 1991TIP3    H230169   5.508   4.780   9.239 -1.1987 -0.1465 -1.7639
 1992TIP3   OH230170   7.341   6.586   1.385  0.2838  0.4018  0.4326
 1992TIP3    H130171   7.385   6.650   1.328  1.0032  0.9214  1.5335
 1992TIP3    H230172   7.327   6.633   1.467  0.8344 -0.8515  1.2711
 1993TIP3   OH230173   1.791   1.783   8.868  0.4296 -0.0107 -0.1741
 1993TIP3    H130174   1.790   1.831   8.951  1.6763 -1.9996  1.0632
 1993TIP3    H230175   1.698   1.763   8.852  0.2096 -0.0841  1.0505
 1994TIP3   OH230176   3.894   5.886   8.109 -0.2902 -0.1354  0.0562
 1994TIP3    H130177   3.866   5.925   8.192 -0.7385  1.8073 -0.9572
 1994TIP3    H230178   3.989   5.875   8.118 -0.2009  0.9332  0.4929
 1995TIP3   OH230179   4.374   2.745   7.217 -0.1721  0.1128  0.0567
 1995TIP3    H130180   4.344   2.832   7.192  0.2473 -0.2007 -1.7332
 1995TIP3    H230181   4.302   2.687   7.192  0.3331 -0.2319 -0.6600
 1996TIP3   OH230182   0.581   4.858   1.712  0.2405  0.4123 -0.2379
 1996TIP3    H130183   0.604   4.785   1.770 -0.8183  0.0334 -0.2730
 1996TIP3    H230184   0.496   4.888   1.744 -0.5524 -0.0601 -1.8098
 1997TIP3   OH230185   5.156   5.505   8.067  0.3495  0.5252 -0.1134
 1997TIP3    H130186   5.172   5.582   8.122  1.8900 -1.4849  2.5496
 1997TIP3    H230187   5.100   5.449   8.122  0.7787 -1.0030 -1.1828
 1998TIP3   OH230188   1.813   5.443   8.842  0.2520  0.1123 -0.3637
 1998TIP3    H130189   1.862   5.365   8.869 -0.0430  0.0521  0.0006
 1998TIP3    H230190   1.872   5.487   8.781  1.3621  0.7553  1.1076
 1999TIP3   OH230191   6.301   7.131   0.139 -0.3113 -1.0061  0.5217
 1999TIP3    H130192   6.212   7.127   0.173 -0.1344  0.6198  1.2583
 1999TIP3    H230193   6.353   7.165   0.212 -0.2576  4.7260 -1.6803
 2000TIP3   OH230194   2.167   6.170   1.155  0.3768  0.4558  0.1622
 2000TIP3    H130195   2.189   6.254   1.115  0.2522  0.0161 -0.8585
 2000TIP3    H230196   2.159   6.109   1.082 -1.0823 -0.1120  0.7371
 2001TIP3   OH230197   2.161   4.910   2.403 -0.0004 -0.6190 -0.3577
 2001TIP3    H130198   2.125   4.904   2.492  0.7382  1.2983  0.1243
 2001TIP3    H230199   2.084   4.928   2.348 -0.2690 -0.1815  0.1454
 2002TIP3   OH230200   5.837   6.956   8.727  0.1109  0.2610  0.0075
 2002TIP3    H130201   5.892   7.000   8.792 -0.7734  1.1038  0.2061
 2002TIP3    H230202   5.795   6.885   8.775 -0.2404  0.6422  0.2725
 2003TIP3   OH230203   3.853   7.563   2.986  0.0125 -0.1604  0.1757
 2003TIP3    H130204   3.773   7.601   3.022  0.2790 -0.4068  1.0489
 2003TIP3    H230205   3.899   7.637   2.946  0.7401  0.5815  2.2326
 2004TIP3   OH230206   0.415   2.311   1.505  0.3751 -0.3126 -0.0807
 2004TIP3    H130207   0.467   2.354   1.436  3.4577 -2.3629  0.7422
 2004TIP3    H230208   0.454   2.342   1.587 -1.5064  0.0647  0.7234
 2005TIP3   OH230209   4.408   1.444   7.944  0.2031 -0.7375  0.8786
 2005TIP3    H130210   4.489   1.407   7.907  0.6344  0.4083  0.6254
 2005TIP3    H230211   4.435   1.529   7.980 -1.1610  0.4256 -0.6545
 2006TIP3   OH230212   5.397   3.784   9.793  0.0037  0.1574 -0.0834
 2006TIP3    H130213   5.372   3.754   9.881  1.6909 -0.3223  0.2656
 2006TIP3    H230214   5.489   3.759   9.784 -0.3088 -0.4518 -2.2690
 2007TIP3   OH230215   1.970   6.480   7.268 -0.3948 -0.1288  0.2197
 2007TIP3    H130216   2.015   6.395   7.267 -0.6603 -0.2759  0.5033
 2007TIP3    H230217   2.040   6.544   7.259 -0.1508 -0.3669  0.3834
 2008TIP3   OH230218   0.517   0.246   2.565 -0.0213 -0.7561 -0.3748
 2008TIP3    H130219   0.535   0.289   2.649  2.4798  1.9713 -2.1003
 2008TIP3    H230220   0.596   0.195   2.546 -0.3756 -1.0040 -1.2485
 2009TIP3   OH230221   0.977   6.139   9.665 -0.1800 -0.3675  0.1928
 2009TIP3    H130222   0.937   6.088   9.595  1.1826  0.2603 -1.1150
 2009TIP3    H230223   0.981   6.079   9.740 -1.0874 -1.2707 -0.4585
 2010TIP3   OH230224   6.366   4.814   9.491  0.0155 -0.0214 -0.2442
 2010TIP3    H130225   6.368   4.721   9.513  0.8262  0.5788  2.7436
 2010TIP3    H230226   6.424   4.855   9.556 -1.9773  2.7995 -0.0424
 2011TIP3   OH230227   0.202   3.330   9.454 -0.4420 -0.1567 -0.3780
 2011TIP3    H130228   0.169   3.392   9.389 -0.9202  0.3434  0.3191
 2011TIP3    H230229   0.183   3.372   9.538 -3.1698 -2.3715  0.2504
 2012TIP3   OH230230   6.170   7.180   2.043 -0.6428  0.1008  0.0925
 2012TIP3    H130231   6.174   7.231   1.962  0.9954  1.3168  0.8721
 2012TIP3    H230232   6.142   7.244   2.109  1.6119  0.1158  1.1220
 2013TIP3   OH230233   4.507   6.734   0.682  0.1138  0.5187 -0.2537
 2013TIP3    H130234   4.438   6.795   0.656 -0.8638 -0.7535 -0.7748
 2013TIP3    H230235   4.505   6.736   0.778 -2.7316 -1.6096 -0.1292
 2014TIP3   OH230236   7.411   1.512   8.388 -0.4425 -0.8260  0.2606
 2014TIP3    H130237   7.355   1.505   8.466 -0.9533  2.5629  0.3495
 2014TIP3    H230238   7.441   1.603   8.389  3.5373 -1.9625 -0.9213
 2015TIP3   OH230239   5.257   3.681   6.838  0.0491  0.1838  0.0587
 2015TIP3    H130240   5.212   3.678   6.754 -0.9405  1.7454  0.4940
 2015TIP3    H230241   5.218   3.610   6.889 -0.2687  0.0547 -0.3673
 2016TIP3   OH230242   0.231   0.880   8.004  0.1689  0.1912 -0.9358
 2016TIP3    H130243   0.258   0.891   7.913 -0.5570  0.5476 -1.1226
 2016TIP3    H230244   0.135   0.877   7.999  0.1380 -3.5119 -0.6096
 2017TIP3   OH230245   3.326   3.209   0.136  0.6417 -0.0516 -0.1468
 2017TIP3    H130246   3.350   3.123   0.169  1.2429 -0.6442 -2.0292
 2017TIP3    H230247   3.396   3.267   0.165  0.6747 -0.3658  0.4010
 2018TIP3   OH230248   6.556   3.609   8.698  0.1458 -0.8385  0.1372
 2018TIP3    H130249   6.541   3.545   8.767 -1.1031 -0.5432  0.1697
 2018TIP3    H230250   6.636   3.655   8.725 -0.6892 -0.2506  1.7728
 2019TIP3   OH230251   1.193   2.551   9.394 -0.3637  0.1947  0.1590
 2019TIP3    H130252   1.220   2.466   9.361  0.0883  1.0570 -1.8714
 2019TIP3    H230253   1.253   2.570   9.466  0.6697 -0.4389 -0.5214
 2020TIP3   OH230254   6.505   2.497   8.235  0.4952  0.0074 -0.1417
 2020TIP3    H130255   6.505   2.407   8.268  1.9672  0.5439  1.5601
 2020TIP3    H230256   6.494   2.489   8.141 -1.8103 -1.7873  0.1888
 2021TIP3   OH230257   3.907   4.084   8.451  0.4066  0.1188  0.1900
 2021TIP3    H130258   3.965   4.154   8.481  1.1147 -0.0382 -0.7644
 2021TIP3    H230259   3.944   4.056   8.367 -0.7526 -0.3564 -0.1853
 2022TIP3   OH230260   1.167   5.813   1.804 -0.0673 -0.0280  0.1522
 2022TIP3    H130261   1.192   5.903   1.822  0.6749 -0.7272  3.1878
 2022TIP3    H230262   1.075   5.808   1.831  0.1643 -0.3631  0.9188
 2023TIP3   OH230263   5.798   2.284   0.701 -0.3179 -0.6280 -0.4469
 2023TIP3    H130264   5.738   2.286   0.776 -1.0941 -1.1709 -1.0474
 2023TIP3    H230265   5.799   2.192   0.674 -0.3455 -0.3685 -1.3454
 2024TIP3   OH230266   1.297   1.782   8.826  0.2175  0.6811  0.1243
 2024TIP3    H130267   1.261   1.800   8.913 -0.4809  1.9432 -0.3837
 2024TIP3    H230268   1.224   1.744   8.777  0.4726  0.4036 -0.0450
 2025TIP3   OH230269   3.704   3.606   1.587 -0.3801  0.5606  0.1595
 2025TIP3    H130270   3.648   3.683   1.578  0.4594  1.4093  1.7675
 2025TIP3    H230271   3.648   3.539   1.625 -0.8796  0.6543 -0.4031
 2026TIP3   OH230272   1.301   0.079   8.957  0.2683 -0.4338  0.1019
 2026TIP3    H130273   1.253   0.017   8.902 -1.1460 -0.8316  1.6870
 2026TIP3    H230274   1.343   0.024   9.023  1.4486  0.0905 -0.1848
 2027TIP3   OH230275   2.974   2.755   9.396  0.2822  0.1123  0.2032
 2027TIP3    H130276   2.934   2.744   9.310  1.2727 -0.8852 -0.1610
 2027TIP3    H230277   2.900   2.762   9.457 -0.4287  0.4610 -0.6804
 2028TIP3   OH230278   0.090   4.188   9.983 -0.1081  0.5783  0.7124
 2028TIP3    H130279   0.056   4.177  10.072 -0.1242  0.5491  0.7024
 2028TIP3    H230280   0.081   4.282   9.966  0.5125  0.6918  0.9893
 2029TIP3   OH230281   7.647   4.780   8.117  0.1807 -0.3020 -0.5816
 2029TIP3    H130282   7.675   4.831   8.193  1.4921 -1.5588 -0.1635
 2029TIP3    H230283   7.554   4.762   8.133  0.3587 -0.2603  0.5791
 2030TIP3   OH230284   2.519   6.070   1.998 -0.5588  0.1526 -0.4983
 2030TIP3    H130285   2.553   6.088   2.086 -0.3361 -1.0640 -0.3230
 2030TIP3    H230286   2.433   6.030   2.013 -0.0278 -1.1522 -0.7663
 2031TIP3   OH230287   4.871   0.534   7.442 -0.1785  0.4924 -0.0410
 2031TIP3    H130288   4.915   0.612   7.408  1.3167 -0.4227 -0.3040
 2031TIP3    H230289   4.793   0.525   7.387 -0.0391  1.4432 -0.4224
 2032TIP3   OH230290   0.661   7.252   8.937  0.5616 -0.0701  0.1561
 2032TIP3    H130291   0.718   7.194   8.887 -0.7658 -1.5420  0.2602
 2032TIP3    H230292   0.616   7.304   8.871 -0.4593 -1.3193 -0.1828
 2033TIP3   OH230293   1.047   6.806   7.800 -0.1197 -0.1844  0.0302
 2033TIP3    H130294   1.082   6.739   7.859 -1.6221 -1.2906 -0.2454
 2033TIP3    H230295   1.000   6.867   7.857 -2.6615 -1.9460  0.0103
 2034TIP3   OH230296   6.692   2.495   1.214  0.5371  0.5904 -0.0418
 2034TIP3    H130297   6.648   2.453   1.140  1.5543 -1.6710  0.5516
 2034TIP3    H230298   6.764   2.544   1.176  0.8056 -0.2285 -0.6222
 2035TIP3   OH230299   0.426   0.153   0.189  0.2302  0.2181 -0.2752
 2035TIP3    H130300   0.361   0.122   0.251  0.7942 -0.5804 -0.0630
 2035TIP3    H230301   0.393   0.237   0.158 -0.3415  0.3440  0.6644
 2036TIP3   OH230302   5.717   2.399   3.004  0.0957 -0.2594  0.3028
 2036TIP3    H130303   5.661   2.429   2.933 -0.4862  0.0323  0.8662
 2036TIP3    H230304   5.689   2.309   3.020  0.2621 -0.3413  0.1193
 2037TIP3   OH230305   5.652   1.667   1.946 -0.1529 -0.4732 -0.0461
 2037TIP3    H130306   5.656   1.593   1.885  0.7454  0.3139 -0.9954
 2037TIP3    H230307   5.586   1.725   1.908 -1.8665 -1.3605  1.4257
 2038TIP3   OH230308   6.441   6.153   7.853 -0.2948 -0.1373 -0.0304
 2038TIP3    H130309   6.477   6.123   7.937 -0.0499 -0.4209 -0.2340
 2038TIP3    H230310   6.413   6.243   7.870  0.0727 -0.0749  0.2637
 2039TIP3   OH230311   3.282   6.046   7.376  0.0639 -0.4242 -0.1203
 2039TIP3    H130312   3.323   6.042   7.290 -1.7839 -0.6730 -1.0351
 2039TIP3    H230313   3.194   6.079   7.360 -0.7409 -1.6133  1.4965
 2040TIP3   OH230314   0.932   6.663   9.357 -0.4376 -0.6968  0.4633
 2040TIP3    H130315   0.841   6.670   9.383 -1.1073 -2.2959 -1.2619
 2040TIP3    H230316   0.979   6.644   9.438 -1.7764 -0.9244  1.2053
 2041TIP3   OH230317   1.124   2.943   7.598 -0.1433  0.8764  0.3688
 2041TIP3    H130318   1.110   2.862   7.647  2.6020  0.3251  0.4213
 2041TIP3    H230319   1.171   3.000   7.659 -2.8877  2.9986  0.6822
 2042TIP3   OH230320   1.622   0.808   1.572 -0.5021  0.3396  0.3456
 2042TIP3    H130321   1.591   0.890   1.534  0.4902 -0.3965 -2.3055
 2042TIP3    H230322   1.710   0.828   1.604 -0.7572  0.5999  0.8981
 2043TIP3   OH230323   3.919   0.087   8.586 -0.2706 -0.4961  0.5112
 2043TIP3    H130324   3.884   0.074   8.498  0.6810  0.4041 -0.0254
 2043TIP3    H230325   3.884   0.014   8.637  0.2889 -1.8424 -0.9520
 2044TIP3   OH230326   2.465   7.131   0.889 -0.7893 -0.2210  0.2173
 2044TIP3    H130327   2.416   7.207   0.857 -1.6172 -1.4293 -1.5725
 2044TIP3    H230328   2.403   7.084   0.945 -1.3768 -1.1383 -1.1287
 2045TIP3   OH230329   3.606   1.091   1.046 -0.1320 -0.4038  0.8361
 2045TIP3    H130330   3.646   1.110   1.131  0.0325 -2.3723  1.2297
 2045TIP3    H230331   3.652   1.150   0.985  1.0848 -0.3094  1.7991
 2046TIP3   OH230332   2.217   5.151   9.215  0.2923  0.3690  0.3281
 2046TIP3    H130333   2.285   5.122   9.276  1.2538 -0.6416 -1.1696
 2046TIP3    H230334   2.229   5.096   9.138 -2.7549 -0.3806  0.2802
 2047TIP3   OH230335   7.627   2.939   9.134 -0.8496  0.1959 -0.4327
 2047TIP3    H130336   7.575   3.003   9.085  0.2022  0.2731 -1.4868
 2047TIP3    H230337   7.563   2.890   9.185 -1.6487  2.6142  1.0839
 2048TIP3   OH230338   4.401   6.819   9.668 -0.3712 -0.2372  0.1545
 2048TIP3    H130339   4.342   6.805   9.743 -0.7613  0.3090 -0.0389
 2048TIP3    H230340   4.355   6.884   9.615  0.0927 -0.3294 -0.3566
 2049TIP3   OH230341   0.681   1.374   2.334 -0.1103  0.2743 -0.1787
 2049TIP3    H130342   0.632   1.357   2.414  1.4907 -0.1163  0.7714
 2049TIP3    H230343   0.647   1.458   2.302 -0.6496  0.5284  1.0121
 2050TIP3   OH230344   6.066   5.526   8.448 -0.7650  0.0063 -0.2710
 2050TIP3    H130345   6.087   5.582   8.373 -1.3286  1.3639  0.5608
 2050TIP3    H230346   6.083   5.580   8.524  0.9160 -1.7322  0.6774
 2051TIP3   OH230347   4.470   7.673   1.997  0.2975 -0.6829 -0.2899
 2051TIP3    H130348   4.451   7.657   1.905 -0.4724 -1.4580 -0.0204
 2051TIP3    H230349   4.400   7.733   2.026 -0.4996 -1.7930  0.1774
 2052TIP3   OH230350   3.069   6.559   2.668  0.1812 -0.4580 -0.0980
 2052TIP3    H130351   2.997   6.551   2.606  0.3217  3.0640 -0.9124
 2052TIP3    H230352   3.035   6.522   2.749 -1.6622 -1.0118 -1.0617
 2053TIP3   OH230353   6.221   7.311   9.622  0.6019  0.2984 -0.3046
 2053TIP3    H130354   6.244   7.356   9.541 -0.2107  1.6532  0.1887
 2053TIP3    H230355   6.126   7.314   9.626  0.6245  0.1089  0.6265
 2054TIP3   OH230356   3.638   6.458   7.790 -0.1690  0.3782  0.3907
 2054TIP3    H130357   3.646   6.468   7.695  0.8767 -0.5467  0.3547
 2054TIP3    H230358   3.684   6.533   7.827  1.2030 -0.3163  0.1487
 2055TIP3   OH230359   2.378   2.982   2.317 -0.3892  0.2774 -0.3977
 2055TIP3    H130360   2.323   3.056   2.291  0.6869  0.9252 -0.9276
 2055TIP3    H230361   2.330   2.941   2.389 -0.5793  2.0683  0.5686
 2056TIP3   OH230362   4.171   4.230   7.052  0.3015 -0.5441 -0.0643
 2056TIP3    H130363   4.091   4.178   7.056 -1.1470  1.5661 -0.2631
 2056TIP3    H230364   4.226   4.184   6.988 -0.7678 -1.9495 -0.0339
 2057TIP3   OH230365   6.413   6.940   1.043 -0.3416  0.1347  0.0629
 2057TIP3    H130366   6.318   6.946   1.031 -0.2273  2.1350 -0.3464
 2057TIP3    H230367   6.436   6.852   1.015 -1.9667 -0.0586 -0.7702
 2058TIP3   OH230368   7.256   2.452   0.575 -0.1398  0.3389 -0.1463
 2058TIP3    H130369   7.193   2.522   0.558 -0.7084  0.2793  1.5975
 2058TIP3    H230370   7.206   2.384   0.620  1.0208  0.0500  0.7614
 2059TIP3   OH230371   2.545   5.161   1.132 -0.2534 -0.0279  0.1846
 2059TIP3    H130372   2.585   5.248   1.131  1.1543 -0.6395  0.4006
 2059TIP3    H230373   2.484   5.164   1.205 -0.3875  0.8430  0.0569
 2060TIP3   OH230374   7.462   6.498   8.748  0.6274 -0.1670  0.2866
 2060TIP3    H130375   7.476   6.592   8.746 -2.1856  0.3687 -2.1231
 2060TIP3    H230376   7.513   6.464   8.675 -0.7284  0.0063 -0.7820
 2061TIP3   OH230377   1.200   0.447   1.069  0.4081 -0.5365  0.0481
 2061TIP3    H130378   1.258   0.523   1.072 -0.1084 -0.1706  1.3748
 2061TIP3    H230379   1.113   0.482   1.092  0.0302 -1.4163 -0.0025
 2062TIP3   OH230380   3.040   2.101   9.055 -0.2804 -0.6875  0.3041
 2062TIP3    H130381   3.063   2.008   9.048  1.7135 -0.2128 -0.1495
 2062TIP3    H230382   3.101   2.135   9.121 -0.8012  0.3665  0.2502
 2063TIP3   OH230383   6.654   4.220   9.703 -0.0875 -0.6106  0.0362
 2063TIP3    H130384   6.645   4.126   9.686  1.4673 -0.4119 -2.3569
 2063TIP3    H230385   6.651   4.261   9.616 -1.9536  1.7407  1.0815
 2064TIP3   OH230386   0.228   0.374   8.340 -0.3567 -0.1846  0.3064
 2064TIP3    H130387   0.289   0.445   8.322 -0.8631 -0.1446 -1.4289
 2064TIP3    H230388   0.142   0.411   8.319 -0.6707 -1.1630 -0.1919
 2065TIP3   OH230389   1.758   4.100   2.011 -0.5513 -0.0185 -0.1085
 2065TIP3    H130390   1.733   4.008   2.017 -0.2702 -0.1783 -1.1586
 2065TIP3    H230391   1.835   4.100   1.955  0.8249  0.6365  1.6928
 2066TIP3   OH230392   1.234   5.255   7.769  0.2041 -0.0814  0.2407
 2066TIP3    H130393   1.248   5.302   7.687 -0.8875  0.1958  0.1932
 2066TIP3    H230394   1.142   5.230   7.767  0.7849 -2.5327  0.1246
 2067TIP3   OH230395   3.390   1.496   0.574  0.1105 -0.6934 -0.0124
 2067TIP3    H130396   3.430   1.449   0.501 -0.8616  0.7322 -1.5397
 2067TIP3    H230397   3.296   1.486   0.560 -0.2142  2.7272 -1.2374
 2068TIP3   OH230398   5.178   2.524   9.005  0.5730 -0.1546  0.2761
 2068TIP3    H130399   5.118   2.579   9.056  0.9095  0.9277 -0.4569
 2068TIP3    H230400   5.252   2.581   8.986  0.3127 -0.4085 -1.6755
 2069TIP3   OH230401   2.465   6.993   2.240  0.2440  0.1887  0.1058
 2069TIP3    H130402   2.509   6.915   2.206  0.6761  0.2252  0.5747
 2069TIP3    H230403   2.384   6.999   2.189  1.1514  0.5836 -1.3522
 2070TIP3   OH230404   0.446   4.378   9.171  0.1285  0.0434 -0.2349
 2070TIP3    H130405   0.534   4.341   9.162  0.1577  0.0045  0.1988
 2070TIP3    H230406   0.447   4.456   9.115  0.8307  0.7290  0.6882
 2071TIP3   OH230407   6.619   6.380   9.796 -0.0420 -0.0913 -0.1215
 2071TIP3    H130408   6.658   6.435   9.728  0.7382  1.0784  1.2212
 2071TIP3    H230409   6.566   6.315   9.748 -0.5168  1.4554 -1.7773
 2072TIP3   OH230410   0.577   1.936   9.769  0.1777  0.7298  0.6922
 2072TIP3    H130411   0.605   1.956   9.679 -2.9899  3.1204  0.0489
 2072TIP3    H230412   0.485   1.909   9.760 -0.2141  0.9787  3.2204
 2073TIP3   OH230413   3.451   1.413   0.134  0.1793  0.2415  0.1797
 2073TIP3    H130414   3.409   1.490   0.174  1.0362 -0.0649  1.7777
 2073TIP3    H230415   3.430   1.341   0.194 -2.4501 -1.3308 -2.3935
 2074TIP3   OH230416   4.466   7.054   8.148  0.6616 -0.7170  0.6141
 2074TIP3    H130417   4.484   7.007   8.067 -0.0121 -1.3613  0.8345
 2074TIP3    H230418   4.523   7.012   8.213 -0.3213 -1.6149  0.9289
 2075TIP3   OH230419   6.256   4.115   9.148 -0.2503  0.0162 -0.2061
 2075TIP3    H130420   6.275   4.041   9.090  0.4702  0.8014 -1.0065
 2075TIP3    H230421   6.190   4.082   9.208 -0.1352 -1.1975 -0.7141
 2076TIP3   OH230422   2.971   0.016   9.643  0.3619 -0.1862 -0.4655
 2076TIP3    H130423   2.943   0.104   9.619 -1.4100 -0.6991 -0.4686
 2076TIP3    H230424   3.029  -0.011   9.572 -1.1276  0.0519 -1.8517
 2077TIP3   OH230425   1.866   5.978   9.315  0.7231 -0.1438  0.4322
 2077TIP3    H130426   1.776   5.947   9.325  0.7297  0.2643  2.0469
 2077TIP3    H230427   1.857   6.073   9.304  0.9465 -0.0925  0.6763
 2078TIP3   OH230428   1.472   2.032   1.953  0.5084 -0.0953  0.3457
 2078TIP3    H130429   1.393   2.045   2.007 -1.2100  1.7152 -2.3721
 2078TIP3    H230430   1.465   1.942   1.922 -0.4460  0.0084  0.2289
 2079TIP3   OH230431   3.791   6.595   2.607  0.1433 -0.2570  0.0404
 2079TIP3    H130432   3.704   6.598   2.567  0.3544  4.5769 -0.6478
 2079TIP3    H230433   3.779   6.634   2.694  1.7396  2.3257 -0.7777
 2080TIP3   OH230434   5.944   1.350   7.570  0.2221 -0.0427  0.3146
 2080TIP3    H130435   5.999   1.337   7.493  0.1392  0.3515  0.1842
 2080TIP3    H230436   5.983   1.425   7.616 -0.5495  0.6434 -0.1090
 2081TIP3   OH230437   0.020   3.052   6.562 -0.6747 -0.3607 -0.4661
 2081TIP3    H130438   0.082   3.042   6.490  0.1146  0.4796  0.0730
 2081TIP3    H230439  -0.066   3.053   6.520 -0.1593  1.6516 -1.5893
 2082TIP3   OH230440   1.100   3.360   9.436 -0.6258 -0.5049  0.5142
 2082TIP3    H130441   1.186   3.323   9.454  0.1805  0.4839 -0.9849
 2082TIP3    H230442   1.060   3.372   9.522  0.8952 -0.6307  1.2774
 2083TIP3   OH230443   1.126   0.396   8.440 -0.1603  0.1395 -0.8660
 2083TIP3    H130444   1.109   0.406   8.346  0.7603 -0.9759 -1.1822
 2083TIP3    H230445   1.040   0.393   8.480 -0.5791 -0.1065 -1.7619
 2084TIP3   OH230446   3.957   0.186   8.984  0.1783 -0.2384 -0.2963
 2084TIP3    H130447   4.035   0.202   8.931  1.6974  2.6972  2.4843
 2084TIP3    H230448   3.897   0.256   8.961  0.1035 -0.0260  0.5221
 2085TIP3   OH230449   0.544   0.127   8.562  0.0614  0.1158 -0.0005
 2085TIP3    H130450   0.510   0.189   8.497  0.1500 -0.0545 -0.2080
 2085TIP3    H230451   0.592   0.182   8.623  2.8117 -0.0203 -1.8705
 2086TIP3   OH230452   0.612   6.792   1.415 -0.5562  0.2288 -0.1071
 2086TIP3    H130453   0.558   6.826   1.486  0.6085  1.0389  0.4296
 2086TIP3    H230454   0.651   6.713   1.451 -2.3945 -1.1252 -0.9676
 2087TIP3   OH230455   2.869   6.818   2.762 -0.2063 -0.2644 -0.3121
 2087TIP3    H130456   2.824   6.736   2.778  0.0968 -0.3100  0.3604
 2087TIP3    H230457   2.857   6.835   2.668 -0.6079 -0.8657 -0.3728
 2088TIP3   OH230458   6.866   3.361   7.274  0.3594  0.1621 -0.6099
 2088TIP3    H130459   6.788   3.316   7.241  0.5302  0.5757 -1.6169
 2088TIP3    H230460   6.938   3.301   7.257  0.2758 -0.2149  0.3094
 2089TIP3   OH230461   7.679   7.623   0.623  0.5060 -0.1252  0.0559
 2089TIP3    H130462   7.658   7.690   0.558  0.4977 -1.6044 -1.5162
 2089TIP3    H230463   7.766   7.592   0.598  0.9830  0.0450  1.4315
 2090TIP3   OH230464   0.562   2.662   0.251  0.5883 -0.0178 -0.4658
 2090TIP3    H130465   0.640   2.633   0.297  0.7733 -0.5866 -1.1131
 2090TIP3    H230466   0.489   2.625   0.301  0.7957 -0.9122 -0.7992
 2091TIP3   OH230467   0.393   5.235   8.475 -0.0307  0.7811 -0.3849
 2091TIP3    H130468   0.321   5.295   8.496 -1.1469  0.1820 -2.2267
 2091TIP3    H230469   0.405   5.184   8.556 -1.3963  1.1908  0.1186
 2092TIP3   OH230470   5.848   3.505   0.112  0.2023  0.8136  0.1755
 2092TIP3    H130471   5.809   3.436   0.166 -0.0082  0.8690  0.0953
 2092TIP3    H230472   5.936   3.518   0.149  0.9670 -0.8059 -0.9724
 2093TIP3   OH230473   6.907   6.880   7.563 -0.1647 -0.5622 -0.4663
 2093TIP3    H130474   6.984   6.834   7.531 -0.0175 -1.0466  0.5607
 2093TIP3    H230475   6.922   6.891   7.657 -1.7259 -1.4721 -0.0623
 2094TIP3   OH230476   7.116   2.449   9.723  0.0283 -0.0370  0.3219
 2094TIP3    H130477   7.036   2.491   9.690 -0.6891  0.7245  2.7681
 2094TIP3    H230478   7.084   2.376   9.777  1.0203 -0.2133  0.6926
 2095TIP3   OH230479   0.279   7.455   7.164 -0.0539  0.3629 -0.5518
 2095TIP3    H130480   0.233   7.511   7.102 -1.5956 -1.4933 -1.1830
 2095TIP3    H230481   0.212   7.427   7.226  0.7603 -0.4006  0.0138
 2096TIP3   OH230482   6.171   0.984   1.098  0.1761 -0.1291  0.1709
 2096TIP3    H130483   6.254   0.937   1.082  0.4080  0.2861  0.1389
 2096TIP3    H230484   6.198   1.073   1.120 -0.1695 -0.4437  2.0354
 2097TIP3   OH230485   0.936   1.284   9.213  0.2909 -0.6389  0.3767
 2097TIP3    H130486   1.012   1.228   9.223  0.8361  0.1874  1.0197
 2097TIP3    H230487   0.972   1.370   9.189 -0.1829  0.4411  3.1644
 2098TIP3   OH230488   3.342   2.510   8.255  0.4060 -0.5115 -0.6543
 2098TIP3    H130489   3.353   2.600   8.286  1.3643 -1.3758  1.7338
 2098TIP3    H230490   3.326   2.519   8.161  0.5160  2.1311 -0.4982
 2099TIP3   OH230491   6.624   0.816   1.272 -0.5338 -0.8435 -0.1371
 2099TIP3    H130492   6.566   0.886   1.304 -2.0000 -1.8316 -0.5456
 2099TIP3    H230493   6.679   0.795   1.347  0.9981  1.7413 -0.4198
 2100TIP3   OH230494   1.131   3.999   6.997 -0.2047 -0.0527 -0.5527
 2100TIP3    H130495   1.166   4.086   7.015  1.7008 -0.9128  0.2461
 2100TIP3    H230496   1.036   4.009   7.002 -0.0016  1.8000  0.3092
 2101TIP3   OH230497   1.218   6.359   2.659  0.5588 -0.2931  0.0594
 2101TIP3    H130498   1.209   6.399   2.746  0.5790 -1.8731  0.8189
 2101TIP3    H230499   1.312   6.344   2.649  0.5342 -0.3192 -0.1407
 2102TIP3   OH230500   7.331   6.706   8.210  0.1702  0.2083 -0.0373
 2102TIP3    H130501   7.340   6.678   8.119  1.2626 -0.8429  0.3698
 2102TIP3    H230502   7.420   6.730   8.236 -0.1585  0.6234  0.7196
 2103TIP3   OH230503   1.633   6.195   1.535 -0.3279  0.0080  0.3852
 2103TIP3    H130504   1.557   6.137   1.534 -0.1868 -0.1750 -0.1122
 2103TIP3    H230505   1.647   6.216   1.627 -0.7339 -0.2838  0.5119
 2104TIP3   OH230506   6.569   3.619   7.710 -0.1208 -0.2957  0.2272
 2104TIP3    H130507   6.541   3.595   7.622 -0.8693 -1.5075  0.7601
 2104TIP3    H230508   6.659   3.588   7.716 -0.8737 -2.6068  0.6911
 2105TIP3   OH230509   2.304   7.543   8.524 -0.6219 -0.1385 -0.4167
 2105TIP3    H130510   2.317   7.461   8.570 -3.3620 -0.8599 -0.7419
 2105TIP3    H230511   2.343   7.610   8.581  0.8619 -1.5338  0.2685
 2106TIP3   OH230512   2.746   7.491   9.262 -0.0708 -0.0114  0.2918
 2106TIP3    H130513   2.825   7.544   9.261  1.1595 -1.7757 -0.6802
 2106TIP3    H230514   2.729   7.470   9.170 -1.5738  0.1919  0.4983
 2107TIP3   OH230515   4.566   2.447   7.134 -0.3050 -0.1781 -0.2146
 2107TIP3    H130516   4.598   2.357   7.123  0.0876 -0.3666  2.0048
 2107TIP3    H230517   4.499   2.457   7.066 -0.3797 -2.1579 -0.5026
 2108TIP3   OH230518   1.125   2.953   7.211 -0.3719  0.0073 -0.0291
 2108TIP3    H130519   1.209   2.919   7.242 -0.3726 -1.0584 -1.1045
 2108TIP3    H230520   1.148   3.029   7.159 -0.1865  0.4405  0.6704
 2109TIP3   OH230521   5.630   1.565   0.442  0.1535  0.3245 -0.3294
 2109TIP3    H130522   5.535   1.568   0.453  0.1764 -0.9308  0.3987
 2109TIP3    H230523   5.643   1.541   0.351 -0.2727 -0.9740 -0.0713
 2110TIP3   OH230524   6.133   0.511   8.544 -0.3240  0.4128  0.1832
 2110TIP3    H130525   6.172   0.585   8.497 -2.5774  0.4562 -1.8211
 2110TIP3    H230526   6.053   0.547   8.582  0.2568 -0.2320  2.1387
 2111TIP3   OH230527   4.891   4.658   7.797  0.1366 -0.0794  0.3289
 2111TIP3    H130528   4.936   4.632   7.717  2.1142 -0.4213  1.4754
 2111TIP3    H230529   4.940   4.614   7.867 -1.2817  0.5136  1.7492
 2112TIP3   OH230530   1.204   0.554   7.999 -0.2674 -0.3099  0.1344
 2112TIP3    H130531   1.219   0.625   8.061  1.3033 -0.4518 -0.0365
 2112TIP3    H230532   1.171   0.597   7.920  2.6587  0.6120 -0.7351
 2113TIP3   OH230533   4.195   0.170   6.930  0.0357 -0.2017  0.1969
 2113TIP3    H130534   4.222   0.109   6.862 -0.7319  0.6176 -0.8733
 2113TIP3    H230535   4.277   0.200   6.969  0.5587  0.2445 -1.2024
 2114TIP3   OH230536   3.538   7.216   2.349 -0.1027  0.4754  0.6532
 2114TIP3    H130537   3.619   7.268   2.348 -1.0545  2.0215 -0.0914
 2114TIP3    H230538   3.538   7.173   2.435  2.2960 -0.9080  0.0611
 2115TIP3   OH230539   7.100   6.151   1.247 -0.2921 -0.1109 -0.2123
 2115TIP3    H130540   7.097   6.073   1.303 -0.7726  0.9619  1.3424
 2115TIP3    H230541   7.179   6.197   1.274 -0.6348  0.5209 -0.2692
 2116TIP3   OH230542   3.321   6.288   7.700 -0.4831 -0.2607 -0.2489
 2116TIP3    H130543   3.387   6.234   7.743 -1.4554 -2.1189 -0.9901
 2116TIP3    H230544   3.369   6.335   7.631  0.1107 -1.4162 -0.6430
 2117TIP3   OH230545   6.564   4.456   8.817  0.0563 -0.0340  0.1977
 2117TIP3    H130546   6.581   4.444   8.723 -1.0006 -0.6840  0.0674
 2117TIP3    H230547   6.501   4.387   8.838 -0.7940  0.9743  1.0627
 2118TIP3   OH230548   6.676   4.871   8.055  0.2941  0.1281  0.1132
 2118TIP3    H130549   6.655   4.854   7.964  1.1258 -1.0722  0.1227
 2118TIP3    H230550   6.591   4.867   8.100  0.0271 -0.4350 -0.4319
 2119TIP3   OH230551   1.938   1.357   8.539 -0.2019 -0.1523 -0.4607
 2119TIP3    H130552   1.885   1.418   8.590  0.7442 -1.0909  1.7595
 2119TIP3    H230553   1.926   1.272   8.581  0.5195 -1.0291 -1.9148
 2120TIP3   OH230554   1.618   5.860   0.655 -0.2199  0.0401 -0.2192
 2120TIP3    H130555   1.649   5.951   0.650 -0.2859  0.0337 -0.8498
 2120TIP3    H230556   1.585   5.841   0.567  0.8217 -0.9568 -0.4244
 2121TIP3   OH230557   3.377   2.283   0.750 -0.4263 -0.3796 -0.9689
 2121TIP3    H130558   3.397   2.190   0.760 -0.5119 -0.2457  0.7285
 2121TIP3    H230559   3.312   2.286   0.680 -1.9839 -1.8486  0.3056
 2122TIP3   OH230560   6.382   6.097   8.775 -0.6517  0.4732 -0.2491
 2122TIP3    H130561   6.404   6.152   8.850 -2.7900 -0.5750  1.2777
 2122TIP3    H230562   6.374   6.009   8.812 -1.5277 -0.1200 -1.7536
 2123TIP3   OH230563   2.342   6.916   0.107 -0.5040 -0.2051  0.7364
 2123TIP3    H130564   2.418   6.973   0.109 -1.4523  1.1719 -0.1474
 2123TIP3    H230565   2.372   6.836   0.066  0.3684  0.4942 -0.0177
 2124TIP3   OH230566   3.763   1.877   9.791  0.2573 -0.2447  0.2032
 2124TIP3    H130567   3.692   1.814   9.797 -0.1325  0.2141  0.4756
 2124TIP3    H230568   3.816   1.860   9.869  0.0300 -0.0867  0.3923
 2125TIP3   OH230569   1.945   1.206   3.233 -0.6108  1.0111  0.0363
 2125TIP3    H130570   1.981   1.243   3.314 -1.2700  1.9829 -0.0986
 2125TIP3    H230571   1.982   1.118   3.229  1.1835  1.7066  0.2541
 2126TIP3   OH230572   1.198   4.882   8.139 -0.3492 -0.0909  0.0837
 2126TIP3    H130573   1.233   4.942   8.205 -1.2733  1.1897 -0.5464
 2126TIP3    H230574   1.132   4.934   8.092 -0.0727 -1.1194 -1.5098
 2127TIP3   OH230575   6.792   7.555   1.394  0.5663 -0.1864  0.1734
 2127TIP3    H130576   6.811   7.469   1.430  1.1478  0.2765  1.0217
 2127TIP3    H230577   6.825   7.552   1.304  1.5746 -0.5086  0.5379
 2128TIP3   OH230578   5.265   1.348   9.019 -0.3414 -0.1774  0.1674
 2128TIP3    H130579   5.211   1.402   8.962  1.0559  1.5302  0.3704
 2128TIP3    H230580   5.338   1.320   8.964  1.0551  1.5429  1.0273
 2129TIP3   OH230581   4.697   3.986   9.189 -0.2273  0.9228  0.5428
 2129TIP3    H130582   4.625   4.016   9.243 -0.6543  2.2421 -0.6757
 2129TIP3    H230583   4.688   3.891   9.186 -0.4614  0.8603  2.3428
 2130TIP3   OH230584   5.933   1.772   0.881 -0.1633 -0.4118  0.2217
 2130TIP3    H130585   5.953   1.728   0.799 -0.8687 -0.7609  0.2336
 2130TIP3    H230586   5.860   1.723   0.919  0.0738 -0.1852  1.0018
 2131TIP3   OH230587   1.315   5.738   0.181  0.7217 -0.1810  0.3388
 2131TIP3    H130588   1.322   5.833   0.174 -1.7112  0.0132 -0.5155
 2131TIP3    H230589   1.342   5.706   0.096  1.0843 -0.2223  0.4688
 2132TIP3   OH230590   4.519   0.420   7.025 -0.1115 -0.0457  0.3083
 2132TIP3    H130591   4.504   0.485   6.956  2.1603  0.1794 -0.0471
 2132TIP3    H230592   4.480   0.339   6.992 -2.4897  0.9316  0.5161
 2133TIP3   OH230593   5.922   4.927   7.802 -0.0041  0.2111  0.1628
 2133TIP3    H130594   5.950   4.998   7.745 -0.7572  0.4719  0.1025
 2133TIP3    H230595   5.833   4.906   7.773  0.1998 -0.7516  0.1866
 2134TIP3   OH230596   1.635   1.065   0.644  0.0262 -0.2055  0.4184
 2134TIP3    H130597   1.576   0.996   0.613 -0.4509  0.2584  0.2624
 2134TIP3    H230598   1.686   1.089   0.567 -0.6120  0.4022  0.1681
 2135TIP3   OH230599   1.972   6.454   0.163 -0.3052 -0.1241  0.1854
 2135TIP3    H130600   1.914   6.462   0.240  1.1908 -1.2702  1.5012
 2135TIP3    H230601   2.001   6.543   0.146 -1.4755  0.2978  0.2751
 2136TIP3   OH230602   1.528   2.053   9.987 -0.2156  0.5112 -0.7429
 2136TIP3    H130603   1.441   2.043  10.024 -1.5032 -0.7054 -3.7996
 2136TIP3    H230604   1.586   2.008  10.048 -1.6902  1.2896  1.3174
 2137TIP3   OH230605   0.407   6.207   1.317  0.1497  0.4081  0.1240
 2137TIP3    H130606   0.366   6.227   1.401 -1.8242 -1.0291 -0.4313
 2137TIP3    H230607   0.430   6.114   1.323  1.5626  0.7019 -0.3365
 2138TIP3   OH230608   1.405   5.971   1.826 -0.1266 -0.0582  0.0271
 2138TIP3    H130609   1.345   6.042   1.848 -1.2398 -1.0643  0.3258
 2138TIP3    H230610   1.408   5.916   1.904 -0.5410 -1.1899 -0.7217
 2139TIP3   OH230611   7.610   2.370   2.289  0.0071  0.4610  0.1046
 2139TIP3    H130612   7.589   2.318   2.212  0.2122  0.5403 -0.0062
 2139TIP3    H230613   7.525   2.389   2.330 -0.0517 -0.1860  0.2967
 2140TIP3   OH230614   2.038   4.604   7.777  0.4299  0.1137 -0.2802
 2140TIP3    H130615   2.102   4.540   7.745 -0.3429 -1.2230  0.7648
 2140TIP3    H230616   1.981   4.619   7.702  0.6316 -0.4090 -0.5449
 2141TIP3   OH230617   4.837   1.245   9.784  0.0412 -0.7874 -0.3957
 2141TIP3    H130618   4.927   1.226   9.813  0.0284 -1.1657 -0.5983
 2141TIP3    H230619   4.848   1.285   9.697 -0.0921 -3.4881 -1.7550
 2142TIP3   OH230620   6.526   7.526   1.089  0.4849 -0.3604  0.0738
 2142TIP3    H130621   6.602   7.555   1.037  0.6873  0.7683  0.9705
 2142TIP3    H230622   6.556   7.445   1.131  0.7647 -0.5842 -0.5393
 2143TIP3   OH230623   7.212   7.523   2.068 -0.1345 -0.0298 -0.3254
 2143TIP3    H130624   7.118   7.521   2.052 -0.1629  2.6121 -0.8730
 2143TIP3    H230625   7.220   7.564   2.154  0.5152  2.0914 -1.3264
 2144TIP3   OH230626   4.584   3.680   7.132 -0.1014  0.2238 -0.1976
 2144TIP3    H130627   4.584   3.747   7.200 -2.3081  0.6753 -0.5590
 2144TIP3    H230628   4.493   3.677   7.102  0.0926 -2.3670 -0.7624
 2145TIP3   OH230629   5.497   4.730   7.383  0.0173 -0.5327 -0.6069
 2145TIP3    H130630   5.464   4.641   7.375  0.3305 -0.8349  1.0399
 2145TIP3    H230631   5.421   4.786   7.368 -0.3506 -1.1037 -0.8845
 2146TIP3   OH230632   0.488   0.700   1.844 -0.1020  0.0521 -0.3466
 2146TIP3    H130633   0.418   0.764   1.860  0.1010  0.0418  0.6846
 2146TIP3    H230634   0.556   0.750   1.799 -0.4441  0.2626 -0.6338
 2147TIP3   OH230635   4.521   5.743   7.720 -0.7229  1.0210 -0.4178
 2147TIP3    H130636   4.453   5.698   7.670 -0.8501  1.7257 -0.8987
 2147TIP3    H230637   4.603   5.703   7.691 -0.9088  0.2817  0.0427
 2148TIP3   OH230638   1.225   2.915   9.570 -0.2593 -0.7634 -0.7633
 2148TIP3    H130639   1.159   2.873   9.626 -0.3304 -0.2233 -0.4275
 2148TIP3    H230640   1.307   2.871   9.593 -0.4225 -1.1117 -0.8361
 2149TIP3   OH230641   2.202   2.871   8.334 -1.2065 -0.0205  0.8414
 2149TIP3    H130642   2.122   2.839   8.377 -0.8414  0.3588  1.8399
 2149TIP3    H230643   2.176   2.953   8.293 -1.3798 -0.0001  0.9916
 2150TIP3   OH230644   0.589   6.531   0.243 -0.1622  0.2309 -0.0288
 2150TIP3    H130645   0.663   6.497   0.194 -0.6349  0.1238 -0.6874
 2150TIP3    H230646   0.513   6.484   0.206 -0.7662  1.6045 -0.5918
 2151TIP3   OH230647   1.002   6.171   1.764 -0.0754  0.1545  0.5384
 2151TIP3    H130648   1.083   6.172   1.714  0.4275 -1.0625  1.2951
 2151TIP3    H230649   0.939   6.127   1.707 -0.1598  0.9102  0.0366
 2152TIP3   OH230650   0.849   1.416   7.947 -0.1322 -0.1017  0.5792
 2152TIP3    H130651   0.779   1.475   7.973  1.4831  2.3847 -0.3760
 2152TIP3    H230652   0.888   1.386   8.029  0.3557  1.9123  1.1318
 2153TIP3   OH230653   6.712   5.507   0.323 -0.1748  0.6150 -0.7732
 2153TIP3    H130654   6.766   5.520   0.401 -0.2008  0.9159 -0.8052
 2153TIP3    H230655   6.775   5.506   0.251 -0.3772  3.1512 -1.0521
 2154TIP3   OH230656   7.401   4.246   1.133  0.5108  0.3359  0.0262
 2154TIP3    H130657   7.348   4.324   1.153  0.3320  0.1065  0.4533
 2154TIP3    H230658   7.491   4.280   1.126  0.3689  0.6557 -0.2656
 2155TIP3   OH230659   1.952   3.120   2.483 -1.0277 -0.2322  0.0382
 2155TIP3    H130660   2.041   3.105   2.516 -1.1776  0.4033  0.7616
 2155TIP3    H230661   1.940   3.214   2.488 -0.1504  0.3047 -4.3162
 2156TIP3   OH230662   2.667   4.363   1.744 -0.6063  0.3784 -0.1364
 2156TIP3    H130663   2.593   4.391   1.797 -0.0280  1.4399  0.1389
 2156TIP3    H230664   2.632   4.355   1.655 -1.0907  0.6841  0.0274
 2157TIP3   OH230665   3.156   5.863   7.006 -0.2603  0.3543  0.0259
 2157TIP3    H130666   3.097   5.867   7.081 -0.2735  0.2207  0.0222
 2157TIP3    H230667   3.209   5.785   7.021 -1.7758 -0.9957 -1.2320
 2158TIP3   OH230668   7.567   3.613   8.960  0.2100  0.6367 -0.5957
 2158TIP3    H130669   7.527   3.554   9.023 -0.2063  0.3397 -1.1295
 2158TIP3    H230670   7.534   3.699   8.983 -0.1202  0.4990 -0.5489
 2159TIP3   OH230671   7.579   5.360   2.184  0.3194 -0.1821 -0.0373
 2159TIP3    H130672   7.526   5.280   2.194 -0.6087  0.2302 -1.3680
 2159TIP3    H230673   7.562   5.410   2.264 -1.4259 -0.0266 -0.4539
 2160TIP3   OH230674   1.982   6.487   8.881 -0.2192 -0.0261  0.4620
 2160TIP3    H130675   1.995   6.399   8.918 -2.4140 -0.4667  0.3220
 2160TIP3    H230676   2.011   6.546   8.951  0.7650 -0.8405  0.7734
 2161TIP3   OH230677   0.938   0.784   8.047 -0.0496  0.2708  0.1838
 2161TIP3    H130678   0.882   0.859   8.068  0.1033  0.6318 -0.6626
 2161TIP3    H230679   1.012   0.792   8.108  0.3234  1.2241 -0.3860
 2162TIP3   OH230680   1.471   0.616   2.394 -0.8657  0.1253 -0.3070
 2162TIP3    H130681   1.505   0.691   2.444  0.6147 -0.1580 -0.8314
 2162TIP3    H230682   1.456   0.651   2.306  1.8065 -0.5850 -1.1402
 2163TIP3   OH230683   4.262   0.416   1.028 -0.0189 -0.0390  0.0083
 2163TIP3    H130684   4.271   0.477   1.100  0.6725 -1.8602  1.5517
 2163TIP3    H230685   4.351   0.384   1.011 -0.6167 -2.2953  0.8337
 2164TIP3   OH230686   2.077   3.095   1.728 -0.1579 -0.2135 -0.2182
 2164TIP3    H130687   2.127   3.149   1.789  1.5608 -0.2580 -1.5291
 2164TIP3    H230688   2.085   3.006   1.763 -1.5863  0.0915  1.0086
 2165TIP3   OH230689   3.038   3.803   1.632  0.0088  0.1112  0.1130
 2165TIP3    H130690   3.012   3.741   1.564  1.0407 -0.4668  0.2137
 2165TIP3    H230691   3.006   3.765   1.714 -0.5901  0.4351  0.0346
 2166TIP3   OH230692   0.766   7.170   9.956  0.2801 -0.4064  0.4476
 2166TIP3    H130693   0.728   7.180  10.044  0.3745 -0.4057  0.4883
 2166TIP3    H230694   0.702   7.211   9.898 -0.8824 -2.3085  0.2683
 2167TIP3   OH230695   1.123   6.051   8.085 -0.5882 -0.2353 -0.2093
 2167TIP3    H130696   1.028   6.064   8.093 -0.5418 -0.5135  0.9507
 2167TIP3    H230697   1.133   5.958   8.064 -0.5145 -0.7386  1.8369
 2168TIP3   OH230698   5.258   5.010   8.536  0.4678 -0.0420  0.3804
 2168TIP3    H130699   5.329   5.014   8.473 -1.2365 -1.6167 -1.8113
 2168TIP3    H230700   5.197   5.079   8.509 -0.7514 -1.3708 -0.4180
 2169TIP3   OH230701   5.389   1.551   7.489 -0.3374 -0.5448  0.0296
 2169TIP3    H130702   5.407   1.643   7.471  0.4655 -0.5734  0.6442
 2169TIP3    H230703   5.415   1.538   7.580 -3.2806 -0.6753  0.9479
 2170TIP3   OH230704   2.058   3.625   8.548 -0.3435 -0.1374  0.7484
 2170TIP3    H130705   2.151   3.645   8.542 -0.3314 -0.2989  0.3701
 2170TIP3    H230706   2.016   3.693   8.494 -0.3803 -0.5392  0.2657
 2171TIP3   OH230707   5.844   6.496   2.322 -0.2503 -0.0569  0.4242
 2171TIP3    H130708   5.793   6.494   2.403  0.5990 -0.8446  0.9727
 2171TIP3    H230709   5.901   6.572   2.332 -0.5955  0.2237  0.2721
 2172TIP3   OH230710   2.232   0.738   6.924  0.1725  0.1057 -0.3779
 2172TIP3    H130711   2.240   0.821   6.971  1.1043 -0.1869  0.0019
 2172TIP3    H230712   2.322   0.709   6.911 -0.0677  0.0529 -2.1404
 2173TIP3   OH230713   5.527   1.554   9.257  0.6991  0.5453 -0.2584
 2173TIP3    H130714   5.572   1.476   9.225 -1.3116 -0.7001 -0.2366
 2173TIP3    H230715   5.573   1.578   9.337  2.2416  0.2900 -1.0192
 2174TIP3   OH230716   6.062   7.068   0.252  0.3411 -0.0118  0.3762
 2174TIP3    H130717   6.030   7.142   0.304 -2.3713 -1.0777  0.4081
 2174TIP3    H230718   6.061   6.994   0.312  2.0244 -0.3062  0.0733
 2175TIP3   OH230719   5.423   5.763   7.966 -0.5907  0.3632 -0.3201
 2175TIP3    H130720   5.409   5.771   8.061  0.0437  0.4081 -0.2294
 2175TIP3    H230721   5.374   5.684   7.942 -2.4454  1.4422 -0.3144
 2176TIP3   OH230722   0.930   3.647   1.091  0.3666  0.0372 -0.0063
 2176TIP3    H130723   1.015   3.647   1.047 -0.5347  1.1397 -1.8921
 2176TIP3    H230724   0.897   3.736   1.079 -1.2112 -0.4582  0.3845
 2177TIP3   OH230725   0.713   6.760   8.447 -0.7707  0.2809  0.6431
 2177TIP3    H130726   0.672   6.719   8.523  0.1443 -0.7616  0.6176
 2177TIP3    H230727   0.751   6.686   8.398 -0.1324  1.0585 -0.0706
 2178TIP3   OH230728   5.021   3.618   8.584  0.0694 -0.8214  0.3839
 2178TIP3    H130729   4.956   3.617   8.653  0.0601 -0.2467  0.3881
 2178TIP3    H230730   4.998   3.543   8.528 -0.7840 -0.4354  0.2078
 2179TIP3   OH230731   0.750   2.465   7.266 -0.0067  0.6136 -0.1948
 2179TIP3    H130732   0.754   2.371   7.283 -0.6025  0.4857 -0.7070
 2179TIP3    H230733   0.666   2.492   7.301 -0.4597  0.6796 -1.2784
 2180TIP3   OH230734   5.273   5.735   8.216 -0.0814  0.1391 -0.0157
 2180TIP3    H130735   5.243   5.674   8.283  2.4923 -0.7876  0.4056
 2180TIP3    H230736   5.331   5.796   8.263  0.1683  0.7251 -1.0454
 2181TIP3   OH230737   0.785   3.538   1.590 -0.2931 -0.7110 -0.9533
 2181TIP3    H130738   0.718   3.600   1.618  1.3328  0.5318  0.4374
 2181TIP3    H230739   0.849   3.592   1.543  0.9818 -1.3313 -0.0132
 2182TIP3   OH230740   0.837   1.357   0.623  0.4090 -0.8150  0.1234
 2182TIP3    H130741   0.791   1.331   0.543  1.3598  1.7741 -1.4112
 2182TIP3    H230742   0.778   1.332   0.694 -2.1591 -0.0859 -1.5859
 2183TIP3   OH230743   3.299   3.706   1.704  0.5496 -0.4382  0.2074
 2183TIP3    H130744   3.233   3.769   1.676 -0.0911 -0.3078  1.9103
 2183TIP3    H230745   3.341   3.678   1.623 -2.0834 -1.1003 -1.0214
 2184TIP3   OH230746   1.400   1.267   9.724  0.3077 -0.1159  0.5593
 2184TIP3    H130747   1.326   1.324   9.708  0.1125  0.2192  2.4457
 2184TIP3    H230748   1.372   1.181   9.692  0.0378  0.5019 -0.9169
 2185TIP3   OH230749   3.431   4.148   1.197  0.0870 -0.3256 -0.3445
 2185TIP3    H130750   3.427   4.059   1.233  0.3015 -0.1107  0.2290
 2185TIP3    H230751   3.467   4.137   1.110  0.3878 -0.7765 -0.1676
 2186TIP3   OH230752   3.975   2.989   8.663 -0.6178 -0.2363 -0.2284
 2186TIP3    H130753   4.051   3.007   8.608 -0.1645  0.1547  0.5187
 2186TIP3    H230754   3.918   3.064   8.651 -0.0109  0.3875  0.6871
 2187TIP3   OH230755   4.636   7.259   8.033 -0.2386  0.3353  0.3505
 2187TIP3    H130756   4.573   7.212   8.087  0.3590 -1.5911 -0.5406
 2187TIP3    H230757   4.667   7.331   8.088 -0.3539 -0.9769  2.2175
 2188TIP3   OH230758   5.845   5.937   9.911  0.5913 -0.6868  0.0820
 2188TIP3    H130759   5.805   5.915   9.827 -0.5065  1.3582  0.0097
 2188TIP3    H230760   5.918   5.875   9.919  0.1884 -1.5193 -1.9449
 2189TIP3   OH230761   2.347   5.542   1.633  0.0689  0.1789  0.2801
 2189TIP3    H130762   2.285   5.614   1.617  0.3178  0.2991 -0.1627
 2189TIP3    H230763   2.432   5.586   1.639  0.3136 -0.1366 -0.6444
 2190TIP3   OH230764   3.490   0.298   1.753 -0.0519 -0.2740  0.4570
 2190TIP3    H130765   3.552   0.254   1.696  0.7890 -0.8455  1.7520
 2190TIP3    H230766   3.544   0.353   1.810 -0.9476  1.1062  0.0174
 2191TIP3   OH230767   6.718   0.661   7.880 -0.0666  0.3242 -0.0514
 2191TIP3    H130768   6.643   0.676   7.938 -0.9469 -0.0829 -1.0516
 2191TIP3    H230769   6.748   0.573   7.903 -0.2569  0.2606 -0.0466
 2192TIP3   OH230770   0.465   7.484   9.707 -0.2020 -0.5279 -0.1251
 2192TIP3    H130771   0.441   7.434   9.785 -0.3757 -1.4751 -0.7676
 2192TIP3    H230772   0.386   7.533   9.684 -1.0206 -2.2379 -1.1766
 2193TIP3   OH230773   0.957   3.620   9.152 -0.2288 -0.9613 -0.3741
 2193TIP3    H130774   0.995   3.532   9.146 -2.8592 -2.3725  1.3879
 2193TIP3    H230775   0.922   3.624   9.241  0.1753  2.0947 -0.2690
 2194TIP3   OH230776   2.974   6.135   7.898 -0.7309 -0.0120 -0.4069
 2194TIP3    H130777   3.011   6.130   7.810 -3.2826 -3.8034 -1.5271
 2194TIP3    H230778   2.902   6.197   7.890 -0.0418  0.7859 -0.5502
 2195TIP3   OH230779   1.608   5.865   8.834 -0.0008 -0.1097 -0.7269
 2195TIP3    H130780   1.540   5.821   8.885 -1.9966  1.3291 -2.0206
 2195TIP3    H230781   1.614   5.953   8.872  2.1137 -0.5865  0.1845
 2196TIP3   OH230782   4.025   6.352   9.825 -0.3066 -0.0708 -0.2427
 2196TIP3    H130783   4.024   6.393   9.739  1.5435  1.6303  0.4958
 2196TIP3    H230784   4.084   6.277   9.815  1.9343  1.5598  0.0886
 2197TIP3   OH230785   7.083   6.763   8.312  0.0789 -0.0815 -0.2572
 2197TIP3    H130786   7.172   6.739   8.284  0.0292  0.4549 -0.9046
 2197TIP3    H230787   7.072   6.853   8.281 -0.6485 -0.1023 -0.0739
 2198TIP3   OH230788   1.732   4.171   2.275  0.1338 -0.1362  0.0289
 2198TIP3    H130789   1.691   4.112   2.211  0.7021 -0.4852 -0.0178
 2198TIP3    H230790   1.741   4.118   2.354 -0.0528  0.1247  0.2262
 2199TIP3   OH230791   1.792   2.677   8.661  0.0970 -0.4838  0.0282
 2199TIP3    H130792   1.755   2.764   8.675  0.5100 -0.5406  1.6804
 2199TIP3    H230793   1.724   2.628   8.616 -0.0673  0.7446 -1.1027
 2200TIP3   OH230794   2.208   4.732   9.625  0.0395  0.3097  0.2392
 2200TIP3    H130795   2.167   4.646   9.638 -0.7972  0.6471 -0.0664
 2200TIP3    H230796   2.173   4.763   9.542  0.5417  0.8346  0.2146
 2201TIP3   OH230797   6.657   0.657   7.433  0.0323 -0.1451 -0.4288
 2201TIP3    H130798   6.733   0.601   7.413  0.2605 -0.3947  1.0458
 2201TIP3    H230799   6.693   0.727   7.487 -0.8808 -0.6712  0.9069
 2202TIP3   OH230800   4.578   0.179   9.051  0.4652 -0.1580  0.3205
 2202TIP3    H130801   4.618   0.171   9.137  2.0461 -0.9712 -0.4578
 2202TIP3    H230802   4.633   0.241   9.004 -0.6190  0.5967 -0.0050
 2203TIP3   OH230803   1.876   1.903   1.972 -0.2648 -0.2963 -0.6081
 2203TIP3    H130804   1.917   1.829   1.927 -0.6735 -1.8014  1.3679
 2203TIP3    H230805   1.931   1.918   2.049 -1.4337 -0.0710  0.2198
 2204TIP3   OH230806   3.118   1.314   3.035 -0.7921  0.0711 -0.0357
 2204TIP3    H130807   3.065   1.271   3.103  1.4484  0.1103  1.8950
 2204TIP3    H230808   3.145   1.397   3.075 -0.8034  0.8977 -1.6874
 2205TIP3   OH230809   1.128   6.875   2.134 -0.2580 -0.1946  0.0534
 2205TIP3    H130810   1.210   6.848   2.093 -0.7085 -0.6770 -0.5392
 2205TIP3    H230811   1.138   6.969   2.147  0.4903 -0.2866  0.2285
 2206TIP3   OH230812   4.499   7.118   8.962  0.0914 -0.0980  0.6064
 2206TIP3    H130813   4.509   7.192   9.022 -0.5096  0.5120 -0.0226
 2206TIP3    H230814   4.579   7.067   8.974 -0.7709 -0.9849  3.2065
 2207TIP3   OH230815   3.565   4.342   8.172  0.2552  0.0899 -0.4936
 2207TIP3    H130816   3.581   4.257   8.131  0.6510 -1.1093  1.9311
 2207TIP3    H230817   3.471   4.344   8.189  0.2991 -0.0358 -0.2281
 2208TIP3   OH230818   5.173   7.073   1.973  0.0078  0.2028 -0.2263
 2208TIP3    H130819   5.101   7.132   1.993 -0.3626 -0.1551 -0.4834
 2208TIP3    H230820   5.242   7.130   1.940  0.8102  0.8719  2.3876
 2209TIP3   OH230821   1.059   5.644   9.430  0.0001 -0.0599 -0.2602
 2209TIP3    H130822   1.046   5.553   9.458  0.7076  0.0148  0.3327
 2209TIP3    H230823   1.153   5.653   9.419 -0.1087  0.4689 -0.7841
 2210TIP3   OH230824   3.639   1.284   0.597  0.4644 -0.3206 -0.4893
 2210TIP3    H130825   3.723   1.239   0.604  0.7311  0.2894  0.3994
 2210TIP3    H230826   3.645   1.334   0.515  1.6503  1.0332  0.3727
 2211TIP3   OH230827   5.056   1.379   9.300 -0.0728  0.7883  0.4345
 2211TIP3    H130828   5.066   1.378   9.204 -1.4184 -0.3192  0.2858
 2211TIP3    H230829   5.014   1.463   9.318 -0.9181  0.4943 -0.0889
 2212TIP3   OH230830   5.050   4.995   8.116  0.3900 -0.2860 -0.0542
 2212TIP3    H130831   5.122   4.954   8.069  0.6394  0.8381 -0.6830
 2212TIP3    H230832   4.971   4.970   8.067  0.5382 -0.0734 -0.4076
 2213TIP3   OH230833   1.240   3.988   0.304  0.3227  0.1927 -0.0453
 2213TIP3    H130834   1.231   4.044   0.382 -0.0185 -0.8490  0.6809
 2213TIP3    H230835   1.239   4.049   0.231 -0.5113  1.1143  0.7034
 2214TIP3   OH230836   4.365   1.680   2.075 -0.2824 -0.0432  0.2284
 2214TIP3    H130837   4.350   1.620   2.148 -0.5199 -0.7349 -0.3906
 2214TIP3    H230838   4.461   1.690   2.073 -0.2488 -0.3107  0.3970
 2215TIP3   OH230839   1.170   1.102   1.027  0.1036 -0.4806 -0.4983
 2215TIP3    H130840   1.133   1.166   1.089  0.3283 -0.8353  0.0044
 2215TIP3    H230841   1.123   1.021   1.046  0.6366 -0.7576 -0.3398
 2216TIP3   OH230842   4.769   6.238   7.998  0.6271 -0.1391  0.2833
 2216TIP3    H130843   4.860   6.210   7.986  0.5151 -0.3552 -0.0725
 2216TIP3    H230844   4.717   6.175   7.949  0.4044  0.9975 -1.0124
 2217TIP3   OH230845   6.081   3.238   7.765 -0.0911 -0.1006 -0.3907
 2217TIP3    H130846   6.015   3.272   7.705  0.0166 -1.8177 -1.5610
 2217TIP3    H230847   6.068   3.288   7.846 -0.9694  1.5141 -1.4643
 2218TIP3   OH230848   6.134   5.201   8.039 -0.4592 -0.0848 -0.5015
 2218TIP3    H130849   6.084   5.228   8.115  0.2539 -1.1778  0.3884
 2218TIP3    H230850   6.176   5.281   8.008 -0.5511  0.3204  0.4014
 2219TIP3   OH230851   2.135   6.137   1.451 -0.5876  0.2534  0.2862
 2219TIP3    H130852   2.193   6.198   1.498 -0.4176 -0.1174  0.5581
 2219TIP3    H230853   2.147   6.161   1.359 -0.5129  0.6254  0.3870
 2220TIP3   OH230854   2.034   3.561   9.773 -0.1889 -0.3596  0.1455
 2220TIP3    H130855   2.073   3.606   9.698 -0.3581  0.0251  0.2850
 2220TIP3    H230856   1.958   3.516   9.736  1.1354 -2.2721 -0.4098
 2221TIP3   OH230857   0.227   1.922   0.787  0.0891  0.0621  0.4578
 2221TIP3    H130858   0.224   1.845   0.730 -0.0120 -0.8691  1.6794
 2221TIP3    H230859   0.157   1.907   0.850 -1.0681  2.0044 -0.2900
 2222TIP3   OH230860   5.061   4.427   8.302 -0.4889  0.0230 -0.1294
 2222TIP3    H130861   4.971   4.445   8.330 -0.3692 -1.1883  1.1388
 2222TIP3    H230862   5.107   4.510   8.314 -1.1049  0.2619  0.6319
 2223TIP3   OH230863   7.608   4.215   1.813 -0.0817  0.0385  0.0421
 2223TIP3    H130864   7.669   4.288   1.829 -0.0256  0.1644 -0.7380
 2223TIP3    H230865   7.587   4.183   1.901  0.2901  0.6678  0.3715
 2224TIP3   OH230866   1.497   0.852   7.467 -0.8783  0.7039  0.1167
 2224TIP3    H130867   1.525   0.944   7.467  2.7790 -0.2580 -0.7079
 2224TIP3    H230868   1.550   0.811   7.536 -1.6916 -0.9833 -0.2271
 2225TIP3   OH230869   4.163   1.131   7.157  0.0251 -0.1466 -0.1713
 2225TIP3    H130870   4.246   1.136   7.109 -0.4964 -0.3948 -1.1343
 2225TIP3    H230871   4.129   1.043   7.136 -0.2544 -0.2337  0.6058
 2226TIP3   OH230872   6.278   0.073   0.761 -0.3962  0.3068  0.2198
 2226TIP3    H130873   6.191   0.112   0.774 -0.6420  0.0964 -0.7740
 2226TIP3    H230874   6.280   0.049   0.669  0.0435 -1.3422  0.6274
 2227TIP3   OH230875   4.912   7.491   9.168  0.4009 -0.8075  0.1380
 2227TIP3    H130876   4.883   7.578   9.140 -1.5303 -2.0130 -1.9624
 2227TIP3    H230877   4.876   7.481   9.256  0.9339  0.5994  0.5483
 2228TIP3   OH230878   5.536   6.506   7.801 -0.0497  0.5766  0.1483
 2228TIP3    H130879   5.616   6.558   7.799 -1.3599  3.2933  4.3051
 2228TIP3    H230880   5.476   6.550   7.741  0.7726 -0.0641 -1.1837
 2229TIP3   OH230881   3.541   6.201   7.259  0.3448 -0.6496 -0.6750
 2229TIP3    H130882   3.523   6.112   7.229  0.4667 -1.1245  0.5903
 2229TIP3    H230883   3.625   6.223   7.218  0.5944 -1.3389 -0.5521
 2230TIP3   OH230884   6.036   2.292   1.182 -0.1654 -0.3287 -0.5465
 2230TIP3    H130885   6.041   2.254   1.095 -2.1486 -0.2432 -0.7456
 2230TIP3    H230886   5.953   2.340   1.183  0.6376  1.1254  0.8251
 2231TIP3   OH230887   6.658   4.909   9.427  0.5879  0.3421  0.7296
 2231TIP3    H130888   6.704   4.945   9.352 -0.4176 -0.0183 -0.0714
 2231TIP3    H230889   6.622   4.985   9.472  0.2570  0.4849  0.2283
 2232TIP3   OH230890   3.140   2.563   9.472 -0.4243  0.0583  0.1094
 2232TIP3    H130891   3.086   2.638   9.448 -1.7569 -0.9868 -0.2657
 2232TIP3    H230892   3.172   2.584   9.560 -0.1865  1.3668 -0.2670
 2233TIP3   OH230893   0.218   7.367   8.407  0.0063  0.7236  0.4585
 2233TIP3    H130894   0.190   7.410   8.326 -1.4210  0.0430  0.5510
 2233TIP3    H230895   0.287   7.307   8.379  1.3623  2.3406  0.1899
 2234TIP3   OH230896   2.141   1.899   0.274  0.1881 -0.1377 -0.2123
 2234TIP3    H130897   2.157   1.986   0.238 -0.5693  0.1356  0.1117
 2234TIP3    H230898   2.053   1.876   0.245  0.7995 -1.2825 -1.2547
 2235TIP3   OH230899   1.703   5.359   9.829 -0.1685  0.6427  0.1619
 2235TIP3    H130900   1.612   5.330   9.827 -0.4004  1.0013  2.7504
 2235TIP3    H230901   1.698   5.451   9.855  0.8548  1.4746 -2.2925
 2236TIP3   OH230902   0.190   7.257   1.276  0.6151 -0.4050 -0.1788
 2236TIP3    H130903   0.147   7.191   1.222  3.2535 -0.6904 -2.1415
 2236TIP3    H230904   0.118   7.308   1.313 -1.4199 -1.8876 -1.8020
 2237TIP3   OH230905   1.567   5.758   1.352  0.3174 -0.3848 -0.7738
 2237TIP3    H130906   1.524   5.816   1.415  1.7211 -1.3464  1.2177
 2237TIP3    H230907   1.536   5.671   1.376  0.7185 -0.7517 -1.5802
 2238TIP3   OH230908   4.576   5.922   7.468  0.3223  0.6738 -0.0891
 2238TIP3    H130909   4.488   5.885   7.465  1.1434 -1.4383 -0.0437
 2238TIP3    H230910   4.601   5.915   7.560  0.4071  1.6374 -0.0302
 2239TIP3   OH230911   0.008   0.065   8.201 -0.0125  0.0718  0.2667
 2239TIP3    H130912  -0.004  -0.020   8.159  1.4539 -1.0102  1.8701
 2239TIP3    H230913   0.082   0.105   8.154  1.3155 -0.9297  1.4154
 2240TIP3   OH230914   4.182   6.091   1.891  0.0165  0.2548 -0.3636
 2240TIP3    H130915   4.244   6.115   1.822  0.5407 -2.4771 -0.9715
 2240TIP3    H230916   4.217   6.133   1.970  0.9252  1.2279 -1.2409
 2241TIP3   OH230917   2.954   3.527   9.012 -0.8751 -0.1091  0.2144
 2241TIP3    H130918   2.908   3.608   9.034 -2.6799 -0.9798 -0.1579
 2241TIP3    H230919   3.044   3.555   8.992 -1.7516  1.9486 -1.1572
 2242TIP3   OH230920   0.685   0.728   9.452  0.1103  0.1009 -0.3676
 2242TIP3    H130921   0.653   0.662   9.514 -0.0533  1.8654  1.5574
 2242TIP3    H230922   0.631   0.716   9.374 -0.5579 -1.4109  0.2900
 2243TIP3   OH230923   6.395   6.447   2.802 -0.2070 -0.2255  0.0932
 2243TIP3    H130924   6.344   6.375   2.838  0.0208 -0.0057  0.8763
 2243TIP3    H230925   6.341   6.525   2.816  0.7556  0.1620  1.8881
 2244TIP3   OH230926   6.807   2.222   2.714 -0.5695 -0.1809 -0.6072
 2244TIP3    H130927   6.731   2.279   2.706 -0.9762 -0.6112  0.0206
 2244TIP3    H230928   6.849   2.249   2.796  0.5970  0.7831 -1.4834
 2245TIP3   OH230929   0.873   3.343   8.920 -0.1253  0.3353  0.4402
 2245TIP3    H130930   0.837   3.407   8.859 -1.9894 -1.6739 -0.7077
 2245TIP3    H230931   0.800   3.319   8.976  0.3399 -1.2157  0.4332
 2246TIP3   OH230932   5.362   5.306   9.130  0.8714  0.3928  0.0993
 2246TIP3    H130933   5.407   5.389   9.141  2.6518 -0.2372 -1.7674
 2246TIP3    H230934   5.399   5.269   9.050 -0.1381 -2.0261  0.6600
 2247TIP3   OH230935   1.966   5.201   9.226 -0.0540  0.0448 -0.4368
 2247TIP3    H130936   2.059   5.209   9.245 -0.1258  0.1466 -0.1062
 2247TIP3    H230937   1.923   5.251   9.296 -0.4497 -1.6225  0.5803
 2248TIP3   OH230938   6.195   1.812   1.487  0.1586  0.1174  0.2039
 2248TIP3    H130939   6.288   1.819   1.468  0.1179  1.1196  0.3538
 2248TIP3    H230940   6.152   1.855   1.413 -0.0881  1.6479  1.1909
 2249TIP3   OH230941   1.807   2.295   2.296 -0.2362 -0.2129  0.1981
 2249TIP3    H130942   1.798   2.302   2.391  0.7695  1.5572  0.2233
 2249TIP3    H230943   1.761   2.372   2.262 -1.1835 -1.1884 -0.8214
 2250TIP3   OH230944   1.076   1.698   0.737  0.0084  0.1119 -0.5440
 2250TIP3    H130945   0.995   1.653   0.761  0.1275  0.3301  0.2761
 2250TIP3    H230946   1.146   1.638   0.763  0.1494  0.5091  0.0194
 2251TIP3   OH230947   1.070   3.822   2.078 -0.0919  0.0520 -0.7294
 2251TIP3    H130948   1.065   3.740   2.128 -1.3684  0.0308 -0.8455
 2251TIP3    H230949   0.979   3.851   2.071  0.3538  1.5478 -0.6097
 2252TIP3   OH230950   7.425   3.654   7.524 -0.0192  0.8162  0.0858
 2252TIP3    H130951   7.336   3.688   7.516  0.1505  1.2018 -0.2041
 2252TIP3    H230952   7.480   3.732   7.528  0.2250  0.6033  1.4265
 2253TIP3   OH230953   5.815   1.982   9.280  0.0848  0.0111 -0.4030
 2253TIP3    H130954   5.764   1.915   9.233 -1.0876  0.3822  0.2924
 2253TIP3    H230955   5.837   2.046   9.213  0.7297 -0.7687 -0.9633
 2254TIP3   OH230956   0.928   5.414   1.230  0.2201  0.3093  0.0382
 2254TIP3    H130957   0.857   5.384   1.173 -0.5475  0.1710  1.0373
 2254TIP3    H230958   0.892   5.491   1.273  0.5180 -0.0138  0.8700
 2255TIP3   OH230959   5.434   6.058   8.035 -0.0001 -0.2524  0.3832
 2255TIP3    H130960   5.460   6.148   8.016  0.3638 -0.2965  0.6504
 2255TIP3    H230961   5.393   6.027   7.955 -0.7225  0.3635  0.5015
 2256TIP3   OH230962   5.233   6.944   9.859 -0.0453 -0.2449 -0.3530
 2256TIP3    H130963   5.299   6.991   9.807  0.0412 -0.3201 -0.3115
 2256TIP3    H230964   5.279   6.918   9.939 -0.5193  0.9972  0.3492
 2257TIP3   OH230965   3.061   7.567   1.109 -0.5789 -0.6904 -0.2044
 2257TIP3    H130966   3.069   7.662   1.118 -0.6170 -0.3922 -2.6523
 2257TIP3    H230967   3.049   7.536   1.199 -1.3058  1.6737  0.6093
 2258TIP3   OH230968   1.869   2.122   0.124 -0.3100  0.1235  1.0435
 2258TIP3    H130969   1.964   2.130   0.133 -0.0789 -0.7162 -0.4137
 2258TIP3    H230970   1.852   2.137   0.031 -1.3247 -2.0139  0.8209
 2259TIP3   OH230971   6.349   7.430   8.973  0.5219 -0.9244  0.3802
 2259TIP3    H130972   6.307   7.346   8.990  1.2636 -1.2244  0.7241
 2259TIP3    H230973   6.332   7.447   8.880  1.1660 -1.8991  0.0751
 2260TIP3   OH230974   2.791   7.591   9.829  0.4448  0.2913 -0.0481
 2260TIP3    H130975   2.717   7.583   9.769  1.0931  0.0426 -0.8435
 2260TIP3    H230976   2.865   7.613   9.773  0.8858  1.0237  0.7934
 2261TIP3   OH230977   6.516   5.219   9.991 -0.3812 -0.1353 -0.1876
 2261TIP3    H130978   6.539   5.273  10.067  0.8980 -0.9105  0.0096
 2261TIP3    H230979   6.567   5.139  10.003 -2.2095 -1.4114 -0.4694
 2262TIP3   OH230980   1.728   4.541   9.125  0.0877  0.2756 -0.5947
 2262TIP3    H130981   1.761   4.619   9.171  1.6786 -0.5800 -0.2393
 2262TIP3    H230982   1.680   4.493   9.192  1.2172 -0.2716 -0.1620
 2263TIP3   OH230983   0.964   6.828   1.907  0.3221 -0.9624 -0.0720
 2263TIP3    H130984   1.020   6.861   1.976 -0.4018 -0.3718  0.2369
 2263TIP3    H230985   0.936   6.905   1.858 -1.1685 -1.1055  0.4946
 2264TIP3   OH230986   2.970   5.034   9.308 -0.2978 -0.4606  0.0013
 2264TIP3    H130987   3.065   5.030   9.319 -0.2367 -2.4969 -0.7535
 2264TIP3    H230988   2.956   5.086   9.229  0.0834  0.9955  0.8636
 2265TIP3   OH230989   1.749   0.196   1.451 -0.4233 -0.5469  0.1843
 2265TIP3    H130990   1.813   0.251   1.405  1.0009 -0.7960  1.7702
 2265TIP3    H230991   1.689   0.166   1.382  0.3258  0.8294 -1.1292
 2266TIP3   OH230992   0.721   1.792   9.154  0.2108 -0.1777 -0.2090
 2266TIP3    H130993   0.658   1.864   9.152  0.0744 -0.2424  0.9087
 2266TIP3    H230994   0.790   1.822   9.214  1.1021 -0.2335 -1.1823
 2267TIP3   OH230995   0.094   3.208   1.529  0.3188 -0.8813 -0.1826
 2267TIP3    H130996   0.138   3.291   1.546  0.0189 -0.5343 -1.0810
 2267TIP3    H230997   0.022   3.206   1.592  2.2025 -1.9869  2.1438
 2268TIP3   OH230998   6.005   7.063   1.437  0.0281 -0.3554  0.1103
 2268TIP3    H130999   6.047   7.011   1.506  0.8755  2.2728  1.7332
 2268TIP3    H231000   5.971   7.140   1.483 -1.9188  0.1744 -2.0319
 2269TIP3   OH231001   7.422   2.035   6.982 -0.8458  0.3238  0.2837
 2269TIP3    H131002   7.516   2.037   6.965 -0.8671  0.6318  0.1938
 2269TIP3    H231003   7.410   2.094   7.056 -0.9624  0.2472  0.3255
 2270TIP3   OH231004   6.021   4.109   8.138  0.2518 -0.2258 -0.1507
 2270TIP3    H131005   5.978   4.108   8.053 -0.5992 -1.1258  0.2775
 2270TIP3    H231006   6.043   4.018   8.156 -0.5107 -0.1932  1.0515
 2271TIP3   OH231007   6.345   1.090   3.259  0.1324 -0.0009 -0.1920
 2271TIP3    H131008   6.276   1.030   3.231 -1.2895  2.0257 -1.3463
 2271TIP3    H231009   6.423   1.060   3.213 -0.7177 -0.5294 -1.3585
 2272TIP3   OH231010   7.445   7.081   9.778  0.1078 -0.0340  0.3171
 2272TIP3    H131011   7.400   7.165   9.787  0.7224  0.1402  2.2325
 2272TIP3    H231012   7.528   7.093   9.824  0.6634 -1.3904 -0.2625
 2273TIP3   OH231013   5.777   7.405   1.431  0.2163  0.2594  0.3329
 2273TIP3    H131014   5.860   7.370   1.397  0.7377  1.9018 -0.2107
 2273TIP3    H231015   5.777   7.381   1.523  0.2798 -1.5725 -0.1009
 2274TIP3   OH231016   2.458   5.935   8.118 -0.1382 -0.0301 -0.0161
 2274TIP3    H131017   2.522   5.899   8.180 -0.0552 -1.1367 -0.7321
 2274TIP3    H231018   2.375   5.930   8.165  0.0262 -0.2408  0.2580
 2275TIP3   OH231019   7.517   1.440   1.075 -0.3742  0.1263  0.3868
 2275TIP3    H131020   7.524   1.501   1.149 -0.2300  0.5217  0.0449
 2275TIP3    H231021   7.494   1.356   1.116 -1.1724  0.5415  0.7982
 2276TIP3   OH231022   6.437   2.807   0.678 -0.1270 -0.2422  0.0044
 2276TIP3    H131023   6.461   2.751   0.752 -0.5374 -0.9282 -0.3706
 2276TIP3    H231024   6.346   2.784   0.659 -0.9596  1.8734  1.0018
 2277TIP3   OH231025   6.571   5.925   9.008 -0.3106  0.2313 -0.3171
 2277TIP3    H131026   6.604   6.014   9.014 -0.3046  0.1295  1.5654
 2277TIP3    H231027   6.602   5.882   9.087 -1.3399 -1.0913 -0.5935
 2278TIP3   OH231028   2.750   4.382   9.870  0.0319 -0.4228  0.1843
 2278TIP3    H131029   2.805   4.328   9.927  0.0418 -0.0337  0.5466
 2278TIP3    H231030   2.796   4.382   9.786  0.1981 -0.7118  0.2739
 2279TIP3   OH231031   7.177   4.028   8.551  0.2815 -0.0249  0.1309
 2279TIP3    H131032   7.141   3.972   8.482 -0.2021  0.0545  0.3109
 2279TIP3    H231033   7.249   4.074   8.510 -0.3271  0.4098 -0.4775
 2280TIP3   OH231034   0.832   6.263   7.890  0.1246 -0.1803 -0.0737
 2280TIP3    H131035   0.789   6.220   7.963 -0.1530 -0.8594 -0.6313
 2280TIP3    H231036   0.788   6.230   7.812  1.0218 -0.1697 -0.6072
 2281TIP3   OH231037   5.837   0.782   6.648  0.0788  0.6021 -0.2273
 2281TIP3    H131038   5.788   0.739   6.577  3.0373 -1.1481 -1.4008
 2281TIP3    H231039   5.913   0.821   6.604  1.9617 -0.4327  1.9150
 2282TIP3   OH231040   2.835   6.514   7.014  0.2019  0.7208 -1.0796
 2282TIP3    H131041   2.833   6.419   6.999  0.6904  0.3722  0.8688
 2282TIP3    H231042   2.743   6.539   7.018  0.0322 -0.0499  0.4545
 2283TIP3   OH231043   1.626   4.616   1.693  0.2787  0.1082 -0.2151
 2283TIP3    H131044   1.711   4.635   1.654  0.2807 -0.4594 -0.5116
 2283TIP3    H231045   1.583   4.558   1.629 -0.5818  0.8881 -0.3688
 2284TIP3   OH231046   1.882   3.979   9.060 -0.5821  0.4089 -0.2147
 2284TIP3    H131047   1.970   3.943   9.051 -0.9429 -0.2024 -1.5534
 2284TIP3    H231048   1.840   3.961   8.976 -1.7340  1.3915  0.1266
 2285TIP3   OH231049   2.114   4.334   1.898  0.0629 -0.2308  0.4740
 2285TIP3    H131050   2.033   4.293   1.926 -0.2111  0.3045  0.4896
 2285TIP3    H231051   2.181   4.267   1.911 -0.1193 -0.1509  2.0019
 2286TIP3   OH231052   6.690   2.359   0.195  0.4827 -0.0263  0.0516
 2286TIP3    H131053   6.714   2.430   0.254 -1.2763  0.6297  0.0401
 2286TIP3    H231054   6.630   2.305   0.246 -0.8680  0.4119 -1.0131
 2287TIP3   OH231055   1.076   0.025   0.066 -0.2758  0.2682  0.2283
 2287TIP3    H131056   0.991  -0.014   0.087  1.0054 -2.3671  1.0424
 2287TIP3    H231057   1.119   0.036   0.151  0.7344  0.2103 -0.2553
 2288TIP3   OH231058   1.799   1.146   7.445  0.2460 -0.2073  0.1281
 2288TIP3    H131059   1.712   1.125   7.410  0.6361 -3.8843  0.9105
 2288TIP3    H231060   1.794   1.121   7.537  1.6515  1.2567  0.6426
 2289TIP3   OH231061   0.294   6.388   2.593 -0.1678 -0.3656 -0.3277
 2289TIP3    H131062   0.244   6.388   2.674  0.6729 -0.9719  0.2115
 2289TIP3    H231063   0.302   6.480   2.569  0.8829 -0.0426  1.1177
 2290TIP3   OH231064   1.873   2.433   0.801  0.5303  0.3560 -0.5136
 2290TIP3    H131065   1.867   2.483   0.883  1.9909 -1.3120  0.6908
 2290TIP3    H231066   1.927   2.488   0.744  0.1323  1.2013 -0.0922
 2291TIP3   OH231067   6.084   6.498   9.224 -0.2569  0.0322  0.0049
 2291TIP3    H131068   6.131   6.531   9.301 -1.1781 -1.0608  1.0704
 2291TIP3    H231069   6.130   6.538   9.150  0.3645  1.4925  1.1144
 2292TIP3   OH231070   7.228   5.922   9.398  0.9084  0.2285 -0.2088
 2292TIP3    H131071   7.216   5.993   9.462  0.1674  0.4076 -0.5414
 2292TIP3    H231072   7.213   5.964   9.313  4.0518  0.5528 -0.7481
 2293TIP3   OH231073   3.472   6.420   8.643 -0.3648  0.1668 -0.7548
 2293TIP3    H131074   3.459   6.468   8.725  1.9574 -0.5047  0.0807
 2293TIP3    H231075   3.533   6.473   8.593 -0.2653 -0.3791 -1.2190
 2294TIP3   OH231076   2.368   7.360   9.996  0.0817 -0.3382 -0.3106
 2294TIP3    H131077   2.450   7.326  10.029 -1.2274 -2.5274  0.9233
 2294TIP3    H231078   2.318   7.283   9.969 -2.2434  0.7194  0.6413
 2295TIP3   OH231079   4.160   2.196   0.458 -0.6239 -0.5142  0.2650
 2295TIP3    H131080   4.190   2.121   0.406 -0.9946 -0.3203 -0.2415
 2295TIP3    H231081   4.163   2.165   0.549  3.3994  0.2407  0.5796
 2296TIP3   OH231082   2.941   0.444   0.064 -0.0813  0.0252 -0.0479
 2296TIP3    H131083   2.960   0.378   0.131  1.0012 -0.6189 -0.9639
 2296TIP3    H231084   2.862   0.412   0.021 -0.5460  0.2299  0.6345
 2297TIP3   OH231085   3.565   4.138   7.787  0.1578 -0.0906 -0.0058
 2297TIP3    H131086   3.604   4.072   7.730 -1.1960 -0.0343 -1.0446
 2297TIP3    H231087   3.617   4.216   7.773 -0.3093 -0.0014 -1.4036
 2298TIP3   OH231088   6.414   2.223   0.535  0.0366 -0.8524  0.2833
 2298TIP3    H131089   6.394   2.261   0.450  0.5222  1.5051  1.1585
 2298TIP3    H231090   6.509   2.213   0.536  0.0528 -0.6818  0.6168
 2299TIP3   OH231091   0.367   4.768   2.019 -0.2089 -0.4125 -0.0863
 2299TIP3    H131092   0.451   4.804   2.047  0.1322  0.2020 -1.7611
 2299TIP3    H231093   0.349   4.811   1.936 -1.5569 -1.4983 -0.3984
 2300TIP3   OH231094   4.611   6.162   7.349  0.2575  0.2082  0.3369
 2300TIP3    H131095   4.590   6.080   7.394  3.0673 -0.7822  0.0651
 2300TIP3    H231096   4.641   6.221   7.418  0.2666  0.2685  0.2825
 2301TIP3   OH231097   0.651   0.828   1.650 -0.2093 -0.2615 -0.4640
 2301TIP3    H131098   0.622   0.859   1.564  0.3445 -1.5702 -1.1583
 2301TIP3    H231099   0.742   0.857   1.657 -0.7795  1.4423  0.5167
 2302TIP3   OH231100   5.293   5.551   8.876  0.1435  0.0129 -0.3830
 2302TIP3    H131101   5.348   5.629   8.867  0.5259 -0.2097  0.0289
 2302TIP3    H231102   5.346   5.480   8.839 -1.0873  0.3103 -2.9094
 2303TIP3   OH231103   4.257   3.025   9.407  0.1998  0.0965 -0.0554
 2303TIP3    H131104   4.351   3.004   9.410  0.3432  0.7939  2.2869
 2303TIP3    H231105   4.214   2.948   9.445  0.1321  1.0464  1.8722
 2304TIP3   OH231106   4.822   4.733   9.865 -0.1125 -0.0900 -0.2981
 2304TIP3    H131107   4.785   4.650   9.896 -0.5099 -0.4451 -1.6442
 2304TIP3    H231108   4.847   4.716   9.774  0.6110  1.0233 -0.3344
 2305TIP3   OH231109   6.761   1.919   9.015  0.1989 -0.6029  0.2408
 2305TIP3    H131110   6.827   1.892   8.951 -0.0183 -1.3294  0.3069
 2305TIP3    H231111   6.723   1.836   9.046 -0.1564 -0.2302  0.8194
 2306TIP3   OH231112   2.300   6.194   2.291 -0.5376 -0.7353 -0.1253
 2306TIP3    H131113   2.360   6.122   2.311  0.9815  0.5607  0.1263
 2306TIP3    H231114   2.357   6.269   2.276 -2.1138  0.6605  0.5839
 2307TIP3   OH231115   3.118   4.739   7.143 -0.3893  0.7774  0.4063
 2307TIP3    H131116   3.142   4.646   7.145  2.2101  1.3122 -0.8165
 2307TIP3    H231117   3.103   4.758   7.050 -1.0433  1.5527  0.6584
 2308TIP3   OH231118   0.125   7.020   9.642 -0.2374  0.2583  0.6959
 2308TIP3    H131119   0.058   7.058   9.700 -0.4160 -0.7448  1.1716
 2308TIP3    H231120   0.185   6.976   9.702  0.8340  1.0871  0.2663
 2309TIP3   OH231121   5.368   4.465   7.347 -0.3013  0.0961  0.7263
 2309TIP3    H131122   5.348   4.405   7.276 -2.0226  2.7889 -1.2840
 2309TIP3    H231123   5.300   4.449   7.412  1.3374 -2.4487  1.9353
 2310TIP3   OH231124   2.110   5.594   1.850 -0.4751  0.1629  0.4374
 2310TIP3    H131125   2.071   5.681   1.852 -0.2420  0.2425  1.9138
 2310TIP3    H231126   2.059   5.543   1.914  0.1961 -0.4415  0.5040
 2311TIP3   OH231127   4.317   1.039   7.579 -0.0760 -0.3492 -0.4105
 2311TIP3    H131128   4.307   1.037   7.674  0.3545 -0.9448 -0.3679
 2311TIP3    H231129   4.403   0.998   7.563 -0.5909 -1.1887 -1.1169
 2312TIP3   OH231130   1.743   3.877   9.701 -0.1442 -0.3194 -0.1399
 2312TIP3    H131131   1.832   3.872   9.665 -0.2714 -2.5872 -0.3120
 2312TIP3    H231132   1.756   3.886   9.796  0.2507  0.0118 -0.2224
 2313TIP3   OH231133   6.576   2.906   7.601  0.3088  0.1944 -0.1889
 2313TIP3    H131134   6.605   2.815   7.590 -1.1285 -0.2730 -0.3484
 2313TIP3    H231135   6.589   2.945   7.515  0.9384  0.1584 -0.1190
 2314TIP3   OH231136   6.134   4.684   7.429 -0.2501  0.1783 -0.1895
 2314TIP3    H131137   6.201   4.751   7.437 -1.1663  1.0916 -0.0368
 2314TIP3    H231138   6.054   4.732   7.409 -0.8006 -0.9225 -0.7198
 2315TIP3   OH231139   0.034   5.805   2.497 -0.6939  0.5538  0.3366
 2315TIP3    H131140   0.112   5.767   2.538  0.6213  2.2958 -0.4397
 2315TIP3    H231141  -0.025   5.825   2.570 -0.9964 -1.8905  0.8477
 2316TIP3   OH231142   3.777   0.507   2.089  0.3255 -0.1114  0.5699
 2316TIP3    H131143   3.867   0.500   2.121  0.3624  1.0027  0.7291
 2316TIP3    H231144   3.728   0.543   2.162 -0.4709 -1.6011  0.8159
 2317TIP3   OH231145   2.012   0.017   2.069  0.3379  0.4247 -0.3499
 2317TIP3    H131146   2.044  -0.016   1.985  2.4538  1.1976  0.0993
 2317TIP3    H231147   2.010   0.112   2.058 -1.7799  0.4495 -0.2874
 2318TIP3   OH231148   5.054   6.074   8.380 -0.2417 -0.3691 -0.8113
 2318TIP3    H131149   5.118   6.114   8.321 -0.0779 -0.3222 -0.6020
 2318TIP3    H231150   5.015   6.003   8.328  0.7479 -1.1062 -0.5989
 2319TIP3   OH231151   6.005   0.734   9.717 -0.0376 -0.3946  0.6101
 2319TIP3    H131152   5.913   0.747   9.737  0.0987  0.6760  0.6060
 2319TIP3    H231153   6.052   0.781   9.786  0.4727  0.6231 -0.3884
 2320TIP3   OH231154   6.720   0.647   8.341 -0.1564 -0.0361 -0.7290
 2320TIP3    H131155   6.801   0.602   8.363  0.1460  0.4688 -0.7877
 2320TIP3    H231156   6.687   0.681   8.424 -1.4157 -1.9994 -0.3642
 2321TIP3   OH231157   2.744   5.388   7.624 -0.0429  0.7382 -0.4445
 2321TIP3    H131158   2.736   5.452   7.553  1.3370  1.0962 -0.3053
 2321TIP3    H231159   2.681   5.417   7.690 -0.9735  0.6926 -1.2841
 2322TIP3   OH231160   0.519   7.039   0.928 -0.2137  0.3519  0.0962
 2322TIP3    H131161   0.571   6.961   0.908  1.1998  0.2681  3.3613
 2322TIP3    H231162   0.433   7.005   0.953 -0.2015  0.0250 -0.2869
 2323TIP3   OH231163   0.318   4.247   2.074 -0.0635 -0.0315  0.1427
 2323TIP3    H131164   0.354   4.192   2.004  0.8527 -0.0904  0.6361
 2323TIP3    H231165   0.337   4.199   2.155 -1.0025  0.0896  0.4475
 2324TIP3   OH231166   0.097   3.312   2.327 -0.1872 -0.2863 -0.1973
 2324TIP3    H131167   0.191   3.304   2.311  0.0038 -1.2492  1.2957
 2324TIP3    H231168   0.086   3.399   2.365  0.2106 -0.4680  0.3388
 2325TIP3   OH231169   5.199   7.408   2.868 -0.8635 -0.0865  0.0931
 2325TIP3    H131170   5.179   7.492   2.909  0.5454  0.5759 -0.5074
 2325TIP3    H231171   5.123   7.353   2.887 -2.2991  1.6394 -0.3800
 2326TIP3   OH231172   5.069   0.673   9.974 -0.1663 -0.2663 -0.3684
 2326TIP3    H131173   5.036   0.752   9.932 -1.0065  1.1950  2.7523
 2326TIP3    H231174   5.140   0.703  10.031  0.1133 -1.9193  0.2274
 2327TIP3   OH231175   1.688   3.114   8.185  0.0199 -0.2702 -0.5341
 2327TIP3    H131176   1.606   3.065   8.186 -0.2579  0.1128  2.2782
 2327TIP3    H231177   1.671   3.189   8.243  1.0089  2.2269 -3.2245
 2328TIP3   OH231178   3.827   3.493   8.573  0.3363  0.2185  0.4310
 2328TIP3    H131179   3.750   3.486   8.517  0.3915  3.1275 -0.1533
 2328TIP3    H231180   3.800   3.549   8.646  1.4786  0.0460  1.0252
 2329TIP3   OH231181   3.624   7.646   1.306 -0.8470  0.6601 -0.0330
 2329TIP3    H131182   3.617   7.695   1.224 -1.8041  0.6626  0.0415
 2329TIP3    H231183   3.535   7.616   1.324 -0.0964 -2.4954 -0.8921
 2330TIP3   OH231184   3.459   3.335   3.023  0.1731 -0.1949 -0.4713
 2330TIP3    H131185   3.394   3.309   3.089  0.4647  0.5086  0.1098
 2330TIP3    H231186   3.406   3.359   2.947 -0.2233 -0.1783 -0.1987
 2331TIP3   OH231187   1.609   3.586   0.546 -0.5622 -0.0120  0.1664
 2331TIP3    H131188   1.676   3.632   0.496  0.1433  0.0763  1.1594
 2331TIP3    H231189   1.526   3.625   0.516 -0.1066  0.5662 -0.3699
 2332TIP3   OH231190   3.493   3.200   0.517 -0.4623  0.4445  0.2342
 2332TIP3    H131191   3.479   3.225   0.426 -0.7590 -0.8879 -0.1123
 2332TIP3    H231192   3.405   3.179   0.550 -0.5471  2.1595  1.2502
 2333TIP3   OH231193   2.382   4.299   7.376 -0.0613  0.1508  0.3782
 2333TIP3    H131194   2.367   4.252   7.458  0.5454 -2.6066 -0.9947
 2333TIP3    H231195   2.476   4.316   7.374 -0.1864  0.9383  0.5691
 2334TIP3   OH231196   2.848   1.690   0.227  0.3792 -0.3856  0.2354
 2334TIP3    H131197   2.833   1.721   0.316  0.2315 -0.0378  0.0891
 2334TIP3    H231198   2.766   1.710   0.180  0.6568 -0.0586 -0.1199
 2335TIP3   OH231199   0.485   5.660   2.927  0.5069  0.8051  0.0451
 2335TIP3    H131200   0.399   5.701   2.934  0.2263 -0.0217  1.9908
 2335TIP3    H231201   0.493   5.637   2.834 -1.1963  1.2408 -0.2395
 2336TIP3   OH231202   6.525   6.372   1.574 -0.4711 -0.9460 -0.1622
 2336TIP3    H131203   6.500   6.369   1.666  0.6107  0.8630  0.2581
 2336TIP3    H231204   6.460   6.319   1.529 -1.6019 -1.0714  1.5294
 2337TIP3   OH231205   0.901   5.426   2.877 -0.9198 -0.2493  0.6664
 2337TIP3    H131206   0.889   5.370   2.953 -0.0167 -0.8592  0.3905
 2337TIP3    H231207   0.902   5.366   2.803 -0.1837  0.1491  0.3366
 2338TIP3   OH231208   6.276   7.133   1.779  0.1214 -0.0520  0.5122
 2338TIP3    H131209   6.287   7.042   1.752  0.5461  0.1658 -0.0596
 2338TIP3    H231210   6.188   7.157   1.749 -0.2188 -0.4445  1.1752
 2339TIP3   OH231211   7.294   7.097   0.481 -0.0669  0.5124 -0.0468
 2339TIP3    H131212   7.368   7.037   0.483 -0.3256  0.2009  2.0274
 2339TIP3    H231213   7.241   7.067   0.407  0.9490 -0.3906 -0.4329
 2340TIP3   OH231214   7.307   5.873   3.079 -0.2251 -0.3094 -0.9033
 2340TIP3    H131215   7.297   5.968   3.078  0.7283 -0.1985 -1.0250
 2340TIP3    H231216   7.219   5.839   3.094 -0.5611  0.5932 -0.8071
 2341TIP3   OH231217   5.605   5.070   9.412  0.1594  0.0828  0.3369
 2341TIP3    H131218   5.670   5.060   9.342  0.7860  0.9898  0.7654
 2341TIP3    H231219   5.632   5.006   9.478 -0.3184 -0.6380 -0.1606
 2342TIP3   OH231220   4.876   1.121   2.269  0.3847  0.0221 -0.0659
 2342TIP3    H131221   4.923   1.051   2.224  0.2519 -1.0502  1.3948
 2342TIP3    H231222   4.915   1.124   2.356 -0.7390  0.6636  0.4333
 2343TIP3   OH231223   0.972   1.387   0.932  0.0720 -0.2257  0.4593
 2343TIP3    H131224   1.025   1.423   0.861  1.0119  0.5219  1.4905
 2343TIP3    H231225   0.968   1.293   0.914  0.5752 -0.0914 -0.4017
 2344TIP3   OH231226   0.143   1.165   7.880 -0.6341  0.0607  0.3163
 2344TIP3    H131227   0.228   1.126   7.859 -1.2754 -0.5498 -1.3341
 2344TIP3    H231228   0.163   1.256   7.901  0.3784  0.0317 -0.4485
 2345TIP3   OH231229   1.123   3.978   8.113  0.2111  0.4492  0.2802
 2345TIP3    H131230   1.199   4.014   8.158  0.8432  0.3040 -0.6483
 2345TIP3    H231231   1.146   3.980   8.020  0.5526 -2.8425  0.1625
 2346TIP3   OH231232   1.026   5.266   2.684 -0.9403  0.0494 -0.2066
 2346TIP3    H131233   1.076   5.209   2.626 -0.8542  1.6147 -1.7585
 2346TIP3    H231234   1.053   5.355   2.659 -0.6440  0.8076  2.4737
 2347TIP3   OH231235   4.002   0.822   8.651  0.5953  0.0949  0.2876
 2347TIP3    H131236   4.052   0.743   8.667  0.1179  0.1725  2.3811
 2347TIP3    H231237   4.054   0.893   8.690 -0.5337  0.3277  1.4514
 2348TIP3   OH231238   2.326   7.605   8.068 -0.0157 -0.2464 -0.0386
 2348TIP3    H131239   2.311   7.584   7.976 -1.1447 -0.9563  0.2801
 2348TIP3    H231240   2.258   7.555   8.115 -0.2137  1.0132  1.0764
 2349TIP3   OH231241   3.819   1.381   9.010  0.0858  0.2362  0.1572
 2349TIP3    H131242   3.737   1.337   8.990 -1.0595  3.0497 -1.9446
 2349TIP3    H231243   3.867   1.382   8.927  1.1144  0.8637  0.7315
 2350TIP3   OH231244   5.042   0.749   7.036 -0.0914 -0.3778  0.1426
 2350TIP3    H131245   5.085   0.727   6.953 -0.2442 -0.8085  0.1769
 2350TIP3    H231246   4.979   0.817   7.013 -0.2198 -0.5841 -0.1140
 2351TIP3   OH231247   6.019   6.277   9.083  0.2899  0.1850  0.0628
 2351TIP3    H131248   6.051   6.344   9.143 -0.9921  0.0450  0.9580
 2351TIP3    H231249   6.096   6.223   9.063  0.9203  0.7604  0.8930
 2352TIP3   OH231250   5.759   2.116   2.981  0.4213 -0.2521  0.6559
 2352TIP3    H131251   5.781   2.028   2.949  3.1883  0.3901  0.5207
 2352TIP3    H231252   5.841   2.165   2.973 -1.9018  3.7286 -3.4763
 2353TIP3   OH231253   2.461   2.755   8.326 -0.4019 -0.0382 -0.4423
 2353TIP3    H131254   2.505   2.745   8.410 -0.9187 -0.0009 -0.1676
 2353TIP3    H231255   2.375   2.790   8.347 -0.7182 -0.4967 -0.9463
 2354TIP3   OH231256   2.022   6.701   9.079 -0.3103 -0.2553 -0.3947
 2354TIP3    H131257   2.028   6.771   9.143 -2.3189 -0.2997 -0.0752
 2354TIP3    H231258   1.959   6.733   9.014  0.5666 -0.8110 -1.5508
 2355TIP3   OH231259   6.215   0.564   7.271 -0.2703 -0.0638 -0.4962
 2355TIP3    H131260   6.303   0.593   7.244  0.5879 -3.1723 -1.4291
 2355TIP3    H231261   6.176   0.528   7.191 -1.7079 -0.3367  0.2959
 2356TIP3   OH231262   7.039   2.344   1.469 -0.1488  0.5395  0.0057
 2356TIP3    H131263   7.052   2.431   1.431 -2.7194  0.6556 -0.8417
 2356TIP3    H231264   6.979   2.358   1.542  0.6362 -0.3474  0.8481
 2357TIP3   OH231265   1.650   6.543   7.688  0.8083 -0.0391 -0.1316
 2357TIP3    H131266   1.685   6.577   7.605  0.1291  0.4554 -0.2324
 2357TIP3    H231267   1.677   6.607   7.754  2.5009 -1.1285  0.2704
 2358TIP3   OH231268   2.559   3.162   0.902  0.1217 -0.4496  0.2273
 2358TIP3    H131269   2.608   3.180   0.982  1.8335 -0.2750 -0.8049
 2358TIP3    H231270   2.518   3.078   0.917  1.7334 -1.1915  0.7339
 2359TIP3   OH231271   0.672   4.943   8.627  0.2313 -0.5312 -0.5711
 2359TIP3    H131272   0.632   4.948   8.541  0.9672  1.7014 -0.8349
 2359TIP3    H231273   0.764   4.921   8.610 -0.0721 -2.3242 -0.1641
 2360TIP3   OH231274   3.531   3.139   1.158  0.4305  0.2089  0.3961
 2360TIP3    H131275   3.448   3.158   1.201 -0.3685  0.6255 -1.2448
 2360TIP3    H231276   3.536   3.044   1.156 -0.8135  0.1358 -0.8853
 2361TIP3   OH231277   4.610   1.745   1.819  0.3225  0.3069 -0.4250
 2361TIP3    H131278   4.625   1.651   1.819  0.2880  0.3023  0.0351
 2361TIP3    H231279   4.675   1.780   1.879  0.3043  0.5729 -0.5580
 2362TIP3   OH231280   3.389   6.319   0.681 -0.3003  0.4005  0.1359
 2362TIP3    H131281   3.353   6.256   0.743  0.9629 -3.3313 -2.6089
 2362TIP3    H231282   3.325   6.324   0.611  1.4547 -1.3628 -1.7269
 2363TIP3   OH231283   1.007   4.444   9.016 -0.0121  0.0067  0.0192
 2363TIP3    H131284   0.928   4.498   9.018 -0.9127 -1.2920  1.6824
 2363TIP3    H231285   1.070   4.491   9.071 -0.9016 -0.7676  1.7332
 2364TIP3   OH231286   0.068   0.831   2.034  0.3787 -0.6087 -0.0892
 2364TIP3    H131287   0.050   0.737   2.036  2.6598 -1.1759 -1.9039
 2364TIP3    H231288   0.085   0.854   2.126  1.1021 -2.2506  0.2203
 2365TIP3   OH231289   1.551   1.723   8.779  0.0591  0.8813 -0.2504
 2365TIP3    H131290   1.564   1.630   8.799  2.8022  1.5790  1.7157
 2365TIP3    H231291   1.457   1.737   8.791 -0.1675 -1.2836  1.0644
 2366TIP3   OH231292   2.991   4.899   7.648  0.3412  0.4499  0.0802
 2366TIP3    H131293   3.041   4.823   7.619  0.4416 -0.0062  1.4094
 2366TIP3    H231294   3.056   4.957   7.688  0.5563  2.0340 -2.3552
 2367TIP3   OH231295   3.825   6.785   8.751 -1.0193  0.0957  0.9529
 2367TIP3    H131296   3.820   6.723   8.823  0.2295 -0.7655  0.3393
 2367TIP3    H231297   3.918   6.804   8.742 -0.7798 -1.8299 -2.0306
 2368TIP3   OH231298   6.944   7.496   2.074  0.5863  0.0722  0.2962
 2368TIP3    H131299   6.923   7.414   2.030  0.2473 -0.2029  0.9617
 2368TIP3    H231300   6.881   7.502   2.145 -1.3233  2.3275 -1.4325
 2369TIP3   OH231301   1.566   1.176   9.961  0.0823 -0.0903 -0.5119
 2369TIP3    H131302   1.554   1.081   9.965  0.8153 -0.1857 -0.4687
 2369TIP3    H231303   1.493   1.208   9.908 -1.6587 -0.3990  1.5500
 2370TIP3   OH231304   2.275   3.139   0.051  0.1579 -0.3229 -0.6785
 2370TIP3    H131305   2.304   3.173  -0.034  1.2218  3.0719  0.8754
 2370TIP3    H231306   2.262   3.217   0.105 -1.1044 -2.3105  2.1336
 2371TIP3   OH231307   0.893   5.773   2.912  0.2316 -0.4786 -0.3915
 2371TIP3    H131308   0.925   5.809   2.994  0.4096  0.7649 -0.9883
 2371TIP3    H231309   0.914   5.840   2.846 -0.8754 -0.9711 -1.2779
 2372TIP3   OH231310   3.147   6.332   8.603 -0.1839  0.1271  0.7323
 2372TIP3    H131311   3.234   6.314   8.639 -0.5737 -1.3168  0.9821
 2372TIP3    H231312   3.164   6.356   8.512  0.4826 -0.0103  0.8132
 2373TIP3   OH231313   0.870   5.683   8.068 -0.2270 -0.2176  0.5791
 2373TIP3    H131314   0.835   5.772   8.073  0.7964  0.2305  0.1528
 2373TIP3    H231315   0.878   5.654   8.159 -0.9232 -0.0170  0.7036
 2374TIP3   OH231316   6.919   5.211   8.788 -0.8653  0.2557  1.1212
 2374TIP3    H131317   6.832   5.223   8.824 -1.1637 -0.2972  0.6004
 2374TIP3    H231318   6.910   5.234   8.695 -0.9252 -1.6774  0.6105
 2375TIP3   OH231319   3.337   2.508   2.949  0.0813  0.2914 -0.1562
 2375TIP3    H131320   3.320   2.590   2.995 -2.9896  0.6775 -1.7124
 2375TIP3    H231321   3.251   2.466   2.944  0.9583 -1.4051 -2.3423
 2376TIP3   OH231322   0.562   3.209   1.808  0.3743 -0.3157 -0.7645
 2376TIP3    H131323   0.513   3.262   1.747 -2.0069  1.2149  2.2012
 2376TIP3    H231324   0.516   3.125   1.811  1.1535 -0.8021 -1.7899
 2377TIP3   OH231325   7.284   0.448   1.765 -0.3527 -0.5573 -0.0187
 2377TIP3    H131326   7.218   0.517   1.763 -0.4168 -0.6074  0.3617
 2377TIP3    H231327   7.278   0.407   1.678 -0.3111 -0.0874 -0.2440
 2378TIP3   OH231328   3.380   6.931   0.437 -0.3189  0.1753  0.1141
 2378TIP3    H131329   3.368   7.007   0.380 -0.8692  0.2726  0.3468
 2378TIP3    H231330   3.312   6.941   0.504  1.6895  1.3065  2.1447
 2379TIP3   OH231331   1.938   4.466   0.388  0.1948  0.0406 -0.5908
 2379TIP3    H131332   2.006   4.521   0.347 -0.2796  1.2080  0.1385
 2379TIP3    H231333   1.908   4.518   0.463 -0.9150 -0.8356 -0.4173
 2380TIP3   OH231334   5.463   2.048   8.507  0.0388 -0.1725 -0.0524
 2380TIP3    H131335   5.469   2.040   8.602 -0.3517  1.0607  0.1005
 2380TIP3    H231336   5.550   2.076   8.480  0.3588 -1.2223 -0.1611
 2381TIP3   OH231337   5.461   7.258   9.181  0.3702 -0.4530  0.2786
 2381TIP3    H131338   5.366   7.251   9.175  0.2120  1.3592 -0.0124
 2381TIP3    H231339   5.476   7.336   9.235  1.6956 -1.0280  0.7723
 2382TIP3   OH231340   0.827   1.647   6.968 -0.1119 -0.1148  0.1095
 2382TIP3    H131341   0.770   1.657   6.891  1.1089 -1.2198 -0.9775
 2382TIP3    H231342   0.817   1.556   6.993  1.9592 -0.6264 -0.7655
 2383TIP3   OH231343   6.790   6.759   0.744  0.3902  0.3832  0.3075
 2383TIP3    H131344   6.744   6.721   0.669 -0.3261 -2.2431  1.9231
 2383TIP3    H231345   6.880   6.769   0.715 -0.1024  0.5993 -1.2514
 2384TIP3   OH231346   7.297   2.010   0.602 -0.2607 -0.3758  0.1663
 2384TIP3    H131347   7.351   2.056   0.666 -1.0785 -0.2815  0.7902
 2384TIP3    H231348   7.213   1.997   0.645 -1.3983  1.1349 -1.4362
 2385TIP3   OH231349   1.922   1.063   9.702  0.0864  0.0860  0.3241
 2385TIP3    H131350   1.849   1.087   9.644 -0.1496 -1.8799 -0.2677
 2385TIP3    H231351   1.883   1.002   9.765  0.6426  1.1564  1.7405
 2386TIP3   OH231352   3.173   7.305   8.424 -0.2283 -0.4376  0.1328
 2386TIP3    H131353   3.165   7.241   8.494 -0.5770 -0.5889 -0.0435
 2386TIP3    H231354   3.088   7.349   8.422  0.5533  1.2656  1.4378
 2387TIP3   OH231355   3.781   0.080   0.145  0.0063 -0.7620  0.2231
 2387TIP3    H131356   3.874   0.085   0.169  0.4403  1.5382 -1.5272
 2387TIP3    H231357   3.773  -0.001   0.096  0.8965 -1.3870  1.0768
 2388TIP3   OH231358   4.255   7.427   9.518  0.2483 -0.3872  0.4739
 2388TIP3    H131359   4.323   7.463   9.575 -0.8106 -1.2774  2.3807
 2388TIP3    H231360   4.233   7.343   9.557 -1.6827 -0.2896 -0.3195
 2389TIP3   OH231361   7.145   0.676   1.691 -0.1917 -0.1468  0.0797
 2389TIP3    H131362   7.151   0.754   1.637 -2.4837  1.0330  1.3555
 2389TIP3    H231363   7.060   0.638   1.668 -0.2190 -0.8487  1.2523
 2390TIP3   OH231364   7.307   3.521   1.783  0.3454  0.5203  0.0766
 2390TIP3    H131365   7.367   3.493   1.852  0.5724  2.6747  0.8096
 2390TIP3    H231366   7.221   3.519   1.823  0.4374  1.4401  0.3404
 2391TIP3   OH231367   5.405   3.314   8.935 -0.3303  0.2217 -0.0698
 2391TIP3    H131368   5.379   3.372   9.007 -0.4754  0.4955 -0.3381
 2391TIP3    H231369   5.370   3.357   8.856  1.7469  1.1332 -0.5794
 2392TIP3   OH231370   2.379   0.457   8.935  0.3453  0.2386  0.7335
 2392TIP3    H131371   2.318   0.428   9.003  0.9810 -0.6265  0.9487
 2392TIP3    H231372   2.359   0.401   8.859  0.7800  0.0329  0.7665
 2393TIP3   OH231373   6.617   0.938   8.965 -0.1473 -0.6353  0.1939
 2393TIP3    H131374   6.640   1.027   8.938 -0.9178 -0.1655  1.0209
 2393TIP3    H231375   6.585   0.896   8.885  1.7145 -0.6969 -0.5521
 2394TIP3   OH231376   1.430   3.223   2.588  0.6683 -0.0049 -0.2829
 2394TIP3    H131377   1.456   3.151   2.646  2.5911  0.6589 -0.2197
 2394TIP3    H231378   1.448   3.190   2.500  0.8700  0.1281 -0.2929
 2395TIP3   OH231379   3.646   2.201   2.631  0.0270  0.2565  0.4860
 2395TIP3    H131380   3.676   2.157   2.711  1.6185  2.5820  1.2837
 2395TIP3    H231381   3.675   2.144   2.560  1.9261 -0.0826  1.4663
 2396TIP3   OH231382   6.052   0.884   6.517 -0.0860  0.5948  0.5480
 2396TIP3    H131383   6.146   0.873   6.532  0.4130  0.8382 -1.9756
 2396TIP3    H231384   6.045   0.967   6.469 -1.6822  0.9015  1.2498
 2397TIP3   OH231385   2.260   6.966   2.074 -0.6274  0.1285  0.1007
 2397TIP3    H131386   2.261   6.901   2.005 -1.3599  1.3625 -1.1133
 2397TIP3    H231387   2.168   6.978   2.095 -0.4061 -0.4932  1.5883
 2398TIP3   OH231388   5.342   1.511   1.668  0.0918 -0.1940  0.3931
 2398TIP3    H131389   5.285   1.436   1.655  0.2181  0.1613 -3.1419
 2398TIP3    H231390   5.396   1.514   1.589  0.1390  3.5439  0.3977
 2399TIP3   OH231391   3.196   0.352   8.286  0.2871  0.2272  0.1499
 2399TIP3    H131392   3.270   0.350   8.226 -0.0296  1.6782 -0.3418
 2399TIP3    H231393   3.233   0.383   8.369  0.5985 -1.1107  0.5291
 2400TIP3   OH231394   0.439   0.997   3.484 -0.2266 -0.2959  0.2853
 2400TIP3    H131395   0.378   1.018   3.413  0.4135  0.6116 -0.0205
 2400TIP3    H231396   0.523   1.032   3.455  0.0588  0.0647  1.4733
 2401TIP3   OH231397   6.696   7.439   2.787  0.0746  0.1850  0.4371
 2401TIP3    H131398   6.709   7.348   2.815 -0.9188 -0.2262 -0.3592
 2401TIP3    H231399   6.660   7.482   2.865 -1.1581 -0.5588  0.3121
 2402TIP3   OH231400   0.549   6.119   0.098  0.4297 -0.0882 -0.0897
 2402TIP3    H131401   0.585   6.084   0.179  1.0059 -0.4197 -0.4826
 2402TIP3    H231402   0.548   6.044   0.038 -0.3805  0.0535 -0.2627
 2403TIP3   OH231403   6.801   5.193   7.984  0.7015  0.3207  0.0892
 2403TIP3    H131404   6.858   5.231   8.051 -1.8158  2.4846  1.1221
 2403TIP3    H231405   6.808   5.252   7.909 -0.2650  0.6720  0.2690
 2404TIP3   OH231406   6.060   2.524   7.610  0.2144 -0.1474 -0.3451
 2404TIP3    H131407   6.064   2.536   7.704  0.3510  2.1412 -0.5988
 2404TIP3    H231408   6.144   2.557   7.578 -1.0017  2.0193 -1.4940
 2405TIP3   OH231409   7.676   0.568   2.102 -0.3128 -0.1478 -0.1742
 2405TIP3    H131410   7.594   0.590   2.145 -0.3214 -0.3055 -0.1076
 2405TIP3    H231411   7.706   0.489   2.147  0.2426  0.3203  0.2766
 2406TIP3   OH231412   3.972   1.206   0.315  0.2627  0.0677 -0.3296
 2406TIP3    H131413   3.954   1.194   0.222  1.4104  1.3480 -0.7616
 2406TIP3    H231414   3.904   1.156   0.360 -1.5541  1.0687 -1.8308
 2407TIP3   OH231415   1.478   0.936   2.517 -0.0613 -0.1203  0.6087
 2407TIP3    H131416   1.416   1.009   2.522  0.8731  0.6256  2.2731
 2407TIP3    H231417   1.488   0.907   2.608  1.2495 -0.8793  0.2451
 2408TIP3   OH231418   0.209   6.414   2.860  0.7015 -0.1426 -0.0335
 2408TIP3    H131419   0.224   6.383   2.949  1.2771  0.1651 -0.0182
 2408TIP3    H231420   0.114   6.421   2.852  0.6398 -0.3359  0.4974
 2409TIP3   OH231421   3.604   0.174   8.343  0.6952 -0.1906  0.2441
 2409TIP3    H131422   3.632   0.127   8.422 -1.1769 -0.7316  0.6238
 2409TIP3    H231423   3.580   0.106   8.281 -0.5912  0.2100  0.2657
 2410TIP3   OH231424   0.006   6.190   0.556  0.3785 -0.3067  0.3203
 2410TIP3    H131425   0.062   6.241   0.613  1.6267 -0.3987 -0.7837
 2410TIP3    H231426   0.060   6.116   0.528  0.1641  0.2820 -1.7817
 2411TIP3   OH231427   1.733   4.068   7.673  0.1192  0.2173  0.3382
 2411TIP3    H131428   1.822   4.097   7.651  0.0749 -0.3470 -0.6379
 2411TIP3    H231429   1.679   4.145   7.658  0.0979 -0.1361 -1.5744
 2412TIP3   OH231430   0.621   2.519   3.426  0.5406  0.2825 -0.5205
 2412TIP3    H131431   0.662   2.452   3.482  0.9115  1.2589  0.4158
 2412TIP3    H231432   0.654   2.500   3.338  1.1419 -0.3836 -0.1658
 2413TIP3   OH231433   5.383   1.733   2.306  0.6455  0.4868  0.0432
 2413TIP3    H131434   5.442   1.714   2.379 -0.1401  1.0282  0.8340
 2413TIP3    H231435   5.342   1.816   2.329  0.4209  0.6954 -1.0469
 2414TIP3   OH231436   4.152   1.319   0.501  0.4493 -0.1800 -0.1746
 2414TIP3    H131437   4.092   1.269   0.446  2.2025  0.6803 -3.1424
 2414TIP3    H231438   4.195   1.254   0.556 -0.2919 -1.3466 -0.9483
 2415TIP3   OH231439   4.472   0.614   0.778  0.3594 -0.4037 -0.5459
 2415TIP3    H131440   4.487   0.621   0.872 -1.8081 -0.3785 -0.1549
 2415TIP3    H231441   4.478   0.520   0.760  1.9175 -0.3172 -0.6417
 2416TIP3   OH231442   7.472   5.317   9.219  0.2069 -0.0216 -0.2833
 2416TIP3    H131443   7.428   5.350   9.297  0.1743 -0.5488 -0.0693
 2416TIP3    H231444   7.497   5.227   9.242 -0.0839 -0.2907 -0.9904
 2417TIP3   OH231445   0.335   0.497   1.691 -0.3068  0.1943 -0.7510
 2417TIP3    H131446   0.290   0.581   1.696  0.0474  0.3477  0.1116
 2417TIP3    H231447   0.428   0.520   1.685  0.0194 -0.0841  1.7797
 2418TIP3   OH231448   4.431   4.613   8.655  0.4596 -0.6357 -0.2910
 2418TIP3    H131449   4.519   4.629   8.690  0.3936 -0.5383 -0.1701
 2418TIP3    H231450   4.439   4.631   8.562  0.2891  0.4976 -0.1053
 2419TIP3   OH231451   0.988   7.144   2.407  0.0946  0.1152  0.0817
 2419TIP3    H131452   1.020   7.130   2.317 -1.3195 -0.7618 -0.3093
 2419TIP3    H231453   1.060   7.190   2.450  0.8350  0.5175 -1.4853
 2420TIP3   OH231454   3.337   2.914   2.142  0.2663 -0.2323  0.9535
 2420TIP3    H131455   3.337   2.819   2.135  0.6924 -0.2002  0.4590
 2420TIP3    H231456   3.244   2.938   2.145  0.1472 -0.6279  0.5506
 2421TIP3   OH231457   7.108   6.035   7.266  0.2637  0.3814 -0.1211
 2421TIP3    H131458   7.087   5.960   7.210 -1.2586  1.0138 -0.4581
 2421TIP3    H231459   7.035   6.039   7.328  1.5637  0.1322  1.4736
 2422TIP3   OH231460   0.581   2.005   8.555  0.7054  0.3290 -0.1122
 2422TIP3    H131461   0.674   2.027   8.546  0.5273  2.5130  2.2329
 2422TIP3    H231462   0.571   1.977   8.646 -0.9292  0.0692 -0.3344
 2423TIP3   OH231463   2.550   2.195   9.546 -0.0242  0.1352  0.3785
 2423TIP3    H131464   2.482   2.235   9.492  0.9295  0.8616 -0.2953
 2423TIP3    H231465   2.505   2.176   9.629 -1.9475 -2.4559 -1.1113
 2424TIP3   OH231466   1.680   6.357   1.807 -0.4208 -0.4767 -0.1544
 2424TIP3    H131467   1.614   6.427   1.803  0.8987  0.7581 -1.8895
 2424TIP3    H231468   1.747   6.389   1.866 -0.6068 -1.0412  0.3736
 2425TIP3   OH231469   4.375   1.901   1.804 -0.3625  0.1100  0.2754
 2425TIP3    H131470   4.374   1.928   1.896 -0.6264  0.9702  0.0337
 2425TIP3    H231471   4.455   1.851   1.794  1.5735  2.9829  0.1721
 2426TIP3   OH231472   3.408   6.552   2.057  0.3621  0.0173  0.4939
 2426TIP3    H131473   3.381   6.548   1.965 -1.8319 -2.5327  1.1050
 2426TIP3    H231474   3.356   6.623   2.094  1.3874  1.1752 -0.2309
 2427TIP3   OH231475   6.567   0.327   1.702 -0.2368  0.9366 -0.5644
 2427TIP3    H131476   6.613   0.250   1.668  2.3463  1.6563  1.0365
 2427TIP3    H231477   6.572   0.318   1.797 -0.4282  2.7565 -0.3455
 2428TIP3   OH231478   2.843   4.866   2.144 -0.2797  0.2662  0.3981
 2428TIP3    H131479   2.904   4.901   2.209 -0.3010  1.0879 -0.0179
 2428TIP3    H231480   2.768   4.835   2.196 -0.8248  2.0060  0.7122
 2429TIP3   OH231481   2.678   3.638   8.121 -0.3847  0.8749 -0.0622
 2429TIP3    H131482   2.660   3.731   8.132  0.5200  1.0253  0.2378
 2429TIP3    H231483   2.696   3.607   8.210 -0.9160  0.3604 -0.1300
 2430TIP3   OH231484   3.229   2.031   0.939  0.3271 -0.0281  0.0259
 2430TIP3    H131485   3.259   1.996   0.854  0.5487 -0.4110  0.2567
 2430TIP3    H231486   3.310   2.054   0.985  0.2963 -1.1205  0.6776
 2431TIP3   OH231487   1.864   6.246   0.039 -0.6026  0.2832  0.4783
 2431TIP3    H131488   1.905   6.321   0.080 -0.8066  0.7765 -0.2063
 2431TIP3    H231489   1.935   6.182   0.030 -0.2711  0.6541  0.4380
 2432TIP3   OH231490   0.475   2.321   2.200  0.1258 -0.3105 -0.1516
 2432TIP3    H131491   0.427   2.243   2.174 -0.0588  0.0756 -1.0020
 2432TIP3    H231492   0.478   2.316   2.296 -2.4735  0.1319  0.0400
 2433TIP3   OH231493   1.530   2.266   7.362 -0.2892 -0.0355  0.4369
 2433TIP3    H131494   1.598   2.240   7.300 -0.3003  0.4643  0.2058
 2433TIP3    H231495   1.458   2.204   7.346  0.1108 -0.5687  0.6890
 2434TIP3   OH231496   0.063   7.487   1.420  0.2134  0.3346 -0.1273
 2434TIP3    H131497   0.119   7.506   1.496 -2.7010  0.6002  2.1594
 2434TIP3    H231498   0.017   7.570   1.404 -1.0269 -0.4100 -0.5261
 2435TIP3   OH231499   6.783   6.993   2.759 -0.2118  0.2237  0.1644
 2435TIP3    H131500   6.793   7.065   2.821  2.3189 -0.1718  0.3006
 2435TIP3    H231501   6.791   7.034   2.673  1.6130  0.1083  0.2489
 2436TIP3   OH231502   4.375   1.016   1.326 -0.4540  0.4727  0.0145
 2436TIP3    H131503   4.415   0.932   1.350 -0.9259  0.8299  2.3077
 2436TIP3    H231504   4.283   0.995   1.311 -0.7299  0.6502  1.3248
 2437TIP3   OH231505   4.526   4.711   8.400  0.4522 -0.0032  0.3708
 2437TIP3    H131506   4.509   4.781   8.337  0.1955  1.5631  2.0963
 2437TIP3    H231507   4.549   4.635   8.346  0.0076  1.1891 -1.5917
 2438TIP3   OH231508   1.540   5.114   2.118  0.4697  0.6267  0.0534
 2438TIP3    H131509   1.458   5.153   2.087  0.6103  1.6902  0.9962
 2438TIP3    H231510   1.609   5.166   2.076  0.6638  0.5498  0.2755
 2439TIP3   OH231511   1.486   5.269   1.678  0.2365  0.0263  0.0770
 2439TIP3    H131512   1.392   5.280   1.667  0.2789 -1.2155 -1.9754
 2439TIP3    H231513   1.499   5.272   1.773 -1.8315  0.3751  0.3953
 2440TIP3   OH231514   3.836   5.850   1.349 -0.2526  0.7970 -0.3282
 2440TIP3    H131515   3.764   5.814   1.297 -0.1750  0.7365 -0.3953
 2440TIP3    H231516   3.884   5.906   1.289  0.2486  0.1700 -0.5186
 2441TIP3   OH231517   4.492   1.557   8.671  0.4151  0.0403  0.0796
 2441TIP3    H131518   4.423   1.624   8.667  0.3119 -0.1282 -1.7452
 2441TIP3    H231519   4.571   1.602   8.642  0.2406 -0.7152 -1.6841
 2442TIP3   OH231520   3.427   4.549   7.329  0.0629 -0.3425  0.2967
 2442TIP3    H131521   3.499   4.612   7.337  0.8528 -1.2514  0.4917
 2442TIP3    H231522   3.355   4.600   7.292  0.3185  0.9531  1.5087
 2443TIP3   OH231523   3.582   1.891   9.550  0.0041  0.2241 -0.2406
 2443TIP3    H131524   3.496   1.923   9.578 -1.0001 -2.3063 -0.1268
 2443TIP3    H231525   3.642   1.925   9.616 -0.8053  2.3695 -0.5325
 2444TIP3   OH231526   3.129   6.310   0.554 -0.8420 -0.1659 -0.0213
 2444TIP3    H131527   3.050   6.354   0.583 -0.5041  1.2503 -1.1202
 2444TIP3    H231528   3.099   6.248   0.488 -1.0906  0.0862 -0.1495
 2445TIP3   OH231529   3.800   6.170   2.820  0.9387  0.2951 -0.1161
 2445TIP3    H131530   3.728   6.227   2.850 -1.0269 -1.4695 -1.1886
 2445TIP3    H231531   3.812   6.107   2.890 -0.7651 -1.2630 -1.1176
 2446TIP3   OH231532   0.218   3.230   0.688  0.8185  0.4149 -0.9776
 2446TIP3    H131533   0.272   3.155   0.662  0.5858 -0.0499 -0.1633
 2446TIP3    H231534   0.188   3.269   0.606 -1.5579 -2.1904 -1.4907
 2447TIP3   OH231535   1.422   6.634   2.293  0.5854 -0.2509 -0.2330
 2447TIP3    H131536   1.460   6.605   2.376  1.0232 -0.9667 -0.6800
 2447TIP3    H231537   1.471   6.713   2.270 -1.4259  1.6914  1.6160
 2448TIP3   OH231538   4.884   7.181   2.248 -0.1020 -0.0143  0.0660
 2448TIP3    H131539   4.867   7.275   2.259 -1.1250 -0.1435 -0.2974
 2448TIP3    H231540   4.878   7.145   2.336 -2.9119 -0.2120 -0.1210
 2449TIP3   OH231541   1.231   1.077   2.844  0.0351  1.1948 -0.8931
 2449TIP3    H131542   1.158   1.067   2.906  1.4088 -3.0535  0.4028
 2449TIP3    H231543   1.307   1.096   2.899  1.0038 -1.1933 -1.2702
 2450TIP3   OH231544   5.724   2.747   8.619  0.0461  0.0110 -0.1250
 2450TIP3    H131545   5.639   2.705   8.628 -0.1207  0.5828  1.3106
 2450TIP3    H231546   5.735   2.761   8.525 -1.4625 -0.0308 -0.3299
 2451TIP3   OH231547   1.709   1.401   9.693 -0.2435 -0.3324  0.0179
 2451TIP3    H131548   1.739   1.315   9.663  0.2156 -0.8307  1.7405
 2451TIP3    H231549   1.614   1.392   9.699 -0.2736 -0.4549 -0.5568
 2452TIP3   OH231550   6.935   6.392   1.253  0.2818 -0.8770  0.0599
 2452TIP3    H131551   6.998   6.325   1.277 -0.8434 -1.6783  0.8534
 2452TIP3    H231552   6.872   6.393   1.324 -0.9384 -0.5004 -0.9885
 2453TIP3   OH231553   3.646   3.618   8.383 -0.1359 -0.0039  0.0790
 2453TIP3    H131554   3.667   3.702   8.423  2.9605  0.2039 -1.7122
 2453TIP3    H231555   3.707   3.610   8.310 -1.3945 -3.1249 -0.7837
 2454TIP3   OH231556   3.973   2.291   1.521 -0.5838  0.0300  0.9283
 2454TIP3    H131557   4.009   2.329   1.441  0.7293 -1.7852  0.5906
 2454TIP3    H231558   3.888   2.255   1.495  0.0346 -0.9504  0.2094
 2455TIP3   OH231559   3.211   0.599   2.066 -0.1745 -0.4514 -0.4026
 2455TIP3    H131560   3.188   0.672   2.010 -0.8981 -0.5997 -0.3044
 2455TIP3    H231561   3.238   0.639   2.149  1.4942 -0.1990 -1.0258
 2456TIP3   OH231562   1.903   0.606   0.190 -0.0272  0.5433  0.6207
 2456TIP3    H131563   1.960   0.682   0.180 -0.0549  0.5377  0.4226
 2456TIP3    H231564   1.900   0.566   0.103 -0.0923  0.3728  0.7017
 2457TIP3   OH231565   4.518   1.369   8.363  0.2036 -0.1372 -0.1140
 2457TIP3    H131566   4.464   1.447   8.375 -0.4841 -0.5794 -0.2610
 2457TIP3    H231567   4.466   1.314   8.304  0.2971 -1.0740  0.6662
 2458TIP3   OH231568   2.328   1.315   1.135  0.4280  0.2544  0.1224
 2458TIP3    H131569   2.388   1.328   1.209 -1.0688  0.1410  1.4379
 2458TIP3    H231570   2.298   1.403   1.113  0.3136  0.2247  0.1566
 2459TIP3   OH231571   0.090   1.743   1.662  0.0297  0.4205  0.3073
 2459TIP3    H131572   0.140   1.786   1.593 -0.5647  0.5925 -0.0173
 2459TIP3    H231573   0.151   1.739   1.737  0.8059 -0.0997 -0.3282
 2460TIP3   OH231574   0.370   2.103   9.588  0.3786 -0.0348  0.9738
 2460TIP3    H131575   0.352   2.172   9.525  1.5247 -0.8213 -0.2746
 2460TIP3    H231576   0.459   2.074   9.567 -0.0097 -1.7699  1.5586
 2461TIP3   OH231577   5.554   0.255   9.610  0.3098  0.1451  0.4218
 2461TIP3    H131578   5.462   0.255   9.639 -0.3139 -0.2098 -1.4495
 2461TIP3    H231579   5.604   0.235   9.689 -1.2248  0.2591  1.4614
 2462TIP3   OH231580   1.185   0.326   9.035 -0.0835  1.0744 -0.0441
 2462TIP3    H131581   1.261   0.374   9.069  0.3210  0.3010  0.1670
 2462TIP3    H231582   1.222   0.245   9.000 -0.9662  0.0489  1.3291
 2463TIP3   OH231583   7.325   2.651   9.676 -0.3212  0.0494 -0.3990
 2463TIP3    H131584   7.418   2.628   9.666 -0.2963  0.0184 -0.1198
 2463TIP3    H231585   7.281   2.566   9.686 -0.1794  0.1141  1.0230
 2464TIP3   OH231586   1.757   2.748   1.282  0.3761 -0.1608 -0.1092
 2464TIP3    H131587   1.730   2.812   1.217  1.5755  0.6236  0.1397
 2464TIP3    H231588   1.742   2.663   1.240 -4.0343  0.0007  0.5962
 2465TIP3   OH231589   1.613   3.131   0.421  0.6060  0.4133 -0.4085
 2465TIP3    H131590   1.535   3.183   0.438  1.1990  1.7001 -1.4833
 2465TIP3    H231591   1.596   3.047   0.465 -1.1791  0.8149 -0.2625
 2466TIP3   OH231592   0.761   7.135   9.474 -0.6919 -0.0020 -0.1380
 2466TIP3    H131593   0.723   7.221   9.492 -1.6112 -0.4441  0.1499
 2466TIP3    H231594   0.806   7.111   9.555 -0.9788 -0.0580  0.0074
 2467TIP3   OH231595   7.621   1.551   2.445  1.2344 -0.0961 -0.6847
 2467TIP3    H131596   7.663   1.603   2.513 -1.7099  0.8234  0.5539
 2467TIP3    H231597   7.602   1.614   2.375 -1.2408  0.3704  0.3110
 2468TIP3   OH231598   7.507   0.962   9.903 -0.8261 -0.5076  0.4743
 2468TIP3    H131599   7.571   1.020   9.945 -0.0109 -1.1675  0.1688
 2468TIP3    H231600   7.492   1.001   9.817  0.8792 -1.5063 -0.3452
 2469TIP3   OH231601   2.218   1.180   1.336 -0.1272 -0.1671 -0.3905
 2469TIP3    H131602   2.136   1.188   1.287  0.2516  0.5593 -0.9158
 2469TIP3    H231603   2.270   1.118   1.285 -0.5634 -1.1020  0.2621
 2470TIP3   OH231604   7.551   0.911   7.297 -0.2921 -0.0857 -0.4679
 2470TIP3    H131605   7.604   0.989   7.280  0.4388 -0.0273  1.6882
 2470TIP3    H231606   7.581   0.846   7.233 -1.1479  1.4420 -2.5267
 2471TIP3   OH231607   0.705   1.604   0.207 -0.4073  0.0805 -0.0850
 2471TIP3    H131608   0.658   1.666   0.150  0.3411 -0.1745 -0.9968
 2471TIP3    H231609   0.792   1.643   0.217 -0.2306 -0.3673  0.1051
 2472TIP3   OH231610   6.378   6.421   7.804  0.2926  0.5185 -0.1569
 2472TIP3    H131611   6.317   6.459   7.868  1.7705  2.0035  0.4426
 2472TIP3    H231612   6.328   6.420   7.722 -1.0231  0.2876  0.6059
 2473TIP3   OH231613   4.765   1.546   1.320 -0.2044 -0.0865  0.0723
 2473TIP3    H131614   4.813   1.595   1.253  0.1503  0.3679  0.6518
 2473TIP3    H231615   4.681   1.526   1.279 -0.9674  2.2898  0.2880
 2474TIP3   OH231616   3.874   6.338   1.245  0.4147  0.0818  0.3875
 2474TIP3    H131617   3.947   6.275   1.249  0.3433 -0.1926 -1.5819
 2474TIP3    H231618   3.801   6.292   1.287  1.0924 -0.0392  1.4742
 2475TIP3   OH231619   1.451   2.928   8.205 -0.1050 -0.3869 -1.0199
 2475TIP3    H131620   1.403   2.896   8.281  2.7369  2.5329  2.3771
 2475TIP3    H231621   1.519   2.862   8.190 -0.2450 -0.6493 -0.5193
 2476TIP3   OH231622   0.722   2.770   8.895  0.1316  1.1766 -0.0227
 2476TIP3    H131623   0.710   2.676   8.884 -1.5660  1.6576 -3.8295
 2476TIP3    H231624   0.793   2.792   8.834 -0.2196  2.4862  0.0170
 2477TIP3   OH231625   5.867   7.408   8.597 -0.5067 -0.6008  0.3053
 2477TIP3    H131626   5.804   7.342   8.628 -0.2697  0.6869  3.9704
 2477TIP3    H231627   5.947   7.390   8.646  0.0280  1.5089  0.2817
 2478TIP3   OH231628   4.247   6.725   0.822 -0.1904 -0.1649 -0.8350
 2478TIP3    H131629   4.269   6.818   0.825 -0.5878 -0.0938  0.2512
 2478TIP3    H231630   4.189   6.716   0.747 -2.7791  1.0712  0.8682
 2479TIP3   OH231631   1.528   3.054   8.834 -0.4591 -0.2983  0.3920
 2479TIP3    H131632   1.547   3.110   8.759  0.2206 -0.8131  0.1714
 2479TIP3    H231633   1.435   3.069   8.852 -0.3732  0.6306  0.1227
 2480TIP3   OH231634   2.829   6.208   9.479 -0.3795  0.0009  0.0813
 2480TIP3    H131635   2.772   6.132   9.483  0.2117 -0.3957  1.3401
 2480TIP3    H231636   2.793   6.261   9.408 -0.5689 -1.6303 -1.1108
 2481TIP3   OH231637   0.435   4.621   1.369 -0.1473  0.5516 -0.0835
 2481TIP3    H131638   0.468   4.705   1.400 -0.7578  1.4372 -1.7143
 2481TIP3    H231639   0.512   4.577   1.333  0.0005  0.8342 -0.1163
 2482TIP3   OH231640   7.509   3.294   8.108 -0.0227 -0.4862  0.2715
 2482TIP3    H131641   7.475   3.259   8.026  1.7548  0.7024 -1.0257
 2482TIP3    H231642   7.562   3.222   8.144  0.3454 -0.5272 -0.3446
 2483TIP3   OH231643   7.256   7.004   7.458  0.1470 -0.0535 -0.5182
 2483TIP3    H131644   7.304   6.954   7.392  2.3335  0.1487  0.8084
 2483TIP3    H231645   7.244   7.090   7.420  3.0503  0.6679 -0.0936
 2484TIP3   OH231646   1.166   6.563   7.873  0.5184 -0.4201  0.7232
 2484TIP3    H131647   1.184   6.469   7.878 -0.3916 -0.5496  2.3373
 2484TIP3    H231648   1.248   6.605   7.897  0.7643 -0.8211  0.5902
 2485TIP3   OH231649   5.127   6.212   0.837  0.4154  0.4135 -0.2649
 2485TIP3    H131650   5.193   6.143   0.837 -0.1104 -0.1714 -2.5872
 2485TIP3    H231651   5.170   6.286   0.795  0.7756  1.3690  1.6641
 2486TIP3   OH231652   5.851   1.849   1.307 -0.2902 -0.1851 -0.4031
 2486TIP3    H131653   5.767   1.894   1.310  0.4218  1.1759  1.3047
 2486TIP3    H231654   5.916   1.920   1.303  0.7972 -1.1847 -1.1443
 2487TIP3   OH231655   1.220   3.461   8.104  0.1271 -0.5103 -0.5841
 2487TIP3    H131656   1.154   3.472   8.172  0.0070  0.3287 -0.8320
 2487TIP3    H231657   1.174   3.415   8.034 -0.1546 -0.0797 -0.6862
 2488TIP3   OH231658   4.518   7.589   8.616  0.2987 -0.0836 -0.4650
 2488TIP3    H131659   4.514   7.495   8.631 -0.0577 -0.2871 -1.6667
 2488TIP3    H231660   4.582   7.622   8.679  0.5587 -1.1597 -0.1568
 2489TIP3   OH231661   4.227   2.418   0.101  0.7912 -0.3033  0.0805
 2489TIP3    H131662   4.189   2.479   0.164 -2.0550 -1.5297 -0.2990
 2489TIP3    H231663   4.178   2.337   0.113  2.1347 -1.4861 -1.7572
 2490TIP3   OH231664   1.550   0.444   8.637  0.5365  0.1009 -0.4945
 2490TIP3    H131665   1.623   0.386   8.658 -1.4716 -1.7260  2.0633
 2490TIP3    H231666   1.558   0.516   8.700 -0.3504 -0.6283  0.4933
 2491TIP3   OH231667   4.126   1.251   7.792 -0.4299 -0.1839  0.5150
 2491TIP3    H131668   4.057   1.186   7.777 -0.3021  0.0520 -1.3457
 2491TIP3    H231669   4.158   1.232   7.880 -0.2149 -2.8605 -0.0363
 2492TIP3   OH231670   5.454   4.213   7.214 -0.3967 -0.4755  0.2286
 2492TIP3    H131671   5.431   4.176   7.128 -0.0090 -1.0505  0.3649
 2492TIP3    H231672   5.474   4.137   7.268  0.4667 -0.0692  0.5032
 2493TIP3   OH231673   4.920   1.379   8.668 -0.1906  0.7453 -0.2929
 2493TIP3    H131674   4.863   1.323   8.721  1.0469  0.9912  1.3745
 2493TIP3    H231675   4.872   1.390   8.585 -1.7371 -0.4619  0.3802
 2494TIP3   OH231676   4.887   6.849   8.631 -0.5910  0.6418 -0.2259
 2494TIP3    H131677   4.921   6.818   8.715  0.1675  0.0148 -0.7572
 2494TIP3    H231678   4.962   6.892   8.589 -0.0356 -1.8223 -1.9386
 2495TIP3   OH231679   2.658   5.603   0.663  0.2118  0.3302 -0.0258
 2495TIP3    H131680   2.685   5.627   0.752  1.7242  0.8387 -0.5823
 2495TIP3    H231681   2.729   5.636   0.607 -1.1049  0.7615 -1.5062
 2496TIP3   OH231682   3.844   7.385   1.229 -0.2495  0.0075 -0.4031
 2496TIP3    H131683   3.925   7.398   1.180 -0.2833  0.8746 -0.2453
 2496TIP3    H231684   3.792   7.463   1.209 -0.6096 -0.0421  0.3345
 2497TIP3   OH231685   5.756   1.304   1.087  0.2323 -0.0057  0.4716
 2497TIP3    H131686   5.767   1.340   1.175  1.4083  0.5728  0.1102
 2497TIP3    H231687   5.768   1.210   1.098 -0.2660 -0.0107  1.0249
 2498TIP3   OH231688   2.258   4.936   7.615  0.3097 -0.3528  0.0868
 2498TIP3    H131689   2.287   4.879   7.686 -0.4560 -1.5090 -0.4839
 2498TIP3    H231690   2.191   4.885   7.570 -3.9093  2.6395  2.2701
 2499TIP3   OH231691   6.765   3.084   0.879 -0.2967  0.1178 -0.4535
 2499TIP3    H131692   6.755   3.178   0.868  1.2750  0.1853 -1.6592
 2499TIP3    H231693   6.841   3.074   0.936 -2.2767 -0.4442  2.2926
 2500TIP3   OH231694   3.987   6.047   8.905  0.2713 -0.2464 -0.2297
 2500TIP3    H131695   4.006   6.095   8.986 -0.4795 -2.2216  1.1977
 2500TIP3    H231696   4.067   6.056   8.853  1.2770  0.0353  1.2733
 2501TIP3   OH231697   0.382   1.160   7.289  0.0644  0.1082  0.0154
 2501TIP3    H131698   0.449   1.094   7.271  0.5456  0.0711  1.7836
 2501TIP3    H231699   0.307   1.110   7.321  0.6773  0.4141  2.0513
 2502TIP3   OH231700   6.955   4.272   9.736 -0.0642  0.0860 -0.0442
 2502TIP3    H131701   6.992   4.248   9.651 -1.2642  1.4908 -1.0352
 2502TIP3    H231702   6.862   4.248   9.729 -0.4408  1.3160  0.3801
 2503TIP3   OH231703   5.327   0.354   0.960 -0.1048  0.0680 -0.0640
 2503TIP3    H131704   5.261   0.322   0.898 -1.1914  1.0797  0.5207
 2503TIP3    H231705   5.389   0.282   0.969 -1.7581 -1.3890  0.2468
 2504TIP3   OH231706   3.567   3.071   8.182  0.4282 -0.5693  0.3568
 2504TIP3    H131707   3.511   3.021   8.242 -1.7302 -0.4722 -1.4588
 2504TIP3    H231708   3.509   3.138   8.146  1.9809  0.1444 -0.9260
 2505TIP3   OH231709   7.376   7.329   0.874 -0.0215  0.6815  0.2979
 2505TIP3    H131710   7.366   7.374   0.958 -1.8197  0.7501  0.0715
 2505TIP3    H231711   7.305   7.264   0.872 -0.0043  0.6727 -1.1656
 2506TIP3   OH231712   5.065   0.668   2.335  0.2750  0.3237 -0.2187
 2506TIP3    H131713   5.039   0.737   2.396 -0.8593 -0.9091  0.7423
 2506TIP3    H231714   5.024   0.589   2.369  0.4178 -0.5880 -2.0539
 2507TIP3   OH231715   1.993   4.565   2.107  0.0513  0.6626 -0.3951
 2507TIP3    H131716   1.923   4.611   2.060 -0.4286 -1.2909 -1.7675
 2507TIP3    H231717   1.947   4.508   2.169  0.5376  0.9180  0.2050
 2508TIP3   OH231718   0.656   3.159   0.567 -0.6031  0.5489 -0.2485
 2508TIP3    H131719   0.684   3.162   0.475  0.7013 -0.1802  0.0988
 2508TIP3    H231720   0.671   3.247   0.600 -1.1533  0.8387 -0.7368
 2509TIP3   OH231721   6.938   0.521   8.072  0.0985  0.2453 -0.2932
 2509TIP3    H131722   7.003   0.461   8.110 -0.4829  0.2973  0.8340
 2509TIP3    H231723   6.881   0.465   8.020 -0.2360 -0.1341  0.4747
 2510TIP3   OH231724   3.599   5.795   1.184 -0.4779  0.6018 -0.0363
 2510TIP3    H131725   3.602   5.700   1.188  1.3427  0.6102 -0.4647
 2510TIP3    H231726   3.603   5.816   1.091 -1.5633  1.1104  0.0099
 2511TIP3   OH231727   1.030   4.923   7.534 -0.0740 -1.1555  0.1193
 2511TIP3    H131728   0.934   4.929   7.529 -0.4158 -1.7549  3.5203
 2511TIP3    H231729   1.051   4.842   7.487 -0.9280 -0.0239 -2.3906
 2512TIP3   OH231730   4.676   1.300   0.576 -0.1034  0.4821  0.7142
 2512TIP3    H131731   4.603   1.342   0.621  0.0465  2.6080 -0.8953
 2512TIP3    H231732   4.635   1.240   0.514 -0.3985  0.0256  1.3403
 2513TIP3   OH231733   0.131   6.065   8.568 -0.2817  0.2293  0.8825
 2513TIP3    H131734   0.104   6.121   8.495 -1.3497 -1.3435  0.0230
 2513TIP3    H231735   0.051   6.048   8.616  0.0378 -0.5508  1.1448
 2514TIP3   OH231736   5.719   0.177   7.204  0.0035  0.5146 -0.4360
 2514TIP3    H131737   5.711   0.108   7.271 -1.6509 -2.1030 -3.1041
 2514TIP3    H231738   5.784   0.237   7.240 -1.3907 -0.1899  3.9085
 2515TIP3   OH231739   0.951   7.113   9.731 -0.6320 -0.3408 -0.0665
 2515TIP3    H131740   1.042   7.132   9.753 -1.0609  0.1797  1.3574
 2515TIP3    H231741   0.899   7.164   9.794 -1.9486  0.8533 -2.0049
 2516TIP3   OH231742   5.275   1.044   0.337  0.3250 -0.6568  0.6459
 2516TIP3    H131743   5.308   1.127   0.373  0.8007 -0.8067  0.5572
 2516TIP3    H231744   5.350   1.006   0.292 -0.1270 -0.7222 -0.0697
 2517TIP3   OH231745   4.983   5.998   0.318 -0.3519 -0.5942  0.3265
 2517TIP3    H131746   4.950   6.087   0.305  0.4116 -0.5972 -1.9800
 2517TIP3    H231747   5.025   6.001   0.404 -2.0923  0.6950  1.2020
 2518TIP3   OH231748   3.000   2.483   1.859 -0.1564  0.3663 -0.3901
 2518TIP3    H131749   3.013   2.403   1.910 -2.2030 -0.1851 -0.6231
 2518TIP3    H231750   3.022   2.458   1.769  1.7063  0.8320 -0.0957
 2519TIP3   OH231751   4.274   0.778   9.341  0.0517 -0.6020  0.2708
 2519TIP3    H131752   4.208   0.779   9.411  0.4221  0.5509  0.6245
 2519TIP3    H231753   4.289   0.870   9.321  0.2366 -0.9094 -1.0817
 2520TIP3   OH231754   7.129   1.505   0.431  0.5477 -0.8446 -0.5361
 2520TIP3    H131755   7.182   1.562   0.487  0.3933  0.6285 -1.7968
 2520TIP3    H231756   7.042   1.507   0.469  0.4450  0.1419 -0.7816
 2521TIP3   OH231757   3.284   2.484   7.978  0.1220 -0.5815  0.8248
 2521TIP3    H131758   3.265   2.549   7.910 -0.1944 -0.1009  1.3690
 2521TIP3    H231759   3.211   2.422   7.973 -1.0728  0.6410  2.1521
 2522TIP3   OH231760   6.308   0.542   8.267 -0.1575 -0.0151 -0.6015
 2522TIP3    H131761   6.292   0.448   8.266 -1.8573  0.1390  1.7947
 2522TIP3    H231762   6.226   0.582   8.238 -0.4851  0.7116  1.1762
 2523TIP3   OH231763   2.491   4.966   0.307  0.2119 -0.1440  0.1239
 2523TIP3    H131764   2.566   4.967   0.367 -0.8385 -2.6888  1.6183
 2523TIP3    H231765   2.501   4.884   0.258 -1.1362 -0.1010 -0.2514
 2524TIP3   OH231766   2.491   0.213   7.768 -0.1587 -0.4279 -0.1523
 2524TIP3    H131767   2.440   0.189   7.846 -0.1871  0.6206  0.1763
 2524TIP3    H231768   2.436   0.186   7.694 -0.7691 -0.1897  0.2037
 2525TIP3   OH231769   2.425   6.134   1.761  0.0374 -0.1598  0.3932
 2525TIP3    H131770   2.476   6.125   1.841  1.0442 -0.2839 -0.2411
 2525TIP3    H231771   2.365   6.060   1.762  1.5431 -1.4531 -0.0025
 2526TIP3   OH231772   0.077   1.617   8.443 -0.2149  0.1152 -0.2185
 2526TIP3    H131773   0.023   1.661   8.509 -0.0114  0.5816 -0.3613
 2526TIP3    H231774   0.162   1.659   8.450  0.1419 -0.6489  0.0336
 2527TIP3   OH231775   5.412   1.839   0.353  0.5974  0.0236  0.1880
 2527TIP3    H131776   5.473   1.848   0.280  0.2681 -1.3147 -0.2769
 2527TIP3    H231777   5.398   1.929   0.384  2.5248  0.3938  0.1102
 2528TIP3   OH231778   0.151   3.900   2.282 -0.3532  0.1525  0.1775
 2528TIP3    H131779   0.090   3.848   2.231  0.4335 -1.3151  0.6738
 2528TIP3    H231780   0.128   3.884   2.373  0.2614  0.2135  0.3540
 2529TIP3   OH231781   4.571   1.979   0.409 -0.3152 -0.1700 -0.1976
 2529TIP3    H131782   4.617   1.979   0.493  1.1997 -0.2341 -0.9774
 2529TIP3    H231783   4.559   2.072   0.389 -2.1085 -0.1514  0.7926
 2530TIP3   OH231784   4.434   4.133   7.993 -0.1597 -0.1527  0.1997
 2530TIP3    H131785   4.451   4.096   8.080 -0.7242 -3.9304 -1.1223
 2530TIP3    H231786   4.356   4.087   7.962  0.1549  0.9144 -2.4021
 2531TIP3   OH231787   2.499   4.650   2.558  0.0821  0.3185  0.7422
 2531TIP3    H131788   2.527   4.649   2.650 -1.6151 -1.7836  1.3276
 2531TIP3    H231789   2.447   4.729   2.549  0.0207  0.3952  1.6844
 2532TIP3   OH231790   6.863   2.187   8.321  0.2749 -0.1697 -0.2218
 2532TIP3    H131791   6.863   2.202   8.415 -0.2018  2.5631 -0.5698
 2532TIP3    H231792   6.955   2.196   8.295  0.5334 -1.7857  0.0558
 2533TIP3   OH231793   5.944   1.694   8.934 -0.1088 -0.0342  0.4256
 2533TIP3    H131794   5.926   1.783   8.903 -0.3081 -0.6221 -1.2598
 2533TIP3    H231795   5.878   1.640   8.890 -0.9791 -0.8426  2.6202
 2534TIP3   OH231796   1.149   5.064   1.450 -0.2115 -0.2446 -0.2125
 2534TIP3    H131797   1.157   5.148   1.495  2.9564 -0.0926 -0.8084
 2534TIP3    H231798   1.187   5.001   1.511 -0.2852 -0.8352 -0.7721
 2535TIP3   OH231799   7.175   2.703   7.311 -0.6747 -0.5526 -0.4689
 2535TIP3    H131800   7.121   2.639   7.358 -1.6937  0.6005 -0.0275
 2535TIP3    H231801   7.213   2.757   7.380  1.9853 -1.9958 -0.6855
 2536TIP3   OH231802   6.686   0.428   7.670 -0.2213 -0.2313  0.7723
 2536TIP3    H131803   6.737   0.470   7.601 -0.6705  1.7607  1.5754
 2536TIP3    H231804   6.613   0.488   7.685 -1.3775 -1.7525  1.4120
 2537TIP3   OH231805   6.657   6.179   7.365 -0.1813  0.3250 -0.1602
 2537TIP3    H131806   6.597   6.179   7.291 -0.6018  0.2308  0.1744
 2537TIP3    H231807   6.601   6.160   7.441  0.2587  0.3087  0.1638
 2538TIP3   OH231808   3.902   2.189   3.044  0.4599  0.4477 -0.1604
 2538TIP3    H131809   3.902   2.281   3.069 -1.8112  0.7298 -0.8864
 2538TIP3    H231810   3.961   2.146   3.105  0.2785  2.1309  1.2549
 2539TIP3   OH231811   4.747   1.524   7.540  0.1031  0.6159  0.1739
 2539TIP3    H131812   4.781   1.505   7.453 -1.5455  1.2068 -0.6353
 2539TIP3    H231813   4.800   1.471   7.599  0.2504 -0.9696 -1.3215
 2540TIP3   OH231814   6.876   7.085   2.153 -0.0603  0.3493 -1.0687
 2540TIP3    H131815   6.843   7.051   2.069  0.1254 -0.7264 -0.7319
 2540TIP3    H231816   6.827   7.036   2.219  1.2523 -0.3356 -0.5652
 2541TIP3   OH231817   7.419   2.038   9.416 -0.3619  0.1896 -0.3011
 2541TIP3    H131818   7.479   2.080   9.478 -1.7009  0.9242  0.5670
 2541TIP3    H231819   7.428   2.088   9.335 -0.1994  0.6357 -0.0113
 2542TIP3   OH231820   3.977   3.213   3.187  0.0936  0.0834 -0.1778
 2542TIP3    H131821   3.982   3.155   3.263 -0.6191 -1.3962 -1.2138
 2542TIP3    H231822   3.907   3.275   3.209  1.1558  0.8677  1.1191
 2543TIP3   OH231823   1.662   0.400   0.400 -0.4506 -0.2511 -0.1854
 2543TIP3    H131824   1.706   0.347   0.466  0.3293  1.4358  0.7104
 2543TIP3    H231825   1.590   0.443   0.447 -0.8493 -0.2314 -0.8051
 2544TIP3   OH231826   4.764   7.412   7.057 -0.1103 -0.0494 -0.6203
 2544TIP3    H131827   4.819   7.343   7.020 -0.6229 -2.0070  1.9469
 2544TIP3    H231828   4.674   7.381   7.044 -0.4037  0.6784 -0.3957
 2545TIP3   OH231829   6.257   1.928   8.098  0.4553  0.2583  0.2562
 2545TIP3    H131830   6.161   1.936   8.101  0.3356 -1.1961  1.8361
 2545TIP3    H231831   6.273   1.835   8.082  1.6296  0.6484 -0.9814
 2546TIP3   OH231832   1.029   1.486   0.469  0.6872  0.0750 -0.1888
 2546TIP3    H131833   1.022   1.414   0.406 -0.4724  0.5591 -0.6471
 2546TIP3    H231834   0.962   1.467   0.535  1.1210  0.1735  0.2887
 2547TIP3   OH231835   6.254   2.075   8.776 -0.0503  0.0089  0.2917
 2547TIP3    H131836   6.258   2.155   8.827  0.1350  2.2316 -2.9409
 2547TIP3    H231837   6.169   2.037   8.799  0.0617  0.7923  2.2406
 2548TIP3   OH231838   1.595   3.405   9.232  0.3451 -0.2025 -0.2614
 2548TIP3    H131839   1.526   3.449   9.282  1.6393 -0.7663  2.2375
 2548TIP3    H231840   1.639   3.475   9.185  0.8156  0.8888  1.6828
 2549TIP3   OH231841   2.700   3.726   8.590 -0.2229 -0.3113 -0.1620
 2549TIP3    H131842   2.607   3.706   8.601 -0.3630  0.3563 -0.0702
 2549TIP3    H231843   2.722   3.691   8.504 -0.7319  0.1138 -0.4690
 2550TIP3   OH231844   0.869   2.325   7.056  0.5859 -0.3133 -1.2146
 2550TIP3    H131845   0.906   2.238   7.066 -0.8168 -0.9746 -1.4818
 2550TIP3    H231846   0.813   2.336   7.132  0.8918  0.4387 -1.0906
 2551TIP3   OH231847   2.955   6.080   0.390 -0.1889 -0.1805  0.2174
 2551TIP3    H131848   2.993   6.002   0.347 -0.2885  1.2343 -2.6913
 2551TIP3    H231849   2.861   6.061   0.394 -0.2901 -0.0189 -1.0099
 2552TIP3   OH231850   5.230   4.759   9.808  0.4130 -0.3785  0.4970
 2552TIP3    H131851   5.318   4.791   9.788  0.1910  0.0536  0.1948
 2552TIP3    H231852   5.240   4.664   9.818  1.1312 -0.1971  1.6867
 2553TIP3   OH231853   6.615   1.665   0.139 -0.2885 -0.1386 -0.2851
 2553TIP3    H131854   6.530   1.636   0.174  0.4551 -1.1203  0.7985
 2553TIP3    H231855   6.677   1.601   0.173  0.7556 -0.0894 -1.9866
 2554TIP3   OH231856   7.078   4.356   7.146 -0.5671  0.3044 -0.3798
 2554TIP3    H131857   7.110   4.404   7.070 -2.2539 -0.1406 -1.4251
 2554TIP3    H231858   7.011   4.297   7.110 -1.4168  0.1002  1.4563
 2555TIP3   OH231859   1.303   1.123   7.479  0.4693  0.1818  0.3329
 2555TIP3    H131860   1.262   1.205   7.506  0.5465  0.4294 -0.2875
 2555TIP3    H231861   1.392   1.146   7.455  0.0310  0.2393 -1.4251
 2556TIP3   OH231862   5.156   5.522   9.110 -0.2038  0.0597 -0.1818
 2556TIP3    H131863   5.199   5.553   9.030  0.8614 -0.4006  0.1943
 2556TIP3    H231864   5.214   5.453   9.143 -0.9165 -0.1369  0.6914
 2557TIP3   OH231865   6.550   1.227   0.465  0.4544  0.1364  0.3704
 2557TIP3    H131866   6.627   1.209   0.412 -1.3416  0.3604 -2.5451
 2557TIP3    H231867   6.579   1.294   0.527  2.5515  0.3289 -0.7192
 2558TIP3   OH231868   2.640   1.963   0.674  0.1812 -0.0795 -0.5593
 2558TIP3    H131869   2.582   1.905   0.723  0.0658 -1.1819 -1.9292
 2558TIP3    H231870   2.581   2.022   0.627  0.2992  2.1135  1.7804
 2559TIP3   OH231871   0.864   6.118   8.610 -0.3645  0.1139  0.2306
 2559TIP3    H131872   0.942   6.066   8.627 -0.9944 -0.5227  1.3220
 2559TIP3    H231873   0.861   6.128   8.515  0.4981 -0.6959  0.1066
 2560TIP3   OH231874   2.588   5.512   3.098  0.2503 -0.1939  0.6132
 2560TIP3    H131875   2.494   5.528   3.106  0.2661 -0.2819  0.9557
 2560TIP3    H231876   2.617   5.576   3.033 -0.4758 -1.7968 -1.3841
 2561TIP3   OH231877   5.457   3.185   7.102 -0.2595 -0.4571  0.9789
 2561TIP3    H131878   5.508   3.120   7.055  0.2745  0.3412  0.4202
 2561TIP3    H231879   5.522   3.249   7.133 -1.0167  1.9524 -1.8897
 2562TIP3   OH231880   6.819   3.997   7.625 -0.2960  0.4655 -0.2571
 2562TIP3    H131881   6.857   3.967   7.707 -0.1049  1.1953 -0.0779
 2562TIP3    H231882   6.812   3.917   7.572 -2.6360 -0.4837  1.2994
 2563TIP3   OH231883   1.297   1.358   0.538 -0.0027  0.7105 -0.5630
 2563TIP3    H131884   1.343   1.439   0.514 -1.7534  1.2593 -2.3774
 2563TIP3    H231885   1.209   1.370   0.502 -1.1852 -0.8271  1.6330
 2564TIP3   OH231886   5.236   6.406   8.359 -0.0547 -0.0213 -0.1813
 2564TIP3    H131887   5.257   6.395   8.452  1.3643  0.4411 -0.4130
 2564TIP3    H231888   5.285   6.336   8.315 -0.0231  0.2849 -0.6451
 2565TIP3   OH231889   3.884   4.099   8.105  0.4243 -0.4493  0.1237
 2565TIP3    H131890   3.911   4.044   8.031  0.5828 -1.8742  1.2096
 2565TIP3    H231891   3.964   4.113   8.155  0.5666  1.5302 -0.5719
 2566TIP3   OH231892   1.694   5.625   9.834  0.3639 -0.2380  0.2586
 2566TIP3    H131893   1.636   5.700   9.821  0.9395  0.9943  3.8354
 2566TIP3    H231894   1.751   5.625   9.757 -1.4808  1.1961 -1.2015
 2567TIP3   OH231895   2.170   0.360   9.093  0.2240  0.0297  0.3634
 2567TIP3    H131896   2.151   0.442   9.139  0.9446  0.0489  0.6523
 2567TIP3    H231897   2.111   0.296   9.133 -0.0440  0.3181  0.4323
 2568TIP3   OH231898   0.127   3.208   0.235 -0.0789  0.2309  0.3775
 2568TIP3    H131899   0.125   3.239   0.325  0.0682  0.8409  0.1782
 2568TIP3    H231900   0.148   3.114   0.242 -2.9693 -0.4440  1.1227
 2569TIP3   OH231901   1.772   4.917   1.785 -0.2973 -1.2695  0.4511
 2569TIP3    H131902   1.841   4.891   1.724  0.4198  0.1218  0.6287
 2569TIP3    H231903   1.737   4.998   1.749 -2.1744 -2.1570  0.1408
 2570TIP3   OH231904   2.303   5.140   9.966 -1.0163  0.0965  0.7663
 2570TIP3    H131905   2.265   5.117  10.051  0.0087 -3.3183  0.4669
 2570TIP3    H231906   2.387   5.182   9.987 -1.0667 -0.1438  1.4577
 2571TIP3   OH231907   2.443   4.837   9.705 -0.0397  0.1750  0.1151
 2571TIP3    H131908   2.352   4.816   9.683 -0.4397  1.9868 -0.1344
 2571TIP3    H231909   2.437   4.883   9.789  0.5763  0.7853 -0.1603
 2572TIP3   OH231910   1.780   5.387   1.809  1.0122  0.2270 -0.0620
 2572TIP3    H131911   1.835   5.377   1.732 -0.2411  0.0777 -0.9733
 2572TIP3    H231912   1.716   5.453   1.784 -0.2745 -0.8252  0.3194
 2573TIP3   OH231913   5.727   2.131   1.101 -0.7094 -0.3200 -0.6654
 2573TIP3    H131914   5.727   2.224   1.123 -2.6874 -0.2206 -0.8888
 2573TIP3    H231915   5.721   2.086   1.185  0.8291 -0.2979 -0.5183
 2574TIP3   OH231916   4.615   4.739   7.740 -0.1254 -0.0425  0.0380
 2574TIP3    H131917   4.699   4.735   7.784 -1.1423 -2.2305  1.9857
 2574TIP3    H231918   4.635   4.772   7.652  2.4064  1.5576  1.0998
 2575TIP3   OH231919   6.126   7.375   8.165  0.3535  0.6392  0.2608
 2575TIP3    H131920   6.041   7.350   8.203  0.7175 -2.7460 -0.7693
 2575TIP3    H231921   6.135   7.468   8.185 -3.2536  0.9713  1.0354
 2576TIP3   OH231922   4.024   3.114   2.925  0.5437 -0.0703  0.1525
 2576TIP3    H131923   3.968   3.040   2.945  3.3703 -2.0487  1.3873
 2576TIP3    H231924   4.027   3.165   3.005  2.0575 -1.1461  0.8353
 2577TIP3   OH231925   6.716   0.851   9.510 -0.8796 -0.3224 -0.2379
 2577TIP3    H131926   6.637   0.798   9.521 -0.1667 -1.4443 -0.3852
 2577TIP3    H231927   6.776   0.820   9.578  0.0825 -0.7493 -1.2455
 2578TIP3   OH231928   4.254   7.534   8.714  0.3283  0.0720 -0.3783
 2578TIP3    H131929   4.318   7.602   8.735  2.0078 -0.5502 -3.0472
 2578TIP3    H231930   4.232   7.550   8.622 -0.6050 -1.9143 -0.5416
 2579TIP3   OH231931   2.357   3.834   7.252 -0.2561  0.4322  0.4787
 2579TIP3    H131932   2.437   3.825   7.303 -0.4932 -2.1623  0.5114
 2579TIP3    H231933   2.307   3.755   7.271 -2.8360  1.9018  0.3994
 2580TIP3   OH231934   3.683   4.531   7.674  0.3476 -0.7014 -0.2383
 2580TIP3    H131935   3.663   4.456   7.618 -0.2106 -1.0595  0.4357
 2580TIP3    H231936   3.664   4.501   7.763  2.0097 -0.4117  0.2490
 2581TIP3   OH231937   2.978   1.446   7.912  0.6419  0.0313 -0.5937
 2581TIP3    H131938   3.004   1.356   7.889  0.5041 -0.4184  0.9314
 2581TIP3    H231939   3.000   1.497   7.834 -1.2169 -1.6573 -2.3498
 2582TIP3   OH231940   3.575   3.012   0.172  0.0501  0.3714  0.1513
 2582TIP3    H131941   3.569   2.935   0.117 -1.4122  1.2913 -1.0458
 2582TIP3    H231942   3.625   3.075   0.121  0.7409  0.4366  0.8812
 2583TIP3   OH231943   1.928   5.565   0.041 -0.2702 -0.3998  0.3961
 2583TIP3    H131944   1.920   5.660   0.046  1.6340 -0.2401  0.8778
 2583TIP3    H231945   1.930   5.546  -0.053 -0.7276  0.0066  0.2963
 2584TIP3   OH231946   0.880   6.648   8.804  0.2735  0.4780  0.2394
 2584TIP3    H131947   0.903   6.645   8.897 -0.1051 -1.1443  0.3066
 2584TIP3    H231948   0.796   6.692   8.801  0.3996  0.7515  0.6401
 2585TIP3   OH231949   5.458   7.594   7.554 -0.4393  0.2073 -0.3309
 2585TIP3    H131950   5.461   7.580   7.648  1.5666 -1.1261 -0.5141
 2585TIP3    H231951   5.365   7.595   7.532 -0.9832 -2.9661  1.2312
 2586TIP3   OH231952   5.598   7.282   7.098 -0.5855 -0.4110 -0.1174
 2586TIP3    H131953   5.626   7.191   7.101  1.1397  0.0667 -0.4778
 2586TIP3    H231954   5.676   7.330   7.069 -1.8625  1.0051 -1.4108
 2587TIP3   OH231955   3.021   5.915   8.069 -0.3110  0.2975 -0.0452
 2587TIP3    H131956   3.019   5.999   8.022  0.2745  0.5124  0.2973
 2587TIP3    H231957   3.075   5.858   8.013  0.4081  0.5613  0.3698
 2588TIP3   OH231958   2.153   4.001   3.432  0.0485 -0.2500  0.3216
 2588TIP3    H131959   2.167   3.912   3.465 -1.4628 -0.2753  0.9848
 2588TIP3    H231960   2.196   4.057   3.496  0.3849 -0.4710  0.2918
 2589TIP3   OH231961   3.144   6.320   8.307 -0.8478  0.4118 -0.2239
 2589TIP3    H131962   3.102   6.374   8.240 -1.8552 -0.5203 -0.3823
 2589TIP3    H231963   3.102   6.234   8.298  1.1491 -0.6128 -0.4251
 2590TIP3   OH231964   3.865   0.728   7.239 -0.1560 -0.8180  0.3676
 2590TIP3    H131965   3.872   0.636   7.267  1.7754 -0.2017  2.1815
 2590TIP3    H231966   3.892   0.778   7.316 -0.7137  1.2768 -0.7358
 2591TIP3   OH231967   4.570   0.215   8.593 -0.1495 -0.7139  0.2671
 2591TIP3    H131968   4.589   0.187   8.503 -1.3630 -3.9224  0.9052
 2591TIP3    H231969   4.657   0.232   8.631  0.4355 -0.2565 -1.1960
 2592TIP3   OH231970   3.073   3.777   0.034 -0.0958 -0.4579 -0.0581
 2592TIP3    H131971   2.987   3.739   0.018 -0.5240  0.5679 -0.2641
 2592TIP3    H231972   3.055   3.857   0.083  0.5992  0.6166 -1.5018
 2593TIP3   OH231973   3.279   2.953   0.347  0.0562 -0.2548 -0.2957
 2593TIP3    H131974   3.355   2.900   0.368  1.2380  0.6964 -1.8995
 2593TIP3    H231975   3.234   2.904   0.278  0.7342  0.4318 -1.2474
 2594TIP3   OH231976   5.797   7.004   0.765  0.1031  0.6417  0.4741
 2594TIP3    H131977   5.831   7.093   0.757  1.0739  0.2004 -0.6673
 2594TIP3    H231978   5.875   6.948   0.763 -0.4306 -0.2054  2.0128
 2595TIP3   OH231979   2.280   3.448   7.751 -0.0444  0.2718  0.7263
 2595TIP3    H131980   2.200   3.500   7.736 -0.3719 -0.3840  0.1324
 2595TIP3    H231981   2.257   3.389   7.823 -0.3913 -0.4814  0.0218
 2596TIP3   OH231982   1.419   4.379   1.201 -0.1618 -0.1463 -0.2554
 2596TIP3    H131983   1.429   4.284   1.192  0.3792 -0.0650 -0.5508
 2596TIP3    H231984   1.443   4.398   1.291  3.1306  0.1096 -1.0422
 2597TIP3   OH231985   2.009   7.539   1.079 -0.3040 -0.1443  0.5927
 2597TIP3    H131986   2.042   7.627   1.059 -0.8165  0.5333  2.5145
 2597TIP3    H231987   1.914   7.548   1.077 -0.3573 -0.7824  0.2700
 2598TIP3   OH231988   7.387   6.849   3.437 -0.1489  0.0577 -0.1748
 2598TIP3    H131989   7.390   6.939   3.470 -1.5159  0.2180 -0.4174
 2598TIP3    H231990   7.477   6.819   3.440 -0.0267  0.4379  2.6266
 2599TIP3   OH231991   4.476   4.385   7.879  0.5862  0.0198  0.0045
 2599TIP3    H131992   4.456   4.295   7.905  0.1465 -0.5801 -2.2108
 2599TIP3    H231993   4.571   4.387   7.871  1.1297  1.0940  4.3501
 2600TIP3   OH231994   2.419   5.420   9.380  0.1010 -0.1909  0.6644
 2600TIP3    H131995   2.347   5.419   9.443  2.4259 -0.5466  3.5878
 2600TIP3    H231996   2.460   5.506   9.392  0.7809 -0.3880 -0.1445
 2601TIP3   OH231997   4.779   3.038   9.663  0.2974 -0.9432  0.4629
 2601TIP3    H131998   4.746   2.964   9.714 -0.8846 -1.4522 -0.9543
 2601TIP3    H231999   4.771   3.010   9.572  0.1531  0.7876 -0.1023
 2602TIP3   OH232000   1.599   1.865   0.246  0.0321  0.2272  0.1049
 2602TIP3    H132001   1.529   1.799   0.249 -1.1502  1.4127 -0.5857
 2602TIP3    H232002   1.556   1.947   0.270  1.2942  0.9004  0.1348
 2603TIP3   OH232003   0.273   6.268   0.346 -0.0360 -0.1639 -0.0943
 2603TIP3    H132004   0.223   6.186   0.349 -0.5609  0.1759  0.8609
 2603TIP3    H232005   0.322   6.268   0.429 -1.1401  1.1570  0.5910
 2604TIP3   OH232006   4.757   1.394   9.088 -0.4123 -0.6463 -0.1363
 2604TIP3    H132007   4.852   1.404   9.084 -0.4606  0.9351  1.5608
 2604TIP3    H232008   4.729   1.404   8.997  0.8710  1.2230 -0.3910
 2605TIP3   OH232009   3.544   2.517   0.893 -0.2599  0.1479 -0.2787
 2605TIP3    H132010   3.457   2.495   0.928 -0.3618  0.4897 -0.3130
 2605TIP3    H232011   3.594   2.436   0.901 -0.6933 -0.1613 -0.6065
 2606TIP3   OH232012   2.118   3.282   8.543  0.2326 -0.1871  0.2444
 2606TIP3    H132013   2.125   3.197   8.586  0.8565 -0.6745 -0.7862
 2606TIP3    H232014   2.160   3.270   8.458 -0.5053  0.8975 -0.3003
 2607TIP3   OH232015   0.476   0.028   8.292  0.1458 -0.7212  0.0438
 2607TIP3    H132016   0.387   0.053   8.318  0.0008 -1.2389  0.0524
 2607TIP3    H232017   0.521   0.012   8.374  0.0032 -1.2809  0.0156
 2608TIP3   OH232018   2.966   2.905   7.747  0.0926 -0.3861  0.4402
 2608TIP3    H132019   2.941   2.950   7.667  3.1471  0.1780 -0.3482
 2608TIP3    H232020   2.969   2.813   7.723  0.3547 -0.2839  0.0737
 2609TIP3   OH232021   2.772   1.987   2.998 -0.2646  0.4906 -0.5690
 2609TIP3    H132022   2.860   2.023   2.991 -0.3194  0.4196 -1.8887
 2609TIP3    H232023   2.777   1.926   3.072  0.3674  1.6157  0.3512
 2610TIP3   OH232024   2.101   6.844   8.745  0.2528 -0.1386  0.0978
 2610TIP3    H132025   2.110   6.892   8.662 -2.2752  0.0392 -0.1513
 2610TIP3    H232026   2.013   6.866   8.776  0.7522 -1.0410  2.3177
 2611TIP3   OH232027   4.583   3.465   9.874 -0.3661  0.0430  0.7088
 2611TIP3    H132028   4.575   3.561   9.875 -0.2570  0.0677 -0.0318
 2611TIP3    H232029   4.673   3.450   9.845 -0.6147 -0.2883  0.1031
 2612TIP3   OH232030   5.959   0.666   9.188 -0.3358  0.2585 -0.0596
 2612TIP3    H132031   5.929   0.754   9.165 -0.5633  0.6042  1.4387
 2612TIP3    H232032   5.962   0.667   9.283  0.0961 -1.2273 -0.0449
 2613TIP3   OH232033   0.327   4.565   7.288  0.4117  0.0882 -0.0896
 2613TIP3    H132034   0.394   4.577   7.221 -0.4931 -1.1854 -1.2513
 2613TIP3    H232035   0.244   4.574   7.242 -0.2439 -2.2810  0.5061
 2614TIP3   OH232036   3.715   1.956   0.676 -0.8848 -0.4422  0.6638
 2614TIP3    H132037   3.772   1.879   0.670 -0.4464 -0.0741 -0.0114
 2614TIP3    H232038   3.755   2.020   0.618 -1.2317  0.3155  1.2406
 2615TIP3   OH232039   1.855   2.523   9.757 -0.0274  0.0476  0.0825
 2615TIP3    H132040   1.809   2.580   9.695  1.1544 -0.4562 -1.2851
 2615TIP3    H232041   1.933   2.573   9.782 -0.3776  0.1543  1.0329
 2616TIP3   OH232042   6.466   6.446   9.481  0.2795  0.0162 -0.2734
 2616TIP3    H132043   6.520   6.405   9.549 -0.9865 -0.8337  0.2489
 2616TIP3    H232044   6.414   6.374   9.445  0.1113  0.6621 -1.3810
 2617TIP3   OH232045   0.380   0.555   0.875  0.1912  0.0915  0.1417
 2617TIP3    H132046   0.391   0.633   0.929  1.2380  0.2978 -0.3421
 2617TIP3    H232047   0.287   0.535   0.881  0.6576 -1.9899  4.8886
 2618TIP3   OH232048   2.803   6.617   0.050  0.0172 -0.1098 -0.2803
 2618TIP3    H132049   2.892   6.589   0.069  0.2390 -0.3785 -1.6482
 2618TIP3    H232050   2.794   6.609  -0.045 -1.9185 -1.4995 -0.0576
 2619TIP3   OH232051   6.010   0.708   0.168 -0.3228 -0.2896  0.0712
 2619TIP3    H132052   5.931   0.758   0.187 -1.3257 -1.5223 -0.6535
 2619TIP3    H232053   6.077   0.774   0.151 -1.1409  0.7860  0.8479
 2620TIP3   OH232054   5.096   1.523   0.339 -0.0339  0.3000 -0.2587
 2620TIP3    H132055   5.016   1.552   0.382  0.0209  1.9670 -1.1983
 2620TIP3    H232056   5.135   1.604   0.305  2.0518 -0.4629  0.1803
 2621TIP3   OH232057   1.902   4.896   9.934 -0.2978  0.1149 -0.0827
 2621TIP3    H132058   1.903   4.960  10.004  0.0472 -0.0254  0.0430
 2621TIP3    H232059   1.829   4.922   9.878 -1.2401 -0.3623  0.8819
 2622TIP3   OH232060   0.692   2.244   0.322  0.7009  1.0479 -0.5813
 2622TIP3    H132061   0.758   2.311   0.303  2.8473 -0.4682  1.0364
 2622TIP3    H232062   0.700   2.228   0.416  0.5182 -1.7022 -0.9509
 2623TIP3   OH232063   2.342   1.198   7.439  0.9129  0.6887 -0.1075
 2623TIP3    H132064   2.351   1.293   7.449 -0.0230  0.5782  2.6207
 2623TIP3    H232065   2.401   1.161   7.504  0.5190 -0.5941 -0.4503
 2624TIP3   OH232066   2.404   3.786   0.358  0.3182  0.3009  0.4812
 2624TIP3    H132067   2.422   3.845   0.432 -1.0605 -0.3452  1.3795
 2624TIP3    H232068   2.489   3.773   0.317  1.2575  0.2304  2.3306
 2625TIP3   OH232069   1.526   3.230   6.646  0.2611 -0.3084 -0.5123
 2625TIP3    H132070   1.500   3.194   6.731 -2.5119  1.0150 -0.6909
 2625TIP3    H232071   1.593   3.296   6.667 -0.4130  0.0238  0.6586
 2626TIP3   OH232072   2.768   2.711   7.562  0.2073  0.3333 -0.3443
 2626TIP3    H132073   2.826   2.705   7.486 -1.7128 -2.4457 -1.7684
 2626TIP3    H232074   2.813   2.660   7.630  0.6658  0.4936 -0.5217
 2627TIP3   OH232075   6.944   6.458   9.069 -0.0081  0.2340 -0.0078
 2627TIP3    H132076   6.975   6.418   9.150 -1.3839  0.2615  0.5619
 2627TIP3    H232077   6.986   6.544   9.067  0.7244 -0.1147  0.2230
 2628TIP3   OH232078   2.435   0.554   1.841  0.0813 -0.2644  0.1099
 2628TIP3    H132079   2.456   0.619   1.774 -1.3242 -0.5334 -0.6094
 2628TIP3    H232080   2.420   0.606   1.920  0.0813  0.1954 -0.1841
 2629TIP3   OH232081   1.644   1.952   8.577  0.0355  0.2114  0.1658
 2629TIP3    H132082   1.707   2.017   8.608  0.2043 -0.8912  2.3320
 2629TIP3    H232083   1.643   1.885   8.646 -0.7285 -1.6802 -1.5774
 2630TIP3   OH232084   7.151   0.992   2.013 -0.1862  0.1690  0.0247
 2630TIP3    H132085   7.088   0.988   1.941  0.9587  2.3742 -1.2126
 2630TIP3    H232086   7.127   1.072   2.061  1.1009  0.5601  0.0460
 2631TIP3   OH232087   3.343   4.670   0.140  0.2487 -0.1688 -0.2725
 2631TIP3    H132088   3.331   4.693   0.048  2.0701 -1.6869 -0.9435
 2631TIP3    H232089   3.422   4.717   0.167 -1.1233  1.5107  1.0212
 2632TIP3   OH232090   3.060   6.870   0.285  0.1808  0.1799 -0.5114
 2632TIP3    H132091   3.043   6.873   0.191 -2.0426  1.0912 -0.1365
 2632TIP3    H232092   3.083   6.960   0.308  1.3884 -0.1707 -0.2564
 2633TIP3   OH232093   2.145   6.338   8.492 -0.2149 -0.2837  0.3889
 2633TIP3    H132094   2.137   6.426   8.456  1.1468 -0.6616 -0.9396
 2633TIP3    H232095   2.055   6.308   8.503 -0.6822  0.8641 -0.1763
 2634TIP3   OH232096   1.400   3.418   8.549  0.1041 -0.3043 -0.3204
 2634TIP3    H132097   1.385   3.454   8.637 -0.6397  1.2822 -1.0637
 2634TIP3    H232098   1.495   3.423   8.537  0.3637 -1.6986  0.8333
 2635TIP3   OH232099   0.303   2.727   9.771  0.2981 -0.1195  0.3786
 2635TIP3    H132100   0.375   2.770   9.817  0.1646  1.0190 -0.4542
 2635TIP3    H232101   0.299   2.770   9.686 -0.7078 -0.8818  0.0194
 2636TIP3   OH232102   6.008   0.258   7.674 -0.2208 -0.4929 -0.3847
 2636TIP3    H132103   6.030   0.167   7.652 -0.2724 -0.5043 -0.3889
 2636TIP3    H232104   5.921   0.271   7.637  0.7447  0.3095 -2.5316
 2637TIP3   OH232105   5.935   3.618   9.444  0.2768  0.0932  0.1625
 2637TIP3    H132106   6.024   3.596   9.415  0.4102 -1.4606  1.6050
 2637TIP3    H232107   5.924   3.710   9.420  1.8361 -0.0017 -1.0948
 2638TIP3   OH232108   3.778   4.336   8.881 -0.7935  0.1950 -0.3759
 2638TIP3    H132109   3.846   4.382   8.930  0.0660  0.9881 -2.1947
 2638TIP3    H232110   3.765   4.254   8.928  1.5876 -0.0766 -0.0642
 2639TIP3   OH232111   7.557   5.827   1.915 -0.4030  0.3462  0.1851
 2639TIP3    H132112   7.489   5.805   1.851 -1.0385  1.0276  0.5966
 2639TIP3    H232113   7.540   5.768   1.989  0.0407 -0.1221 -0.0828
 2640TIP3   OH232114   5.684   1.853   9.100 -0.1709  0.2966  0.5355
 2640TIP3    H132115   5.710   1.854   9.008  1.9887 -0.1340  1.0659
 2640TIP3    H232116   5.589   1.862   9.099 -0.1672  0.6686 -1.7071
 2641TIP3   OH232117   6.246   1.644   8.945 -0.2953 -0.0838 -0.2793
 2641TIP3    H132118   6.173   1.582   8.955 -0.3849 -0.4974 -2.8929
 2641TIP3    H232119   6.233   1.683   8.859  1.1186  1.8391  0.3020
 2642TIP3   OH232120   4.384   0.369   2.503 -0.5261  0.2686  0.3663
 2642TIP3    H132121   4.293   0.387   2.527 -1.0350 -0.6453 -0.7761
 2642TIP3    H232122   4.387   0.274   2.491  0.6581  0.2504  0.6643
 2643TIP3   OH232123   4.781   1.558   0.379 -0.0885  0.1721 -0.0358
 2643TIP3    H132124   4.709   1.591   0.433 -0.3440 -0.1322 -0.1874
 2643TIP3    H232125   4.769   1.463   0.380 -1.2915  0.2400 -2.2546
 2644TIP3   OH232126   6.628   3.113   0.406  0.1963  0.1894  0.3040
 2644TIP3    H132127   6.635   3.023   0.373 -0.8560  0.2215 -0.0319
 2644TIP3    H232128   6.718   3.137   0.429  0.8855 -0.0531 -1.9131
 2645TIP3   OH232129   2.567   7.385   8.606 -0.0261 -0.0374  0.4432
 2645TIP3    H132130   2.653   7.344   8.617  0.1559  0.2288  0.0279
 2645TIP3    H232131   2.573   7.431   8.522 -0.0187  1.3261  1.1622
 2646TIP3   OH232132   6.586   2.695   9.960 -0.5755  0.5146  0.1721
 2646TIP3    H132133   6.581   2.708   9.865 -0.3086 -0.6814 -0.0311
 2646TIP3    H232134   6.643   2.619   9.970 -2.2923 -0.7081  1.1736
 2647TIP3   OH232135   3.903   4.919   9.729  0.0350 -0.2671  0.3604
 2647TIP3    H132136   3.855   4.935   9.811 -0.4501  0.3173 -0.0342
 2647TIP3    H232137   3.951   4.837   9.746  0.0322 -0.0976  1.2658
 2648TIP3   OH232138   1.077   4.884   7.830 -0.4591  0.9222 -0.8025
 2648TIP3    H132139   1.066   4.915   7.740  1.4519 -0.4496 -1.5719
 2648TIP3    H232140   1.061   4.790   7.825  0.9214  0.6131  0.0095
 2649TIP3   OH232141   2.723   2.057   8.864  0.4038  0.3615  0.0126
 2649TIP3    H132142   2.728   2.140   8.911  2.5421 -0.7320  1.9003
 2649TIP3    H232143   2.742   2.080   8.773  0.3938  1.9883  0.3869
 2650TIP3   OH232144   2.483   4.581   9.139 -0.4457 -0.0120  0.3214
 2650TIP3    H132145   2.562   4.536   9.108 -1.4671 -1.3019 -0.4844
 2650TIP3    H232146   2.432   4.599   9.060 -2.1369 -1.5013  1.0087
 2651TIP3   OH232147   6.186   6.391   1.965  0.3124 -0.4020 -0.0619
 2651TIP3    H132148   6.193   6.380   2.060 -0.6340 -2.9681 -0.2090
 2651TIP3    H232149   6.188   6.485   1.951  2.1604 -0.0056  2.3370
 2652TIP3   OH232150   5.047   7.026   8.493  0.0350  0.3884 -0.5184
 2652TIP3    H132151   5.046   6.973   8.413  0.5383  0.2320 -0.4252
 2652TIP3    H232152   4.973   7.086   8.483  0.9303  1.3531 -1.7931
 2653TIP3   OH232153   4.560   6.069   1.296 -0.1556  0.4422  0.4205
 2653TIP3    H132154   4.515   6.152   1.280 -0.1797  0.3312 -0.1128
 2653TIP3    H232155   4.578   6.035   1.209  2.1383  1.0988  0.5670
 2654TIP3   OH232156   3.064   5.076   0.281 -0.2512  0.1134  0.2192
 2654TIP3    H132157   3.023   5.055   0.196  0.3520  0.2717 -0.1143
 2654TIP3    H232158   3.157   5.081   0.262 -0.2361  1.5675  0.6151
 2655TIP3   OH232159   3.625   5.777   0.209  0.0457 -0.3101  0.2729
 2655TIP3    H132160   3.611   5.684   0.226 -2.3120 -0.0976 -0.1500
 2655TIP3    H232161   3.647   5.781   0.116 -0.0996 -0.4314  0.2330
 2656TIP3   OH232162   1.365   0.253   0.165 -0.1664 -0.2326  0.4270
 2656TIP3    H132163   1.350   0.209   0.082  1.1974  2.7230 -1.5296
 2656TIP3    H232164   1.278   0.281   0.193 -0.3756  1.4627 -1.7019
 2657TIP3   OH232165   1.150   2.443   9.736 -0.0204 -0.0444 -0.1109
 2657TIP3    H132166   1.116   2.529   9.709 -0.8254 -0.8375 -1.7050
 2657TIP3    H232167   1.232   2.463   9.781 -0.3502  1.5803 -0.1695
 2658TIP3   OH232168   6.316   0.119   8.899  0.4673  0.4710  0.1347
 2658TIP3    H132169   6.270   0.038   8.874 -0.5274  0.3084  2.2722
 2658TIP3    H232170   6.250   0.170   8.946  1.9208  1.1570  1.4924
 2659TIP3   OH232171   7.491   4.784   9.767  0.2226 -0.0608 -0.9476
 2659TIP3    H132172   7.448   4.824   9.691  3.0214 -0.6567 -3.0211
 2659TIP3    H232173   7.545   4.854   9.804 -1.2120  0.2560  0.6460
 2660TIP3   OH232174   5.081   0.969   0.589 -0.3656  0.3676  0.4012
 2660TIP3    H132175   5.134   0.944   0.514  1.4109  1.9979  1.0436
 2660TIP3    H232176   5.054   1.059   0.572 -1.7532  0.0630  0.7786
 2661TIP3   OH232177   4.154   1.182   1.047  0.4220  0.2510 -0.5293
 2661TIP3    H132178   4.179   1.225   0.965 -2.1358  0.1947 -1.4347
 2661TIP3    H232179   4.183   1.092   1.037  0.9386  0.4629 -0.9768
 2662TIP3   OH232180   0.019   3.126   9.796 -0.1816 -1.0996  0.2013
 2662TIP3    H132181  -0.041   3.175   9.739  2.0207  0.3225 -1.0047
 2662TIP3    H232182   0.016   3.174   9.879  3.0132  2.2617 -1.3573
 2663TIP3   OH232183   2.860   5.384   1.578  0.3075 -0.3143  0.6225
 2663TIP3    H132184   2.830   5.463   1.624  0.0938 -1.3009  2.2437
 2663TIP3    H232185   2.949   5.370   1.610  0.0344 -1.2002  1.0315
 2664TIP3   OH232186   6.558   1.435   7.845  0.2013 -0.2750  0.1512
 2664TIP3    H132187   6.637   1.384   7.866  0.4194 -0.0602 -0.1350
 2664TIP3    H232188   6.488   1.371   7.841  1.0599 -1.2444 -3.9926
 2665TIP3   OH232189   2.158   2.695   8.843 -0.1217  0.5090  0.4807
 2665TIP3    H132190   2.097   2.624   8.821  0.8344  0.0795 -0.9161
 2665TIP3    H232191   2.228   2.653   8.892 -0.1003  0.6803  0.5976
 2666TIP3   OH232192   1.818   0.598   2.625  0.3826 -0.1039 -0.1364
 2666TIP3    H132193   1.808   0.691   2.606  1.6849 -0.0667 -0.8137
 2666TIP3    H232194   1.868   0.596   2.706  1.0194 -0.1873 -0.5208
 2667TIP3   OH232195   5.976   3.026   0.245 -0.4988 -0.1581  0.0755
 2667TIP3    H132196   6.030   2.970   0.300 -3.2015 -2.3446  0.7395
 2667TIP3    H232197   6.039   3.071   0.188  2.0524 -1.5098  1.6116
 2668TIP3   OH232198   0.106   7.136   3.135  0.3642 -0.2556 -0.6563
 2668TIP3    H132199   0.069   7.076   3.200  1.3180 -0.7162 -0.5283
 2668TIP3    H232200   0.058   7.218   3.149  1.5985  0.1366  1.6906
 2669TIP3   OH232201   4.294   1.112   0.705  0.5961 -0.4302  0.2631
 2669TIP3    H132202   4.306   1.019   0.719 -1.1133 -0.7712 -0.2675
 2669TIP3    H232203   4.317   1.153   0.789 -1.6194 -1.6388  1.5455
 2670TIP3   OH232204   0.096   3.911   7.181 -0.3285  0.0269  0.1598
 2670TIP3    H132205   0.122   3.823   7.209  0.2095 -0.1067 -0.7368
 2670TIP3    H232206   0.093   3.962   7.262 -2.1474 -1.1636  0.9139
 2671TIP3   OH232207   2.646   7.454   2.152 -0.2467 -0.1683  0.7116
 2671TIP3    H132208   2.605   7.383   2.200 -1.6867  0.0455 -0.1487
 2671TIP3    H232209   2.578   7.521   2.145  0.5174  0.5629 -0.0293
 2672TIP3   OH232210   5.734   1.328   8.442 -0.4089 -0.0161  0.0920
 2672TIP3    H132211   5.737   1.332   8.538 -0.9268  1.8996  0.0650
 2672TIP3    H232212   5.826   1.317   8.416 -0.3609 -1.5097  0.8125
 2673TIP3   OH232213   2.581   6.711   2.701  0.4245  0.0112 -0.0251
 2673TIP3    H132214   2.497   6.668   2.715  1.2162 -2.1037 -1.2902
 2673TIP3    H232215   2.642   6.664   2.759  1.5034 -1.3526 -2.1458
 2674TIP3   OH232216   5.003   0.296   8.416 -0.2704  0.3175  0.0324
 2674TIP3    H132217   5.021   0.230   8.349  0.3948 -0.2399  0.7429
 2674TIP3    H232218   5.047   0.375   8.383 -1.5800  0.6047 -1.1119
 2675TIP3   OH232219   1.729   2.938   8.686  0.3036 -0.0021 -0.1006
 2675TIP3    H132220   1.670   2.957   8.758 -0.5757  3.4865 -1.5354
 2675TIP3    H232221   1.729   3.018   8.633  3.1559 -1.3278 -2.4016
 2676TIP3   OH232222   7.459   3.868   2.583 -0.1177  0.0665 -0.3662
 2676TIP3    H132223   7.442   3.920   2.505  1.7789 -0.9629 -1.5352
 2676TIP3    H232224   7.422   3.919   2.655 -0.0075  2.0938 -1.6842
 2677TIP3   OH232225   4.667   5.638   0.066 -0.0688  0.1049 -0.0449
 2677TIP3    H132226   4.665   5.710   0.129 -0.1898 -0.1683  0.2678
 2677TIP3    H232227   4.690   5.561   0.118  2.0475  0.2471 -0.7082
 2678TIP3   OH232228   0.794   6.558   0.762 -0.5057 -0.2263  0.3951
 2678TIP3    H132229   0.811   6.492   0.695  1.4160 -0.1755  0.7848
 2678TIP3    H232230   0.857   6.540   0.831 -0.6813  1.3451  1.0192
 2679TIP3   OH232231   5.209   6.723   2.231 -0.4906  0.4808 -0.2753
 2679TIP3    H132232   5.266   6.647   2.224 -2.5979 -1.1848 -0.4381
 2679TIP3    H232233   5.202   6.740   2.325  1.8313  2.0442 -0.3070
 2680TIP3   OH232234   6.657   3.824   7.239 -0.0812  0.0576 -0.3102
 2680TIP3    H132235   6.676   3.735   7.209 -0.0121 -0.1000  0.2046
 2680TIP3    H232236   6.570   3.819   7.277  0.1348  0.0981  0.1923
 2681TIP3   OH232237   6.896   4.700   9.638 -0.4896 -0.0991  0.0808
 2681TIP3    H132238   6.980   4.660   9.619 -0.7921 -0.4659 -0.5088
 2681TIP3    H232239   6.895   4.780   9.585  0.4487  1.1603  1.8591
 2682TIP3   OH232240   2.041   2.285   1.000  0.4680  0.1514 -0.0593
 2682TIP3    H132241   2.094   2.281   0.921  0.7586 -0.8015  0.1711
 2682TIP3    H232242   1.958   2.244   0.976  0.3905  0.2712  0.0034
 2683TIP3   OH232243   0.785   4.724   7.737 -0.0796 -0.0633  0.2715
 2683TIP3    H132244   0.709   4.689   7.691  0.6538  2.2662 -3.0133
 2683TIP3    H232245   0.751   4.800   7.785 -0.0883  0.0407  0.0994
 2684TIP3   OH232246   1.617   2.665   0.796 -0.2388  0.3190 -0.0955
 2684TIP3    H132247   1.566   2.739   0.828 -0.5071  0.5587 -1.0516
 2684TIP3    H232248   1.667   2.700   0.723  1.6418  0.2020  1.0709
 2685TIP3   OH232249   6.887   2.672   6.629  0.2789 -0.0657 -0.1582
 2685TIP3    H132250   6.960   2.699   6.574 -0.9406 -1.8311 -2.8999
 2685TIP3    H232251   6.915   2.588   6.666  0.3999  0.2324  0.4293
 2686TIP3   OH232252   5.958   6.778   8.253 -0.3986  0.0342  0.0585
 2686TIP3    H132253   5.891   6.824   8.303 -1.8013  0.9498 -2.4984
 2686TIP3    H232254   6.021   6.847   8.229  0.9616 -0.6273  1.5442
 2687TIP3   OH232255   7.238   7.082   9.111  0.3083 -0.0558  0.1729
 2687TIP3    H132256   7.210   7.159   9.063 -0.6434 -1.0126 -0.8847
 2687TIP3    H232257   7.167   7.064   9.172  0.3954 -0.2499  0.2178
 2688TIP3   OH232258   7.630   6.887   1.909 -0.5687  0.0762  0.0787
 2688TIP3    H132259   7.575   6.925   1.978 -2.4316 -1.4024 -0.4845
 2688TIP3    H232260   7.617   6.792   1.919 -1.2218 -0.1841 -2.5146
 2689TIP3   OH232261   1.238   5.773   1.510 -1.2388  0.2610  0.8624
 2689TIP3    H132262   1.240   5.808   1.599  1.5343  0.0020  1.0008
 2689TIP3    H232263   1.280   5.840   1.456  0.3132 -1.0106  0.4135
 2690TIP3   OH232264   7.454   5.041   9.366  0.0893  0.5235  0.3791
 2690TIP3    H132265   7.541   5.009   9.342  0.4555 -0.7814  3.0226
 2690TIP3    H232266   7.469   5.092   9.446 -1.3629  2.1016 -0.2783
 2691TIP3   OH232267   7.345   4.180   9.742 -0.0517  0.0154 -0.5832
 2691TIP3    H132268   7.429   4.225   9.734 -0.0641  0.5361  1.5362
 2691TIP3    H232269   7.304   4.191   9.656  0.0715  3.8982 -0.3396
 2692TIP3   OH232270   4.943   6.266   9.259  0.0509 -0.0505 -0.4098
 2692TIP3    H132271   4.979   6.322   9.327 -1.6970  0.6245  0.0205
 2692TIP3    H232272   4.848   6.276   9.267 -0.2238  0.1653 -3.0400
 2693TIP3   OH232273   0.212   1.921   9.317  0.2795  0.3182  0.8356
 2693TIP3    H132274   0.203   1.912   9.412  1.2201  0.8837  0.9842
 2693TIP3    H232275   0.185   1.836   9.282  1.0943 -0.3075  1.6875
 2694TIP3   OH232276   6.162   7.039   2.336 -0.0131  0.1362  0.1718
 2694TIP3    H132277   6.141   7.128   2.308  1.1522  0.2965 -0.2411
 2694TIP3    H232278   6.243   7.017   2.289 -0.2473 -1.1147  0.3161
 2695TIP3   OH232279   4.697   1.590   9.401  0.6060  0.2729  0.3126
 2695TIP3    H132280   4.654   1.662   9.448 -2.4182 -1.7795  0.9952
 2695TIP3    H232281   4.673   1.604   9.309 -1.2421 -0.5634  0.6219
 2696TIP3   OH232282   2.267   3.424   8.728 -0.1040  0.2313  0.2625
 2696TIP3    H132283   2.306   3.349   8.772  0.8535  1.0590  0.8818
 2696TIP3    H232284   2.193   3.388   8.680  0.0922 -1.0372  0.8661
 2697TIP3   OH232285   2.017   2.262   2.155  0.2477  0.2632  0.2167
 2697TIP3    H132286   1.986   2.265   2.065 -0.4385 -1.4585  0.3498
 2697TIP3    H232287   1.937   2.261   2.208  0.5892 -0.4477  0.7446
 2698TIP3   OH232288   0.212   6.863   2.975  0.5122  0.4239  0.6215
 2698TIP3    H132289   0.160   6.926   3.024  1.8613  2.4640 -0.4359
 2698TIP3    H232290   0.303   6.881   3.002  0.9641 -0.8324  0.0094
 2699TIP3   OH232291   3.334   1.692   9.622  0.5218 -0.4772  0.2173
 2699TIP3    H132292   3.311   1.731   9.538  2.8461  0.4992 -0.0584
 2699TIP3    H232293   3.255   1.700   9.675 -0.4754  0.4274 -1.3247
 2700TIP3   OH232294   7.121   4.895   0.915  0.4868  0.6126 -0.2281
 2700TIP3    H132295   7.111   4.874   0.822 -0.2465 -1.9759  0.3404
 2700TIP3    H232296   7.144   4.987   0.917  1.5013  0.5050 -3.0194
 2701TIP3   OH232297   2.390   3.661   1.730  0.0009 -0.3686 -0.1211
 2701TIP3    H132298   2.452   3.635   1.797  0.0826  0.3620  0.1011
 2701TIP3    H232299   2.433   3.734   1.684  0.8077 -2.1030 -2.2873
 2702TIP3   OH232300   0.190   5.307   7.924  0.1772  0.0128  0.3120
 2702TIP3    H132301   0.253   5.282   7.992  0.8871  0.8161 -0.0274
 2702TIP3    H232302   0.228   5.272   7.843  0.9557  1.7077 -0.1049
 2703TIP3   OH232303   1.662   2.867   7.701  0.4210  0.7870  0.0562
 2703TIP3    H132304   1.632   2.782   7.667  0.5498  0.1905  1.3675
 2703TIP3    H232305   1.699   2.911   7.625 -0.2150 -0.0806 -0.7818
 2704TIP3   OH232306   1.523   0.881   8.087 -0.0600  0.1222  0.0507
 2704TIP3    H132307   1.540   0.901   7.996 -0.9474  0.7102 -0.0019
 2704TIP3    H232308   1.444   0.826   8.085  1.0202 -1.5042  0.3462
 2705TIP3   OH232309   7.475   4.579   9.920 -0.7380 -0.1699  0.1259
 2705TIP3    H132310   7.559   4.533   9.919 -0.0796  0.9563  0.9679
 2705TIP3    H232311   7.469   4.620   9.834 -0.8239 -0.9184 -0.2331
 2706TIP3   OH232312   3.003   2.525   8.049 -0.3484 -0.4113  0.5626
 2706TIP3    H132313   2.934   2.459   8.048 -0.8148  0.0550  1.0243
 2706TIP3    H232314   3.059   2.499   8.122  0.0996 -0.9151  0.0496
 2707TIP3   OH232315   2.454   6.457   1.131  0.8362  0.4498  0.1615
 2707TIP3    H132316   2.534   6.430   1.085  0.0482  0.5337 -1.2996
 2707TIP3    H232317   2.482   6.531   1.185  1.7989  0.3286 -0.1508
 2708TIP3   OH232318   3.244   6.737   2.183  0.5811  0.1647 -0.7065
 2708TIP3    H132319   3.241   6.811   2.122 -0.6241 -1.1038 -2.2546
 2708TIP3    H232320   3.153   6.724   2.209  0.7064 -1.0939 -0.8645
 2709TIP3   OH232321   1.212   3.714   0.673 -0.1262 -0.5822  0.2348
 2709TIP3    H132322   1.214   3.620   0.659  0.2476 -0.6929  0.9601
 2709TIP3    H232323   1.271   3.750   0.607 -2.0811 -0.6135 -1.6146
 2710TIP3   OH232324   2.479   5.696   7.543 -0.5847 -0.6023  0.5313
 2710TIP3    H132325   2.454   5.636   7.614  2.0377  0.1192  2.1755
 2710TIP3    H232326   2.513   5.773   7.588 -1.9866  1.3471 -1.5642
 2711TIP3   OH232327   1.168   2.060   9.192  0.4884 -0.2969  0.4927
 2711TIP3    H132328   1.193   2.142   9.236 -0.5269 -0.3237  1.1466
 2711TIP3    H232329   1.142   2.088   9.104  0.2666  0.0759  0.6704
 2712TIP3   OH232330   5.996   1.043   8.052 -0.2165  0.4619  0.8414
 2712TIP3    H132331   6.066   1.056   8.117  0.0987  3.2913  0.0751
 2712TIP3    H232332   5.916   1.064   8.100 -0.0149  2.2173  0.4723
 2713TIP3   OH232333   7.284   2.247   9.123 -0.2835  0.4760  0.4500
 2713TIP3    H132334   7.228   2.227   9.198 -1.7497  1.3235 -0.3671
 2713TIP3    H232335   7.252   2.331   9.091  1.7177  1.1867  0.1432
 2714TIP3   OH232336   7.036   7.101   9.329 -0.4078 -0.3243 -0.2007
 2714TIP3    H132337   6.993   7.157   9.264 -0.0141  1.4478  0.9869
 2714TIP3    H232338   6.965   7.072   9.387 -0.2863  1.1783  0.7422
 2715TIP3   OH232339   7.210   4.009   7.640  0.1162  0.0745 -0.1956
 2715TIP3    H132340   7.152   4.064   7.588 -0.8179 -1.7942 -1.2037
 2715TIP3    H232341   7.205   4.046   7.729 -1.4592  0.8420 -0.5688
 2716TIP3   OH232342   3.559   5.732   9.687 -0.1528 -0.0007 -0.0176
 2716TIP3    H132343   3.532   5.641   9.671 -0.7565  0.1794 -0.0410
 2716TIP3    H232344   3.491   5.785   9.645  1.3651  0.4786 -2.0616
 2717TIP3   OH232345   7.535   2.260   0.957 -0.4758  0.0677 -0.2976
 2717TIP3    H132346   7.541   2.211   1.039  0.0109  0.5683 -0.0263
 2717TIP3    H232347   7.626   2.272   0.930 -0.5032  1.9407  0.3284
 2718TIP3   OH232348   1.615   0.774   6.629  0.5010 -0.2807  0.3774
 2718TIP3    H132349   1.570   0.760   6.546  0.5250 -0.6403  0.4234
 2718TIP3    H232350   1.593   0.863   6.654  0.3284 -0.2418  0.0854
 2719TIP3   OH232351   1.908   0.106   9.545 -0.2947  0.3099 -0.5599
 2719TIP3    H132352   1.894   0.060   9.627  0.0370  1.1161 -0.0430
 2719TIP3    H232353   1.821   0.136   9.519  0.0044  3.2835  1.4447
 2720TIP3   OH232354   2.742   5.137   9.833 -0.0754 -0.1384 -0.5196
 2720TIP3    H132355   2.656   5.161   9.868  0.7770  0.1247  1.5044
 2720TIP3    H232356   2.782   5.221   9.810  0.3445 -0.1067  0.3008
 2721TIP3   OH232357   6.847   1.147   9.115 -0.4310  0.0702 -0.0741
 2721TIP3    H132358   6.928   1.097   9.120  0.0874  0.9077  0.1457
 2721TIP3    H232359   6.801   1.127   9.197  0.7709  1.5903  1.0189
 2722TIP3   OH232360   3.069   3.202   9.540 -0.3500 -0.2715  1.1326
 2722TIP3    H132361   2.975   3.184   9.550 -0.4441  0.3644  1.4231
 2722TIP3    H232362   3.075   3.244   9.454 -0.3110 -0.4254  1.0598
 2723TIP3   OH232363   2.316   4.124   1.826  0.1856 -0.1533 -0.7442
 2723TIP3    H132364   2.326   4.051   1.886  1.7953 -0.7488 -1.6641
 2723TIP3    H232365   2.260   4.091   1.756 -0.4937  0.0736 -0.3211
 2724TIP3   OH232366   6.123   6.307   1.235 -0.2602  0.0474  0.4881
 2724TIP3    H132367   6.140   6.380   1.176 -1.2220  0.7899  1.0996
 2724TIP3    H232368   6.134   6.229   1.181  1.0256  0.6143 -0.1189
 2725TIP3   OH232369   7.668   5.534   2.658 -0.5861 -0.1631 -0.2079
 2725TIP3    H132370   7.691   5.621   2.692 -1.2175  0.4461 -1.2913
 2725TIP3    H232371   7.732   5.475   2.698  0.1685  0.8761  0.1552
 2726TIP3   OH232372   0.587   3.263   1.457 -0.5085 -0.4279  0.0535
 2726TIP3    H132373   0.513   3.314   1.489 -0.5346  0.3453 -1.1570
 2726TIP3    H232374   0.662   3.295   1.508 -0.2353  2.0068 -1.7018
 2727TIP3   OH232375   7.198   3.284   2.203 -0.5938  0.9836  0.3283
 2727TIP3    H132376   7.288   3.278   2.172 -1.4035  0.4147 -2.1417
 2727TIP3    H232377   7.204   3.278   2.298  1.9845  1.3719  0.2412
 2728TIP3   OH232378   2.309   4.248   8.982  0.3578  0.2472 -1.0441
 2728TIP3    H132379   2.267   4.259   9.067  0.3512  0.1982 -1.0408
 2728TIP3    H232380   2.328   4.337   8.953 -0.1042  0.2929 -1.2234
 2729TIP3   OH232381   5.561   3.513   8.100  0.2439  0.5326  0.7074
 2729TIP3    H132382   5.552   3.420   8.121  0.5941  0.4132  0.3374
 2729TIP3    H232383   5.477   3.551   8.124  0.1519  0.1493  1.0065
 2730TIP3   OH232384   3.446   4.113   8.610 -0.5920  0.6920 -0.0326
 2730TIP3    H132385   3.408   4.030   8.639 -0.2992  0.9166  1.0354
 2730TIP3    H232386   3.446   4.107   8.514 -2.6678  0.3996 -0.0632
 2731TIP3   OH232387   7.627   5.998   2.304 -0.5880  0.0822  0.2136
 2731TIP3    H132388   7.631   5.903   2.314 -2.3769 -0.0308  0.1103
 2731TIP3    H232389   7.581   6.028   2.382  1.6825  1.1198  1.2563
 2732TIP3   OH232390   6.108   1.017   1.909  0.0128 -0.4792 -0.2951
 2732TIP3    H132391   6.104   1.049   2.000  1.4223  0.2071 -0.4548
 2732TIP3    H232392   6.161   0.937   1.914  1.1080  0.2091 -0.6679
 2733TIP3   OH232393   2.989   5.256   7.698 -0.2767  0.4418  0.0637
 2733TIP3    H132394   2.906   5.300   7.678 -0.6589 -1.2253 -2.5870
 2733TIP3    H232395   2.997   5.189   7.630  2.1210 -1.0256  1.6353
 2734TIP3   OH232396   3.342   7.563   7.838 -0.8172  0.0496  0.1520
 2734TIP3    H132397   3.386   7.575   7.922 -1.3124 -1.5084  0.6670
 2734TIP3    H232398   3.341   7.651   7.799  0.9906  0.4816  0.9667
 2735TIP3   OH232399   1.074   2.167   1.832 -0.2627 -0.5010  0.3116
 2735TIP3    H132400   1.130   2.208   1.897 -0.1971 -0.2026  0.0735
 2735TIP3    H232401   1.111   2.080   1.819  0.7265  0.0101 -0.5221
 2736TIP3   OH232402   4.704   0.088   6.773 -0.3652  0.2769 -0.1391
 2736TIP3    H132403   4.788   0.128   6.750 -0.0968 -0.1937  0.0025
 2736TIP3    H232404   4.727   0.000   6.803 -0.9607 -0.0681 -0.6552
 2737TIP3   OH232405   6.571   0.449   3.041 -0.1314 -0.3078 -0.0676
 2737TIP3    H132406   6.542   0.431   3.130 -0.5414 -1.8132 -0.4716
 2737TIP3    H232407   6.659   0.412   3.036 -0.5414 -1.2557 -0.5873
 2738TIP3   OH232408   3.083   1.203   0.700 -0.3667  0.9281 -0.0200
 2738TIP3    H132409   3.051   1.147   0.771 -0.5907  0.1409 -0.7216
 2738TIP3    H232410   3.177   1.184   0.696 -0.8909 -1.9283 -2.3334
 2739TIP3   OH232411   3.175   7.589   7.543  0.2573  0.5906 -0.6154
 2739TIP3    H132412   3.085   7.570   7.515  0.3409  1.2105 -1.3530
 2739TIP3    H232413   3.224   7.510   7.521  0.0583  0.5740 -1.0162
 2740TIP3   OH232414   6.498   2.209   8.315  0.2000 -0.2307 -0.0973
 2740TIP3    H132415   6.408   2.212   8.284  0.0648  3.4482  0.2095
 2740TIP3    H232416   6.491   2.197   8.410  0.2715 -2.9108 -0.3481
 2741TIP3   OH232417   3.728   1.203   8.327  0.4740  0.0532  0.3806
 2741TIP3    H132418   3.724   1.123   8.275  0.9348 -0.6855  1.4397
 2741TIP3    H232419   3.716   1.273   8.263  1.2400 -0.7996 -0.7595
 2742TIP3   OH232420   6.976   1.799   8.836 -0.1328 -0.1458  0.3538
 2742TIP3    H132421   6.977   1.742   8.760  0.6698  1.5882 -0.9935
 2742TIP3    H232422   7.003   1.743   8.909  2.1102 -1.1444 -1.1653
 2743TIP3   OH232423   5.693   0.727   1.671 -0.5024 -0.1830  0.3652
 2743TIP3    H132424   5.705   0.632   1.670 -0.5499 -0.1877 -0.5717
 2743TIP3    H232425   5.768   0.760   1.721 -0.6058 -0.7230  0.8900
 2744TIP3   OH232426   2.272   0.649   9.958 -0.1878 -0.0237 -0.0366
 2744TIP3    H132427   2.208   0.660   9.888  1.7704  0.6243 -1.8405
 2744TIP3    H232428   2.356   0.662   9.916  1.3500 -2.9993  1.7445
 2745TIP3   OH232429   2.143   6.632   1.335  0.6088 -0.3096  0.4255
 2745TIP3    H132430   2.220   6.665   1.381 -0.3714  1.3448  0.9508
 2745TIP3    H232431   2.093   6.586   1.403  0.0348  0.6075  0.6489
 2746TIP3   OH232432   5.081   0.772   1.741 -0.4486 -0.4784 -0.3442
 2746TIP3    H132433   5.029   0.773   1.822  0.9014 -0.1882  0.5612
 2746TIP3    H232434   5.038   0.837   1.685 -0.5608  0.4189  0.7313
 2747TIP3   OH232435   3.724   0.010   9.493 -0.1684  0.1947 -0.5115
 2747TIP3    H132436   3.678  -0.070   9.467 -1.3691  0.6252  0.2054
 2747TIP3    H232437   3.677   0.080   9.449  0.2613  0.5832 -0.3574
 2748TIP3   OH232438   7.365   1.078   9.677 -0.0803 -0.2717  0.2145
 2748TIP3    H132439   7.349   1.130   9.598  0.7808  1.2136  0.9714
 2748TIP3    H232440   7.286   1.092   9.731 -0.5861 -1.1340 -0.2899
 2749TIP3   OH232441   6.469   6.640   3.583  0.1327 -0.2754  0.0437
 2749TIP3    H132442   6.464   6.544   3.576  1.3751 -0.3799  0.3125
 2749TIP3    H232443   6.378   6.668   3.594 -0.4702 -1.2568 -1.8713
 2750TIP3   OH232444   7.532   4.558   2.510 -0.2041  0.3285 -0.1412
 2750TIP3    H132445   7.529   4.597   2.597 -1.5568  0.7823 -0.3690
 2750TIP3    H232446   7.480   4.617   2.455 -2.0114 -1.5177 -0.5752
 2751TIP3   OH232447   6.819   0.144   9.356  0.0931  0.6228  0.4046
 2751TIP3    H132448   6.843   0.233   9.382 -0.6201  0.2380  2.5579
 2751TIP3    H232449   6.723   0.145   9.353  0.0462 -0.2408  1.1755
 2752TIP3   OH232450   1.439   2.744   1.461 -0.2007  0.3320 -0.4731
 2752TIP3    H132451   1.448   2.684   1.387  1.2965 -0.3125  0.1819
 2752TIP3    H232452   1.356   2.720   1.502  0.1279 -0.9920 -0.5176
 2753TIP3   OH232453   1.729   0.726   8.423  0.3300 -0.2791 -0.1548
 2753TIP3    H132454   1.720   0.657   8.357  1.4672 -1.6676  1.0697
 2753TIP3    H232455   1.754   0.803   8.373  0.3974 -1.1053 -1.4464
 2754TIP3   OH232456   3.552   6.402   2.654  0.0135 -0.3155  0.1741
 2754TIP3    H132457   3.468   6.440   2.680 -0.6405 -1.9969  0.6699
 2754TIP3    H232458   3.585   6.361   2.734  0.3486 -1.3561 -0.4830
 2755TIP3   OH232459   1.197   2.706   1.598  0.5567  0.3263 -0.4371
 2755TIP3    H132460   1.163   2.712   1.688  0.7195  2.4323 -0.4827
 2755TIP3    H232461   1.140   2.764   1.547  0.0687 -1.3156 -1.8709
 2756TIP3   OH232462   6.735   5.405   9.215 -0.4169  0.4170  0.1280
 2756TIP3    H132463   6.684   5.453   9.150  1.6302 -0.5081 -2.3384
 2756TIP3    H232464   6.706   5.315   9.207  0.8802  0.0401 -0.6564
 2757TIP3   OH232465   4.950   0.614   8.921 -0.2588 -0.5236  0.6035
 2757TIP3    H132466   4.973   0.688   8.977  0.0778 -0.3020  0.1869
 2757TIP3    H232467   4.860   0.631   8.894 -1.0994 -1.5748  2.5295
 2758TIP3   OH232468   0.391   6.348   8.267 -0.3681 -0.1693  0.1010
 2758TIP3    H132469   0.422   6.277   8.211  0.3837 -0.5353  0.9693
 2758TIP3    H232470   0.371   6.419   8.205  0.8094 -0.4262 -0.6095
 2759TIP3   OH232471   2.806   3.721   9.161 -0.0867 -0.6493 -0.0709
 2759TIP3    H132472   2.788   3.645   9.217  0.3760 -0.7683 -0.0731
 2759TIP3    H232473   2.728   3.730   9.106 -1.1256  0.2964  1.4995
 2760TIP3   OH232474   3.034   2.298   2.044 -0.3835  0.1986 -0.3021
 2760TIP3    H132475   3.017   2.215   2.000  0.8643 -1.2475  1.7842
 2760TIP3    H232476   2.985   2.292   2.126  1.3836  0.5699  0.8397
 2761TIP3   OH232477   0.008   6.139   3.338  0.3237 -0.3230  0.2242
 2761TIP3    H132478  -0.071   6.147   3.284  0.1928  1.0140  0.5683
 2761TIP3    H232479   0.019   6.226   3.377  1.8352 -0.5557  0.3842
 2762TIP3   OH232480   1.128   6.724   1.581  0.6010  0.0346 -0.2800
 2762TIP3    H132481   1.045   6.702   1.624 -0.2578  0.6109 -1.5734
 2762TIP3    H232482   1.157   6.641   1.542  1.2829 -0.4454  1.1676
 2763TIP3   OH232483   0.171   1.923   9.587 -0.3572  0.6862 -0.2120
 2763TIP3    H132484   0.170   1.882   9.673 -2.1869  2.8013  0.8864
 2763TIP3    H232485   0.234   1.995   9.595  3.1290 -1.8020 -2.2265
 2764TIP3   OH232486   3.300   7.101   3.231  0.0152 -0.5025 -0.4176
 2764TIP3    H132487   3.270   7.060   3.312  2.7069 -0.3369  0.7742
 2764TIP3    H232488   3.272   7.192   3.237 -1.7047 -0.9786 -0.7589
 2765TIP3   OH232489   2.444   1.926   1.232 -0.1855  0.2205 -0.3134
 2765TIP3    H132490   2.482   2.014   1.231 -2.1710  1.1383 -0.1751
 2765TIP3    H232491   2.416   1.911   1.142  2.7921 -1.5790 -1.0591
 2766TIP3   OH232492   1.669   0.537   9.356 -0.5448  0.3688  0.1099
 2766TIP3    H132493   1.751   0.562   9.400 -0.1717 -0.6925  0.0499
 2766TIP3    H232494   1.601   0.557   9.420 -0.0156 -1.1102  1.1866
 2767TIP3   OH232495   4.975   0.209   6.807 -0.7649  0.2873  0.4683
 2767TIP3    H132496   4.936   0.286   6.849 -1.7904 -0.4119  0.8563
 2767TIP3    H232497   4.961   0.138   6.870 -0.6224 -0.3880 -0.2477
 2768TIP3   OH232498   5.420   6.275   7.688 -0.5134  0.2238 -0.1742
 2768TIP3    H132499   5.435   6.348   7.749 -1.9812  0.0779  0.4019
 2768TIP3    H232500   5.504   6.264   7.643  0.0253  1.6270  0.4212
 2769TIP3   OH232501   6.912   6.716   9.291 -0.0662  0.2037 -0.0529
 2769TIP3    H132502   6.969   6.737   9.364  1.5274 -3.2470 -0.1503
 2769TIP3    H232503   6.826   6.703   9.331  0.1400  1.1413  0.7370
 2770TIP3   OH232504   1.634   4.784   7.216  0.3995 -0.5777 -0.0816
 2770TIP3    H132505   1.601   4.861   7.263 -0.8372 -1.3968  0.4334
 2770TIP3    H232506   1.707   4.753   7.269 -0.0976 -0.6705  0.5624
 2771TIP3   OH232507   1.849   2.451   9.382  0.3781  0.2571  0.3032
 2771TIP3    H132508   1.886   2.524   9.332 -1.2388  1.2388  0.4724
 2771TIP3    H232509   1.919   2.385   9.382  1.9206  1.7946  0.1818
 2772TIP3   OH232510   2.659   4.109   0.657  0.9495  0.3150 -0.5165
 2772TIP3    H132511   2.645   4.193   0.613  1.2037  0.1264 -0.9615
 2772TIP3    H232512   2.615   4.045   0.600  0.3058  0.2109  0.0900
 2773TIP3   OH232513   7.432   4.364   0.787  0.1356  0.1881  0.0189
 2773TIP3    H132514   7.484   4.315   0.850  0.2686 -0.4029 -0.5424
 2773TIP3    H232515   7.355   4.393   0.836  1.0391  1.1780  0.8859
 2774TIP3   OH232516   6.687   0.804   0.090 -0.0598  0.6644 -0.1310
 2774TIP3    H132517   6.752   0.734   0.082 -1.1239 -0.2712 -0.8930
 2774TIP3    H232518   6.627   0.772   0.157 -0.0923  1.2319  0.1098
 2775TIP3   OH232519   5.015   4.273   8.024  0.1227  0.2958 -0.0071
 2775TIP3    H132520   4.968   4.315   8.096 -0.4867  0.4352 -0.4740
 2775TIP3    H232521   5.041   4.345   7.967 -1.6263  0.0150 -1.2248
 2776TIP3   OH232522   0.875   0.122   2.047 -0.0200 -0.2845 -0.1552
 2776TIP3    H132523   0.870   0.026   2.050 -1.6137 -0.2040  2.0035
 2776TIP3    H232524   0.933   0.145   2.119  1.6456  0.3811 -1.6341
 2777TIP3   OH232525   7.006   7.383   7.515  0.6215 -0.0754 -0.1954
 2777TIP3    H132526   7.078   7.402   7.575  0.1592  0.2676  0.2581
 2777TIP3    H232527   6.979   7.294   7.538  1.2940 -0.4509 -0.7866
 2778TIP3   OH232528   4.151   6.997   0.233 -0.0443  0.1661 -0.1105
 2778TIP3    H132529   4.098   6.935   0.283 -0.1030  0.7193  0.5383
 2778TIP3    H232530   4.218   6.944   0.191 -0.9044 -0.5078 -0.6820
 2779TIP3   OH232531   5.445   0.813   7.576 -0.4706 -0.4409  0.0558
 2779TIP3    H132532   5.396   0.851   7.503 -0.3074  1.1260  0.7276
 2779TIP3    H232533   5.531   0.793   7.538 -0.5056  0.0114 -0.2675
 2780TIP3   OH232534   3.066   6.473   0.140  0.5606  0.0221 -0.0231
 2780TIP3    H132535   3.120   6.396   0.156 -0.1937 -0.0994  2.3811
 2780TIP3    H232536   3.115   6.545   0.180  0.8893  0.7099 -1.5674
 2781TIP3   OH232537   0.528   3.741   9.782  0.6644  0.5311  0.3288
 2781TIP3    H132538   0.585   3.797   9.835  1.6543 -0.3263  0.2175
 2781TIP3    H232539   0.514   3.663   9.836  1.4247 -0.2167 -0.4918
 2782TIP3   OH232540   6.718   6.586   8.470  0.1607 -0.0912 -0.2316
 2782TIP3    H132541   6.631   6.617   8.445  0.4504  0.1415 -0.9775
 2782TIP3    H232542   6.707   6.553   8.559 -1.7881 -4.2444 -1.7447
 2783TIP3   OH232543   0.142   0.739   7.381  0.3002  0.7981  0.0298
 2783TIP3    H132544   0.137   0.827   7.420  0.8655  0.0677  1.8266
 2783TIP3    H232545   0.070   0.737   7.318 -0.6377  2.0571  1.0090
 2784TIP3   OH232546   1.232   2.064   7.898 -0.6122 -0.4630  0.7672
 2784TIP3    H132547   1.298   2.131   7.917 -2.3826  1.2461  1.2146
 2784TIP3    H232548   1.160   2.084   7.958 -2.6802 -0.5212 -1.5429
 2785TIP3   OH232549   2.935   4.215   9.223 -0.4171  0.3034 -0.1692
 2785TIP3    H132550   2.848   4.178   9.206  0.0528 -0.7556 -0.3900
 2785TIP3    H232551   2.969   4.163   9.296 -0.0469  0.8430  0.0442
 2786TIP3   OH232552   3.418   0.664   7.221  0.0102 -0.1609 -0.4510
 2786TIP3    H132553   3.405   0.725   7.148  2.4757  0.7342 -0.2424
 2786TIP3    H232554   3.329   0.640   7.248 -1.1032  2.8934 -0.9327
 2787TIP3   OH232555   6.023   3.735   7.939  0.4798 -0.6290  0.1008
 2787TIP3    H132556   6.019   3.718   8.033 -0.4850 -0.8969  0.0248
 2787TIP3    H232557   5.987   3.656   7.899  1.8675 -0.9676 -0.5543
 2788TIP3   OH232558   3.655   7.434   9.401 -0.3972  0.1230 -0.0967
 2788TIP3    H132559   3.565   7.403   9.414  0.1845 -1.1088  1.2292
 2788TIP3    H232560   3.698   7.362   9.355  0.0525  0.5071 -0.2799
 2789TIP3   OH232561   3.751   1.143   1.612 -0.0895  0.3261 -0.4574
 2789TIP3    H132562   3.678   1.191   1.573 -0.6024 -0.1039 -0.0381
 2789TIP3    H232563   3.715   1.104   1.691  1.4173  2.8193  1.5942
 2790TIP3   OH232564   4.233   2.122   8.738  0.8295  0.6116 -0.7417
 2790TIP3    H132565   4.308   2.072   8.773  0.6321 -1.6683 -3.2682
 2790TIP3    H232566   4.172   2.055   8.708 -0.8664  2.4350 -1.5368
 2791TIP3   OH232567   7.537   2.323   9.192  0.0089 -0.4044 -0.2043
 2791TIP3    H132568   7.451   2.300   9.155 -0.1459  0.9068 -0.7135
 2791TIP3    H232569   7.560   2.406   9.149 -0.1964  1.2432  2.6039
 2792TIP3   OH232570   0.419   0.298   2.862 -0.1475 -0.0559 -0.0257
 2792TIP3    H132571   0.478   0.373   2.851 -1.1217  1.6846  4.2533
 2792TIP3    H232572   0.475   0.228   2.894  0.3357 -0.2155 -1.1786
 2793TIP3   OH232573   3.837   1.934   1.471 -0.3390  0.1273  0.0597
 2793TIP3    H132574   3.923   1.897   1.490 -1.0860 -0.5192  2.4829
 2793TIP3    H232575   3.855   2.013   1.421  1.7770  0.8580  1.8600
 2794TIP3   OH232576   3.104   4.214   1.707  0.4657  0.0290  0.3167
 2794TIP3    H132577   3.149   4.151   1.764  2.8960  0.5749 -0.8427
 2794TIP3    H232578   3.099   4.169   1.622 -2.9467 -0.7087  0.7761
 2795TIP3   OH232579   5.371   1.321   1.073 -0.1637  0.2067 -0.2399
 2795TIP3    H132580   5.456   1.303   1.112 -0.1808  0.0647 -0.2684
 2795TIP3    H232581   5.320   1.360   1.144 -0.8974 -1.9833  0.5329
 2796TIP3   OH232582   7.256   1.515   8.158 -0.3580  0.2538  0.4053
 2796TIP3    H132583   7.184   1.574   8.179 -2.4098 -2.5266  1.8175
 2796TIP3    H232584   7.285   1.481   8.243 -0.0346 -1.5870 -0.3784
 2797TIP3   OH232585   1.711   4.498   9.788  0.2156 -0.0587  0.0452
 2797TIP3    H132586   1.673   4.457   9.711  1.0306  0.4944 -0.6582
 2797TIP3    H232587   1.790   4.447   9.807  0.1334 -0.0632  0.3985
 2798TIP3   OH232588   5.997   0.040   7.277 -0.0189 -0.3256  0.0946
 2798TIP3    H132589   6.086   0.033   7.312  0.2006  0.2113 -0.3529
 2798TIP3    H232590   5.965  -0.050   7.277  0.6592 -0.5756 -0.0923
 2799TIP3   OH232591   4.251   2.838   9.644 -0.6442  0.5534 -0.2567
 2799TIP3    H132592   4.226   2.800   9.728  0.5509  1.2214  0.4155
 2799TIP3    H232593   4.273   2.929   9.664 -1.5979  1.0949 -1.5213
 2800TIP3   OH232594   1.978   6.924   9.492  0.2972 -0.0580  0.2834
 2800TIP3    H132595   2.059   6.876   9.510 -0.4270 -1.2059  0.5622
 2800TIP3    H232596   1.974   6.928   9.396  1.3250  1.1552  0.2650
 2801TIP3   OH232597   5.453   5.638   6.453 -0.0809  0.0415 -0.0920
 2801TIP3    H132598   5.490   5.720   6.420 -2.0417  0.4763 -1.3425
 2801TIP3    H232599   5.513   5.611   6.523  2.4957  0.7531 -1.8870
 2802TIP3   OH232600   2.728   2.104   0.920 -0.0301  0.3023 -0.0780
 2802TIP3    H132601   2.715   2.182   0.865 -1.2931  1.1735  1.3695
 2802TIP3    H232602   2.718   2.030   0.861  1.0566  1.2151 -1.4701
 2803TIP3   OH232603   6.607   1.938   1.624  0.4578  0.4884  0.5843
 2803TIP3    H132604   6.633   1.874   1.690  1.3199  1.5837  1.3305
 2803TIP3    H232605   6.526   1.976   1.659 -0.2426 -0.4103 -0.0232
 2804TIP3   OH232606   2.357   2.328   3.444  0.4086 -0.1090 -0.5502
 2804TIP3    H132607   2.303   2.337   3.522  2.3243 -1.3495  1.0045
 2804TIP3    H232608   2.333   2.403   3.390 -1.7755  0.1786  0.7013
 2805TIP3   OH232609   0.971   6.945   0.336  0.9350 -1.0091  0.0109
 2805TIP3    H132610   0.905   6.901   0.390  0.2578 -1.4147 -1.0943
 2805TIP3    H232611   0.964   6.902   0.251  1.3875  0.1600 -0.6446
 2806TIP3   OH232612   3.259   1.277   2.532  0.2177  0.2846 -0.3889
 2806TIP3    H132613   3.244   1.356   2.584 -0.7459  0.8605 -1.4851
 2806TIP3    H232614   3.243   1.205   2.593 -1.7590  0.9317 -0.0675
 2807TIP3   OH232615   6.631   3.645   6.915 -0.1346  0.3040  0.8336
 2807TIP3    H132616   6.725   3.643   6.900 -0.1291  1.3815  0.6263
 2807TIP3    H232617   6.613   3.569   6.970  0.9894  0.5944  1.6153
 2808TIP3   OH232618   4.717   1.359   9.555 -0.3715  0.4864 -0.4692
 2808TIP3    H132619   4.634   1.314   9.565  0.0527  0.2007  2.8401
 2808TIP3    H232620   4.699   1.430   9.494 -2.7952 -0.1080 -0.5259
 2809TIP3   OH232621   2.154   2.666   0.830 -1.0420 -0.5626  0.1392
 2809TIP3    H132622   2.106   2.674   0.913 -0.3519 -0.2566  0.5193
 2809TIP3    H232623   2.226   2.605   0.850 -0.6601 -0.2085 -0.1292
 2810TIP3   OH232624   0.792   5.460   9.524 -0.0745  1.2814 -0.4230
 2810TIP3    H132625   0.712   5.503   9.492 -1.4533 -0.9436 -0.1905
 2810TIP3    H232626   0.783   5.460   9.619 -1.1101 -1.1172 -0.4403
 2811TIP3   OH232627   1.195   0.969   0.292 -0.0190  0.5453  0.1704
 2811TIP3    H132628   1.247   1.049   0.297  1.9496 -0.7391  1.9767
 2811TIP3    H232629   1.257   0.898   0.309 -1.7794 -1.3648 -0.8240
 2812TIP3   OH232630   2.103   5.910   0.373  0.0521  0.2128 -0.0679
 2812TIP3    H132631   2.174   5.919   0.310 -0.5241  0.0648 -0.7515
 2812TIP3    H232632   2.024   5.903   0.319 -0.4240 -0.1517  0.6636
 2813TIP3   OH232633   2.835   3.431   2.276  0.6988 -0.3454 -0.7120
 2813TIP3    H132634   2.834   3.521   2.245  1.4971 -0.1310 -0.1618
 2813TIP3    H232635   2.925   3.416   2.304  0.8834 -1.7234 -1.9324
 2814TIP3   OH232636   7.307   3.229   9.690 -0.9629 -0.3453 -0.2150
 2814TIP3    H132637   7.317   3.249   9.783 -0.0578 -1.1398 -0.1246
 2814TIP3    H232638   7.396   3.238   9.654 -0.8859 -2.1096 -0.5596
 2815TIP3   OH232639   5.703   1.646   9.443  0.4071 -0.1806  0.1212
 2815TIP3    H132640   5.755   1.598   9.379  1.0725  0.0597  0.4654
 2815TIP3    H232641   5.768   1.682   9.504 -0.2644 -1.6605  1.8238
 2816TIP3   OH232642   1.029   1.577   9.286  0.0490  0.6496  0.7983
 2816TIP3    H132643   0.967   1.606   9.352 -0.5777  0.1719  0.4283
 2816TIP3    H232644   1.115   1.586   9.328 -0.3483  0.1844  1.7337
 2817TIP3   OH232645   1.260   6.111   7.392 -0.4036  0.6247  0.4474
 2817TIP3    H132646   1.354   6.117   7.407 -0.0529 -2.9314  0.6504
 2817TIP3    H232647   1.220   6.129   7.477  0.3608 -0.8052  1.1467
 2818TIP3   OH232648   5.572   7.313   7.753 -0.1767  0.2654  0.2510
 2818TIP3    H132649   5.555   7.383   7.816 -1.7747 -1.6536  2.0984
 2818TIP3    H232650   5.486   7.276   7.734  0.7236 -2.2312  0.6328
 2819TIP3   OH232651   1.967   3.402   2.416 -0.3704 -0.2698 -0.0834
 2819TIP3    H132652   1.910   3.416   2.341  0.2251  0.2388 -0.4502
 2819TIP3    H232653   2.032   3.471   2.410  0.2219 -0.7735  0.3905
 2820TIP3   OH232654   5.680   3.724   9.731  0.0496  0.2140  0.0246
 2820TIP3    H132655   5.741   3.792   9.702  0.4949 -0.4542 -0.6471
 2820TIP3    H232656   5.653   3.680   9.650 -1.8311  0.8989  0.2192
 2821TIP3   OH232657   7.038   6.629   8.758  0.6671  0.3872 -0.0417
 2821TIP3    H132658   7.004   6.708   8.715 -0.4208  0.1761  0.4084
 2821TIP3    H232659   7.132   6.632   8.741  0.5435  1.3987 -0.6562
 2822TIP3   OH232660   4.338   2.743   1.803 -0.5459 -0.1814  0.2163
 2822TIP3    H132661   4.267   2.733   1.867 -1.2782  0.1924 -0.5217
 2822TIP3    H232662   4.296   2.781   1.726  0.6022  0.8053  0.0434
 2823TIP3   OH232663   1.431   0.474   8.298 -0.2547 -0.2509 -0.2133
 2823TIP3    H132664   1.453   0.546   8.240 -1.6730  1.1634  0.9172
 2823TIP3    H232665   1.374   0.417   8.246  0.9761 -0.6554 -1.1497
 2824TIP3   OH232666   1.358   7.581   1.013 -0.1368 -0.2586  0.2432
 2824TIP3    H132667   1.313   7.585   0.928 -1.1808  0.5280  0.8030
 2824TIP3    H232668   1.342   7.668   1.052  1.9674  0.0778  0.4396
 2825TIP3   OH232669   3.946   7.226   8.509  0.1292  0.9341  0.1866
 2825TIP3    H132670   3.978   7.214   8.419  2.8141  0.1364  1.1335
 2825TIP3    H232671   3.881   7.156   8.521  1.4286 -0.4557 -0.4685
 2826TIP3   OH232672   3.392   7.458   7.473  0.1037  0.2180 -0.7452
 2826TIP3    H132673   3.467   7.516   7.488 -1.6563  2.0549  1.7231
 2826TIP3    H232674   3.403   7.388   7.538  0.4529 -0.4364 -1.4782
 2827TIP3   OH232675   6.836   6.068   9.426 -0.3251  0.0311 -0.0807
 2827TIP3    H132676   6.760   6.115   9.391 -0.3183 -0.6067 -0.9747
 2827TIP3    H232677   6.810   6.044   9.515 -0.9831  0.2329 -0.2083
 2828TIP3   OH232678   0.954   2.914   7.882 -0.3492 -0.1674 -0.1496
 2828TIP3    H132679   0.899   2.930   7.806  1.6386  1.6159 -1.3209
 2828TIP3    H232680   0.899   2.935   7.957 -2.0412 -0.9888 -1.1252
 2829TIP3   OH232681   5.275   6.721   8.669 -0.3708 -0.4111 -0.3278
 2829TIP3    H132682   5.316   6.694   8.587 -0.8296 -1.1440 -0.3243
 2829TIP3    H232683   5.272   6.816   8.664 -0.7176 -0.4638 -1.3298
 2830TIP3   OH232684   0.603   5.192   0.675  0.0484 -0.0261 -0.6241
 2830TIP3    H132685   0.548   5.228   0.606 -1.1815 -0.2703  0.1880
 2830TIP3    H232686   0.554   5.116   0.706  0.2537  0.4492  0.9308
 2831TIP3   OH232687   0.509   5.004   8.391  0.0212 -0.6418 -0.3560
 2831TIP3    H132688   0.435   4.948   8.416  1.3800 -3.4749 -2.1070
 2831TIP3    H232689   0.472   5.092   8.387 -2.7136 -1.6092  0.8939
 2832TIP3   OH232690   2.984   0.506   1.105  0.3504 -0.2338 -0.3273
 2832TIP3    H132691   3.023   0.587   1.072  2.8237 -2.0816 -2.3401
 2832TIP3    H232692   3.046   0.475   1.171  1.6775 -2.4086 -2.4309
 2833TIP3   OH232693   6.711   7.466   8.433  0.3535 -0.2337 -0.4277
 2833TIP3    H132694   6.682   7.390   8.483  3.0175 -0.3474  1.1212
 2833TIP3    H232695   6.718   7.435   8.343  0.7571 -1.6180  0.0638
 2834TIP3   OH232696   6.065   6.826   8.902  0.0953  0.4090  0.0760
 2834TIP3    H132697   6.146   6.877   8.889  0.2319  0.0928 -0.3453
 2834TIP3    H232698   6.018   6.874   8.970  0.0494  1.3079 -0.5652
 2835TIP3   OH232699   6.281   5.615   9.073  0.1104  0.1061 -0.0027
 2835TIP3    H132700   6.376   5.608   9.069  0.2597  1.3634  0.7347
 2835TIP3    H232701   6.249   5.548   9.012  1.4864  0.2564 -0.9403
 2836TIP3   OH232702   3.007   3.623   1.417 -0.4909  0.2700 -0.2821
 2836TIP3    H132703   2.986   3.532   1.435 -1.1172  0.6764  1.1668
 2836TIP3    H232704   3.007   3.629   1.321 -2.1841 -0.8555 -0.3867
 2837TIP3   OH232705   4.819   2.827   9.897  0.2486 -0.2022 -0.3851
 2837TIP3    H132706   4.742   2.880   9.915 -0.5148 -1.1193 -0.8619
 2837TIP3    H232707   4.891   2.875   9.938 -0.5018  0.8761 -0.2747
 2838TIP3   OH232708   4.384   7.407   8.179 -0.4872 -0.1127 -0.0070
 2838TIP3    H132709   4.324   7.374   8.112  0.5007 -2.5490  0.2308
 2838TIP3    H232710   4.457   7.445   8.130 -0.2286 -1.0047 -0.3277
 2839TIP3   OH232711   3.183   4.503   1.742  0.2239 -0.2285  0.7486
 2839TIP3    H132712   3.186   4.409   1.761  1.4985 -0.1126  1.2141
 2839TIP3    H232713   3.214   4.510   1.652 -1.4195 -0.3666  0.1292
 2840TIP3   OH232714   5.643   5.856   9.336 -0.1400 -0.4020 -0.1335
 2840TIP3    H132715   5.699   5.780   9.353  0.9967  0.1874 -1.0470
 2840TIP3    H232716   5.555   5.820   9.328  0.4509 -1.7174 -1.1085
 2841TIP3   OH232717   2.735   5.705   1.411  0.0518 -0.3567 -0.1836
 2841TIP3    H132718   2.672   5.724   1.481  1.1172  0.6348  0.5500
 2841TIP3    H232719   2.687   5.723   1.330 -0.4915  0.7604  0.3660
 2842TIP3   OH232720   7.506   6.147   3.151 -0.0963  0.6149 -0.0068
 2842TIP3    H132721   7.410   6.155   3.149 -0.1170  0.8460  1.4104
 2842TIP3    H232722   7.534   6.178   3.065 -1.2484  1.1562 -0.2047
 2843TIP3   OH232723   6.205   7.182   8.964 -0.0560 -0.5609 -0.1262
 2843TIP3    H132724   6.238   7.098   8.933 -0.1692 -2.1021  3.4359
 2843TIP3    H232725   6.224   7.183   9.058 -1.8196  2.5652  0.3722
 2844TIP3   OH232726   1.109   4.108   0.637 -0.5800  0.4822 -0.0467
 2844TIP3    H132727   1.118   4.203   0.642 -1.7939  0.5640  1.1704
 2844TIP3    H232728   1.191   4.078   0.598  0.2804  1.9237  0.5821
 2845TIP3   OH232729   2.076   7.607   1.808  0.0041 -0.1661 -0.1058
 2845TIP3    H132730   2.003   7.552   1.779  0.1338 -1.3113  1.5926
 2845TIP3    H232731   2.153   7.569   1.766 -0.1580  0.0313 -0.5912
 2846TIP3   OH232732   3.452   2.535   2.424 -0.4343 -0.2560 -0.1162
 2846TIP3    H132733   3.435   2.544   2.517  2.7812 -1.0261  0.6472
 2846TIP3    H232734   3.465   2.625   2.393 -0.5033 -0.0719  0.3860
 2847TIP3   OH232735   4.009   3.627   7.757 -0.2690  1.0865 -0.1708
 2847TIP3    H132736   3.985   3.537   7.733  0.7070  1.0971 -1.2743
 2847TIP3    H232737   3.926   3.668   7.782 -0.5576 -0.4503  1.5531
 2848TIP3   OH232738   4.743   0.363   7.867  0.0864 -0.1443  0.5272
 2848TIP3    H132739   4.707   0.405   7.946 -1.6900  0.0949 -0.3785
 2848TIP3    H232740   4.764   0.436   7.809 -0.9177 -0.3946 -0.1720
 2849TIP3   OH232741   4.899   0.468   9.870  0.1633 -0.0941  0.5442
 2849TIP3    H132742   4.856   0.471   9.956 -0.7210  1.1578  0.0866
 2849TIP3    H232743   4.981   0.514   9.883  0.2740 -0.3769  0.8498
 2850TIP3   OH232744   0.135   4.849   1.582  0.2846 -0.4559  0.2661
 2850TIP3    H132745   0.196   4.778   1.604 -0.2282 -0.9432  0.1580
 2850TIP3    H232746   0.081   4.858   1.661  0.9661  0.4843  0.6408
 2851TIP3   OH232747   0.070   4.362   2.040  0.2010 -0.3339  0.3465
 2851TIP3    H132748   0.068   4.454   2.066 -1.1558 -0.3869  0.5169
 2851TIP3    H232749   0.163   4.340   2.038  0.6419  1.3469 -0.8228
 2852TIP3   OH232750   7.332   3.767   9.405  0.2918 -0.0080  0.6798
 2852TIP3    H132751   7.296   3.782   9.493 -2.1993  2.0260 -0.5691
 2852TIP3    H232752   7.294   3.684   9.378  0.2093 -0.1073  1.0889
 2853TIP3   OH232753   2.644   0.150   1.779  0.6204  0.0740 -0.0501
 2853TIP3    H132754   2.620   0.057   1.768 -0.7370  0.3242  0.5552
 2853TIP3    H232755   2.615   0.192   1.698 -1.3839  0.4186  0.7753
 2854TIP3   OH232756   2.630   5.699   0.302 -0.2853 -0.1884  0.6200
 2854TIP3    H132757   2.699   5.724   0.363  1.7723 -0.9232 -1.2669
 2854TIP3    H232758   2.676   5.679   0.220 -2.7658 -0.5637 -0.7957
 2855TIP3   OH232759   6.713   2.569   9.548 -0.4247 -0.0799  0.1848
 2855TIP3    H132760   6.803   2.591   9.572 -0.8525  0.2723  1.5602
 2855TIP3    H232761   6.702   2.478   9.578 -0.6166 -0.0195  0.3012
 2856TIP3   OH232762   6.772   2.466   0.692 -0.4438  0.3320  0.1257
 2856TIP3    H132763   6.732   2.389   0.732 -0.4791 -0.6568 -1.6943
 2856TIP3    H232764   6.850   2.432   0.648 -1.4847  0.9031 -2.3734
 2857TIP3   OH232765   3.884   2.948   8.934 -0.2790  1.2258 -0.2523
 2857TIP3    H132766   3.909   2.971   8.845  1.5261  1.1258  0.1814
 2857TIP3    H232767   3.885   3.031   8.982  1.4904  0.9682  0.2440
 2858TIP3   OH232768   2.537   1.413   0.423 -0.5095  0.4508  0.2430
 2858TIP3    H132769   2.617   1.457   0.450  0.8687 -1.0058 -1.1947
 2858TIP3    H232770   2.559   1.374   0.338 -2.0802 -1.7020  0.7220
 2859TIP3   OH232771   4.143   2.663   7.632  0.1829 -0.1997 -0.3335
 2859TIP3    H132772   4.141   2.758   7.628  1.3037 -0.1896 -1.0466
 2859TIP3    H232773   4.066   2.635   7.581  0.9952  0.3182 -1.8987
 2860TIP3   OH232774   6.898   3.721   9.901  0.6593  0.1108 -0.0491
 2860TIP3    H132775   6.814   3.727   9.856  2.1615 -3.1504 -3.8467
 2860TIP3    H232776   6.936   3.809   9.892 -1.3656  1.0267 -0.2019
 2861TIP3   OH232777   3.610   0.705   8.161  0.4168  0.1977 -0.3546
 2861TIP3    H132778   3.539   0.663   8.209  1.4073 -1.8264 -0.5497
 2861TIP3    H232779   3.568   0.745   8.086 -0.6786  0.2011  0.2410
 2862TIP3   OH232780   0.097   1.233   1.238  0.0946 -0.1071 -0.7768
 2862TIP3    H132781   0.036   1.197   1.174  0.0498 -1.0848 -0.2064
 2862TIP3    H232782   0.041   1.276   1.303  0.1648  1.3603 -1.6471
 2863TIP3   OH232783   6.790   0.906   0.493  0.7220  0.8470  0.3775
 2863TIP3    H132784   6.769   0.817   0.520  1.8259  0.6310  0.5756
 2863TIP3    H232785   6.880   0.901   0.460  0.4324  1.6811 -0.6053
 2864TIP3   OH232786   3.037   4.451   9.126 -0.8069 -0.7243 -0.4440
 2864TIP3    H132787   3.000   4.378   9.176 -1.2256 -0.6690 -0.6661
 2864TIP3    H232788   3.075   4.509   9.192 -1.9994 -0.2833 -0.1090
 2865TIP3   OH232789   2.853   1.321   1.515 -0.0751 -0.4029  0.0949
 2865TIP3    H132790   2.808   1.254   1.463 -2.4682  1.8405 -0.9344
 2865TIP3    H232791   2.944   1.292   1.517 -0.5981 -2.5660 -2.1110
 2866TIP3   OH232792   3.909   1.170   0.652 -0.1121  0.1014 -0.2746
 2866TIP3    H132793   3.931   1.093   0.600 -0.7489  0.4102 -1.0385
 2866TIP3    H232794   3.928   1.145   0.742  0.9767 -0.4703 -0.6472
 2867TIP3   OH232795   1.757   6.633   2.502 -0.3422 -0.0797 -0.2876
 2867TIP3    H132796   1.663   6.651   2.514 -0.6837 -0.7614 -1.6980
 2867TIP3    H232797   1.771   6.639   2.408  0.8369 -0.8990 -0.1877
 2868TIP3   OH232798   4.066   3.513   0.304 -0.2291  0.0446  0.5309
 2868TIP3    H132799   3.975   3.506   0.332 -0.4992  0.4237 -0.2187
 2868TIP3    H232800   4.116   3.526   0.385 -1.0604  1.7880  0.8049
 2869TIP3   OH232801   4.585   2.965   9.892 -0.1039 -0.4373  0.9578
 2869TIP3    H132802   4.497   2.927   9.897 -0.4217  0.3022  1.1652
 2869TIP3    H232803   4.570   3.058   9.875  0.6903 -0.7369 -1.8854
 2870TIP3   OH232804   7.263   5.875   8.316 -0.5835 -0.1708 -0.0077
 2870TIP3    H132805   7.218   5.951   8.352  1.4601  1.7810 -1.2947
 2870TIP3    H232806   7.238   5.803   8.374 -1.6328  1.7156  2.0416
 2871TIP3   OH232807   7.299   5.110   8.307  0.2203 -0.2315 -0.1488
 2871TIP3    H132808   7.276   5.089   8.216  1.2915  1.0287 -0.7323
 2871TIP3    H232809   7.394   5.118   8.306  0.0762  2.0491  0.5783
 2872TIP3   OH232810   1.369   6.787   7.942 -0.1705  0.4006 -0.5727
 2872TIP3    H132811   1.340   6.859   7.998 -0.2650  0.6034 -0.8783
 2872TIP3    H232812   1.407   6.723   8.002 -0.9811  0.2651 -0.1921
 2873TIP3   OH232813   6.044   6.763   7.184  0.6238 -0.4246  0.4348
 2873TIP3    H132814   6.001   6.737   7.102  0.1465  0.1515  0.4982
 2873TIP3    H232815   6.052   6.682   7.233 -1.0704 -0.4526  0.7341
 2874TIP3   OH232816   7.387   6.215   8.267 -0.1903  0.0854  0.9083
 2874TIP3    H132817   7.361   6.307   8.264  0.3837  0.2370 -2.1052
 2874TIP3    H232818   7.318   6.169   8.220  1.2889 -0.4638 -0.8309
 2875TIP3   OH232819   5.298   0.279   9.727 -0.2368 -0.0409  0.3448
 2875TIP3    H132820   5.332   0.349   9.783 -2.6853  1.5259  0.0116
 2875TIP3    H232821   5.241   0.228   9.785  1.5209 -1.9043  0.5900
 2876TIP3   OH232822   4.190   6.706   9.812 -0.6172  0.5766 -0.5305
 2876TIP3    H132823   4.097   6.698   9.790 -1.5244  0.6386  2.6812
 2876TIP3    H232824   4.196   6.670   9.901  2.6286 -0.1974 -0.9324
 2877TIP3   OH232825   0.610   0.976   9.569 -0.6116  0.4369  0.4633
 2877TIP3    H132826   0.528   0.953   9.614 -0.1642  0.1426  1.1382
 2877TIP3    H232827   0.638   0.895   9.527 -0.3746  0.4026  0.6920
 2878TIP3   OH232828   2.913   4.581   1.641 -0.2184 -0.0873  0.3082
 2878TIP3    H132829   2.988   4.557   1.695 -1.0440 -0.8657  1.1579
 2878TIP3    H232830   2.909   4.514   1.573  1.9783  1.9479 -2.0139
 2879TIP3   OH232831   1.187   4.463   7.636  0.7868  0.0739  0.0232
 2879TIP3    H132832   1.185   4.532   7.570 -2.6550 -0.8975 -1.1107
 2879TIP3    H232833   1.262   4.484   7.691  1.3262  3.2960 -1.7198
 2880TIP3   OH232834   1.388   4.767   1.138 -0.8101  0.2236 -0.1036
 2880TIP3    H132835   1.363   4.719   1.217 -1.1335  0.9259  0.2226
 2880TIP3    H232836   1.454   4.830   1.168 -0.6436  0.2230 -0.4647
 2881TIP3   OH232837   2.943   6.381   1.290  0.8087  0.1119 -0.0977
 2881TIP3    H132838   3.016   6.430   1.252  1.4292  0.2953  1.2686
 2881TIP3    H232839   2.938   6.301   1.237  1.1921  0.6558 -0.9776
 2882TIP3   OH232840   3.041   3.328   9.823  0.0032  0.0417 -0.0595
 2882TIP3    H132841   3.073   3.267   9.757 -2.2342  1.9916 -3.2554
 2882TIP3    H232842   2.983   3.275   9.878  0.7527 -1.3559 -0.5638
 2883TIP3   OH232843   4.638   6.407   9.584 -0.1115 -0.3716  0.1418
 2883TIP3    H132844   4.730   6.426   9.598 -0.0136 -0.1281 -0.8002
 2883TIP3    H232845   4.622   6.427   9.492 -1.2692  0.2884  0.4546
 2884TIP3   OH232846   5.531   3.246   8.191 -0.1474  0.5436  0.3894
 2884TIP3    H132847   5.531   3.198   8.108 -1.3186  0.6345  0.3181
 2884TIP3    H232848   5.505   3.181   8.256 -0.0886  0.6827  0.5521
 2885TIP3   OH232849   5.734   1.791   2.641  0.5847  0.2290  0.1186
 2885TIP3    H132850   5.660   1.736   2.666 -0.4907  1.4086 -0.3722
 2885TIP3    H232851   5.781   1.740   2.574  0.0997 -0.4317  0.2763
 2886TIP3   OH232852   0.013   2.334   7.710  0.9505  0.4823 -0.3153
 2886TIP3    H132853   0.045   2.278   7.639  1.3643  0.6007 -0.2266
 2886TIP3    H232854   0.092   2.359   7.757  0.8279  1.5801 -0.6726
 2887TIP3   OH232855   2.859   1.276   0.540 -0.3911 -0.0567  0.0689
 2887TIP3    H132856   2.907   1.233   0.611  0.0901  0.5379  0.1087
 2887TIP3    H232857   2.821   1.203   0.490  0.1224 -0.5187  0.3387
 2888TIP3   OH232858   2.691   0.024   8.050 -0.0782 -0.0228  0.5574
 2888TIP3    H132859   2.769   0.050   8.001  0.1109 -0.1272  0.8039
 2888TIP3    H232860   2.646  -0.037   7.992  0.1620 -0.1722  0.5271
 2889TIP3   OH232861   6.897   6.032   2.249 -0.4341  0.1212 -0.3490
 2889TIP3    H132862   6.943   6.007   2.329 -0.3743  0.7525 -0.1754
 2889TIP3    H232863   6.813   6.066   2.280 -0.9985 -0.9670 -0.6593
 2890TIP3   OH232864   2.134   0.919   7.463  0.3308  0.7073  0.6336
 2890TIP3    H132865   2.119   0.873   7.546 -0.2077  2.6665  1.6623
 2890TIP3    H232866   2.227   0.906   7.445  0.0155 -1.6259  0.3270
 2891TIP3   OH232867   5.168   3.604   6.584 -0.5130  0.2596  0.0015
 2891TIP3    H132868   5.084   3.594   6.539 -0.7936  1.8932  0.1004
 2891TIP3    H232869   5.218   3.525   6.561 -2.1649 -0.8790  0.1761
 2892TIP3   OH232870   4.166   5.792   8.198  0.2250  0.0217  0.2390
 2892TIP3    H132871   4.154   5.850   8.274  1.4987  2.3401 -1.1894
 2892TIP3    H232872   4.257   5.765   8.202 -0.0191 -0.8444  0.1634
 2893TIP3   OH232873   0.530   7.527   1.964  0.1399  0.2551 -0.4152
 2893TIP3    H132874   0.524   7.483   2.049  0.7853 -0.2359 -0.6168
 2893TIP3    H232875   0.475   7.605   1.973  0.4636  0.3777  0.5536
 2894TIP3   OH232876   7.078   6.646   6.995  0.0357  0.8476 -0.8568
 2894TIP3    H132877   7.017   6.708   7.038 -0.2280  0.3556 -0.5095
 2894TIP3    H232878   7.025   6.604   6.928 -0.3002 -0.2769  0.0743
 2895TIP3   OH232879   4.504   0.371   6.706 -0.1573  0.0871  0.4379
 2895TIP3    H132880   4.452   0.326   6.639  0.3148 -0.5496  0.4840
 2895TIP3    H232881   4.573   0.308   6.729  0.1259  0.5853  0.9885
 2896TIP3   OH232882   3.200   4.622   0.401 -0.4000  0.5278  0.4679
 2896TIP3    H132883   3.251   4.656   0.327 -0.4507  1.1434  0.7135
 2896TIP3    H232884   3.117   4.594   0.362 -0.1360  0.1382  0.1747
 2897TIP3   OH232885   2.123   3.239   8.252 -0.8568 -0.2186  0.4085
 2897TIP3    H132886   2.029   3.222   8.260 -0.9034  0.6394  1.8983
 2897TIP3    H232887   2.157   3.163   8.205 -2.5506  0.2727 -1.7636
 2898TIP3   OH232888   5.497   6.063   0.585  0.3969  0.7689  0.2128
 2898TIP3    H132889   5.570   6.032   0.638  0.4448  1.0171  0.2909
 2898TIP3    H232890   5.538   6.106   0.509  0.3376  1.1810  0.4103
 2899TIP3   OH232891   5.083   6.628   0.734  0.0843  0.5903  0.5690
 2899TIP3    H132892   5.126   6.666   0.657 -1.1313  0.0176 -0.4480
 2899TIP3    H232893   5.008   6.687   0.751  0.7330  1.1056  1.7788
 2900TIP3   OH232894   6.480   6.548   9.217  0.3821 -0.0889 -0.2335
 2900TIP3    H132895   6.426   6.575   9.291  2.5984  1.2664  1.0130
 2900TIP3    H232896   6.423   6.556   9.141 -1.4756  0.1401  1.1252
 2901TIP3   OH232897   2.907   6.310   8.786 -0.4886  0.0942  0.0847
 2901TIP3    H132898   2.984   6.366   8.772 -1.1723  0.8302 -0.9399
 2901TIP3    H232899   2.936   6.222   8.762  0.2844  0.2052  0.5963
 2902TIP3   OH232900   0.911   5.620   2.480  0.6993 -0.2450  0.2560
 2902TIP3    H132901   0.979   5.564   2.519  1.4712 -0.1762 -0.9373
 2902TIP3    H232902   0.829   5.584   2.511  1.1856 -1.9857 -0.3844
 2903TIP3   OH232903   3.454   4.256   7.133 -0.5481 -0.1717  0.7864
 2903TIP3    H132904   3.534   4.267   7.082 -1.7726 -1.7347 -1.6477
 2903TIP3    H232905   3.483   4.211   7.212  0.9966 -0.5806  0.0325
 2904TIP3   OH232906   3.316   4.913   9.972 -0.3074  0.3930  0.2225
 2904TIP3    H132907   3.390   4.967   9.998  0.2164 -1.4389  3.0133
 2904TIP3    H232908   3.354   4.847   9.914 -0.2137  0.7789 -0.1574
 2905TIP3   OH232909   2.369   7.212   1.458  0.3123  0.0032  0.4447
 2905TIP3    H132910   2.420   7.140   1.495  1.4952  1.1050  1.0224
 2905TIP3    H232911   2.367   7.194   1.364 -0.2681 -1.2975  0.6804
 2906TIP3   OH232912   0.752   3.001   2.863  0.2475 -0.6199  0.1560
 2906TIP3    H132913   0.680   3.015   2.925 -0.4288 -0.1971 -0.6964
 2906TIP3    H232914   0.823   3.056   2.895  0.2202 -1.1050  1.0569
 2907TIP3   OH232915   4.005   1.394   8.068  0.4404 -0.1328  0.6575
 2907TIP3    H132916   3.925   1.350   8.099  0.0829  0.6248  0.8421
 2907TIP3    H232917   4.075   1.332   8.087  0.4936  0.8319  4.5437
 2908TIP3   OH232918   4.510   0.442   9.367  0.8580 -0.3821  0.3610
 2908TIP3    H132919   4.558   0.518   9.334  2.6315 -0.4564  2.5098
 2908TIP3    H232920   4.476   0.470   9.452  0.7587 -1.7074  0.7751
 2909TIP3   OH232921   5.550   7.541   8.264  0.0615 -0.0932  0.0454
 2909TIP3    H132922   5.581   7.612   8.208 -2.7549  2.1597  1.0484
 2909TIP3    H232923   5.492   7.490   8.208 -0.0495  0.0676  0.0125
 2910TIP3   OH232924   6.927   4.001   9.931  0.0060  0.0153  0.3804
 2910TIP3    H132925   6.889   4.049   9.858  0.0133 -1.1137 -0.3881
 2910TIP3    H232926   6.995   4.058   9.966 -0.6464  0.9654  0.1219
 2911TIP3   OH232927   0.120   7.211   0.549  0.0915 -0.3464 -0.0524
 2911TIP3    H132928   0.194   7.158   0.581  0.6221  1.2326  1.5104
 2911TIP3    H232929   0.051   7.197   0.614 -0.0164  0.2984 -0.0242
 2912TIP3   OH232930   7.185   5.438   7.538  0.0048  0.3444 -0.0737
 2912TIP3    H132931   7.159   5.520   7.497  0.0670  1.2822  1.6548
 2912TIP3    H232932   7.281   5.437   7.528 -0.1323 -0.4420 -1.6635
 2913TIP3   OH232933   2.383   1.194   0.069  0.0945 -0.2897  0.1135
 2913TIP3    H132934   2.308   1.247   0.042 -0.4412 -0.2073  1.6579
 2913TIP3    H232935   2.404   1.226   0.157 -0.2688 -2.6053  1.1240
 2914TIP3   OH232936   6.922   6.190   0.795 -0.3575 -0.6273  0.0644
 2914TIP3    H132937   7.000   6.135   0.792 -0.1259 -0.3405  0.5661
 2914TIP3    H232938   6.953   6.277   0.768 -0.1153 -0.1061  1.8759
 2915TIP3   OH232939   5.777   4.619   8.384  0.3178  0.0450  0.3901
 2915TIP3    H132940   5.827   4.675   8.326 -1.7918  0.7504 -0.8860
 2915TIP3    H232941   5.724   4.679   8.437  0.8586 -0.6548  1.7865
 2916TIP3   OH232942   3.015   4.525   8.055 -0.2485  0.1148  0.0092
 2916TIP3    H132943   3.024   4.613   8.018 -0.2806 -0.8211 -2.4568
 2916TIP3    H232944   2.921   4.516   8.071 -0.3133  0.3607 -0.2186
 2917TIP3   OH232945   5.553   0.377   8.285  0.0044 -0.5477  0.2650
 2917TIP3    H132946   5.488   0.315   8.317 -1.3787  1.3711  1.3385
 2917TIP3    H232947   5.630   0.360   8.340 -0.1930 -1.5820  0.2521
 2918TIP3   OH232948   5.361   2.139   2.547 -0.0575  0.3683  0.1936
 2918TIP3    H132949   5.407   2.083   2.610  1.2310  0.8009 -0.3123
 2918TIP3    H232950   5.382   2.228   2.575 -1.2084  0.5973  0.3635
 2919TIP3   OH232951   2.402   4.946   2.537  0.0485  0.1416 -0.0552
 2919TIP3    H132952   2.324   4.911   2.493  0.0081 -0.4711  0.4987
 2919TIP3    H232953   2.367   4.989   2.615  0.4450 -2.5566  1.7385
 2920TIP3   OH232954   4.970   5.993   7.925 -0.2694 -0.6132 -0.2681
 2920TIP3    H132955   5.011   6.019   7.843  0.5263 -0.0291  0.3077
 2920TIP3    H232956   4.883   5.961   7.899 -0.5239  0.7445 -1.2128
 2921TIP3   OH232957   3.926   4.851   7.097 -0.1248 -0.3508  0.8211
 2921TIP3    H132958   3.831   4.862   7.087 -0.1477 -0.2010  1.1730
 2921TIP3    H232959   3.936   4.814   7.185  0.0305 -2.0974  0.1123
 2922TIP3   OH232960   0.348   4.932   1.794 -0.1169  0.2790  0.5153
 2922TIP3    H132961   0.296   4.872   1.740 -1.1526  0.7952  0.9047
 2922TIP3    H232962   0.301   5.015   1.789  1.5970  1.2568 -0.4862
 2923TIP3   OH232963   1.455   2.786   2.100 -0.2905 -0.1595 -0.1219
 2923TIP3    H132964   1.463   2.880   2.081 -0.7492  0.0482  0.6514
 2923TIP3    H232965   1.543   2.751   2.086 -0.0876  0.4077 -0.2977
 2924TIP3   OH232966   4.634   7.040   0.699  0.2019 -0.1940 -0.0543
 2924TIP3    H132967   4.689   7.036   0.621 -0.1958 -1.0295 -0.3002
 2924TIP3    H232968   4.637   7.132   0.725  0.4722  0.0650 -0.9592
 2925TIP3   OH232969   2.449   4.013   7.038  0.3833  0.6289  0.0241
 2925TIP3    H132970   2.443   3.945   7.105  2.5604 -0.5860 -0.9267
 2925TIP3    H232971   2.428   3.969   6.956  0.2947  1.4759 -0.4224
 2926TIP3   OH232972   1.606   1.276   0.456  0.0255 -0.4321 -0.2238
 2926TIP3    H132973   1.604   1.314   0.544  1.0071 -0.1277 -0.3214
 2926TIP3    H232974   1.516   1.283   0.425 -0.2344 -0.1162  0.5792
 2927TIP3   OH232975   2.010   3.553   8.846 -0.2098  0.0697 -0.4643
 2927TIP3    H132976   2.092   3.511   8.823  0.3325  0.2611  0.9979
 2927TIP3    H232977   2.027   3.647   8.836 -0.4198  0.0834 -0.6919
 2928TIP3   OH232978   5.733   5.260   7.286 -0.6312 -0.3717  0.4468
 2928TIP3    H132979   5.654   5.271   7.234 -0.0648 -0.3976 -0.4486
 2928TIP3    H232980   5.785   5.196   7.238  1.0171  1.4447 -0.3350
 2929TIP3   OH232981   5.491   7.446   9.367 -0.8690  0.5805  0.3811
 2929TIP3    H132982   5.427   7.511   9.396 -0.3322  0.6628  1.4396
 2929TIP3    H232983   5.576   7.489   9.377 -0.6483  0.8278 -1.9376
 2930TIP3   OH232984   0.907   2.402   7.515  0.1285  0.3103 -0.4900
 2930TIP3    H132985   0.915   2.312   7.485 -0.9027  0.3931 -1.0385
 2930TIP3    H232986   0.935   2.399   7.606  0.5377 -0.4703 -0.6280
 2931TIP3   OH232987   4.326   7.616   6.731 -0.1087 -0.1534 -0.4729
 2931TIP3    H132988   4.255   7.568   6.775 -1.6717  1.4709 -1.1308
 2931TIP3    H232989   4.405   7.563   6.749 -1.3465 -1.6599  0.8400
 2932TIP3   OH232990   6.357   2.958   8.296  0.6034 -0.2034  0.7598
 2932TIP3    H132991   6.425   2.931   8.234 -0.0342 -1.8570  0.7054
 2932TIP3    H232992   6.313   2.876   8.319  0.1927  0.5095  2.6692
 2933TIP3   OH232993   0.288   7.085   2.629  0.0579 -0.3563  0.2779
 2933TIP3    H132994   0.349   7.019   2.663 -0.9472 -0.3382  2.2553
 2933TIP3    H232995   0.248   7.124   2.707 -2.6662 -0.5404 -0.8985
 2934TIP3   OH232996   4.668   6.642   2.102  0.1295 -0.7130  0.0702
 2934TIP3    H132997   4.755   6.681   2.109 -0.2774  0.0938  0.8193
 2934TIP3    H232998   4.609   6.708   2.139 -1.1494 -0.0737 -2.8162
 2935TIP3   OH232999   3.340   5.040   9.331 -0.0324 -0.6244  0.6542
 2935TIP3    H133000   3.358   5.010   9.420  0.0034  0.8004  1.1583
 2935TIP3    H233001   3.395   5.117   9.320 -1.6059  0.4948  0.1943
 2936TIP3   OH233002   4.116   3.339   7.326  0.1340  0.0181  0.1919
 2936TIP3    H133003   4.137   3.430   7.307  1.0831  0.1556  1.7268
 2936TIP3    H233004   4.122   3.294   7.241  1.2630  1.0834 -0.3099
 2937TIP3   OH233005   2.532   1.218   2.394  0.1341  0.1157  0.3848
 2937TIP3    H133006   2.484   1.135   2.396  2.6304 -1.5066 -1.0096
 2937TIP3    H233007   2.611   1.202   2.446  0.9234  1.4222 -0.3274
 2938TIP3   OH233008   3.773   3.258   1.156  0.1247 -0.3325 -0.4244
 2938TIP3    H133009   3.685   3.222   1.164  0.1558 -0.1426  1.1918
 2938TIP3    H233010   3.775   3.330   1.219  0.9969  0.6039 -1.4771
 2939TIP3   OH233011   2.113   1.193   8.768 -0.1264  0.1961  0.4767
 2939TIP3    H133012   2.092   1.267   8.825 -1.2014 -1.0918  1.8337
 2939TIP3    H233013   2.187   1.150   8.811 -1.1639 -0.9850  1.1527
 2940TIP3   OH233014   1.934   2.975   8.324 -0.1237  0.3946  0.4261
 2940TIP3    H133015   1.842   2.951   8.325  0.3063 -1.4961 -0.8477
 2940TIP3    H233016   1.964   2.960   8.414 -0.7904 -0.0577  0.5723
 2941TIP3   OH233017   3.435   3.636   2.188  0.8043 -0.0761 -0.2162
 2941TIP3    H133018   3.370   3.705   2.203  1.0443 -0.0259  0.6281
 2941TIP3    H233019   3.469   3.653   2.100  1.6703  1.5470  0.4033
 2942TIP3   OH233020   0.394   4.603   9.657  0.0768  0.0300 -0.2335
 2942TIP3    H133021   0.360   4.639   9.575 -1.6141  0.0418  0.4378
 2942TIP3    H233022   0.478   4.564   9.633  0.1622  1.0502 -1.7335
 2943TIP3   OH233023   4.823   5.780   6.962  0.9947  0.2963 -0.3545
 2943TIP3    H133024   4.735   5.814   6.946  0.8559  0.4271  0.5935
 2943TIP3    H233025   4.852   5.748   6.877  1.0844  2.6604 -1.3053
 2944TIP3   OH233026   3.094   4.005   1.448 -0.3879 -0.5606 -0.2056
 2944TIP3    H133027   3.067   3.935   1.508 -1.0350 -1.1129 -1.1342
 2944TIP3    H233028   3.013   4.038   1.410 -0.2299  1.5426  1.0807
 2945TIP3   OH233029   4.955   3.123   7.268  0.2167 -0.3501  0.4470
 2945TIP3    H133030   5.026   3.085   7.217  1.0330 -1.5151  2.3053
 2945TIP3    H233031   4.965   3.217   7.258  0.5505 -0.5388 -1.2111
 2946TIP3   OH233032   6.072   2.026   1.313 -0.3111 -0.3312  0.0102
 2946TIP3    H133033   6.040   2.108   1.351  0.3143 -0.6229  1.2216
 2946TIP3    H233034   6.129   2.054   1.242  0.0146  0.2983  0.5093
 2947TIP3   OH233035   5.786   0.906   7.902  0.2177  0.3864  0.4517
 2947TIP3    H133036   5.867   0.949   7.928  1.0921 -1.2710  0.6319
 2947TIP3    H233037   5.812   0.815   7.884 -1.3333  0.1878 -0.9896
 2948TIP3   OH233038   2.694   7.166   2.285 -0.0006 -0.0063 -0.5251
 2948TIP3    H133039   2.748   7.192   2.211 -1.9842  3.0002 -1.1145
 2948TIP3    H233040   2.612   7.134   2.246 -0.0822 -0.9433  0.3617
 2949TIP3   OH233041   1.767   7.161   7.908 -0.1265 -0.3800 -0.2015
 2949TIP3    H133042   1.746   7.213   7.985 -0.2922  0.2887 -0.6854
 2949TIP3    H233043   1.812   7.223   7.849 -1.9706 -0.2671 -1.5676
 2950TIP3   OH233044   0.159   6.682   8.908 -0.8756 -0.1997 -0.6982
 2950TIP3    H133045   0.190   6.596   8.880 -0.8844  0.0782 -1.5963
 2950TIP3    H233046   0.222   6.710   8.974 -1.1967 -1.1394  0.0258
 2951TIP3   OH233047   3.714   4.661   7.343  0.4137  0.3666  0.2218
 2951TIP3    H133048   3.694   4.754   7.352  1.9097  0.7563 -0.1907
 2951TIP3    H233049   3.808   4.658   7.331  0.2289 -1.1064 -1.1527
 2952TIP3   OH233050   7.214   6.995   0.267 -0.1697  0.1811 -0.2954
 2952TIP3    H133051   7.237   7.036   0.184 -0.3205 -0.1528 -0.5027
 2952TIP3    H233052   7.247   6.905   0.259 -0.6848 -0.0160 -0.2154
 2953TIP3   OH233053   0.105   1.021   8.976  0.2458  0.4351 -0.2725
 2953TIP3    H133054   0.177   0.959   8.980  0.7276  1.0326  0.4690
 2953TIP3    H233055   0.099   1.044   8.883  1.7218  1.1888 -0.2156
 2954TIP3   OH233056   7.036   3.166   8.939  0.0007  0.1075  0.4400
 2954TIP3    H133057   7.027   3.078   8.977 -0.0533 -1.1335 -2.2675
 2954TIP3    H233058   6.950   3.206   8.950  0.4104  0.4569  2.9981
 2955TIP3   OH233059   3.388   5.881   9.513  0.2929  0.6575  0.1476
 2955TIP3    H133060   3.448   5.887   9.438 -0.5219  1.5553 -0.4608
 2955TIP3    H233061   3.385   5.970   9.547 -0.3187  0.5138  0.4724
 2956TIP3   OH233062   6.778   2.690   9.265 -0.5975 -0.2695  0.3387
 2956TIP3    H133063   6.851   2.738   9.303 -0.2528 -0.8361  0.4064
 2956TIP3    H233064   6.723   2.666   9.340 -1.5705  1.2799  0.1761
 2957TIP3   OH233065   1.330   6.602   8.697  0.5286 -0.1169 -0.5067
 2957TIP3    H133066   1.387   6.546   8.750 -1.4319 -1.3117  0.4483
 2957TIP3    H233067   1.291   6.662   8.760 -1.0726 -0.8952 -0.7087
 2958TIP3   OH233068   2.210   0.573   1.341 -0.2460  0.5782  0.5425
 2958TIP3    H133069   2.203   0.580   1.436 -2.7156 -1.4827  0.6142
 2958TIP3    H233070   2.301   0.548   1.326  0.6297  2.4375  2.1699
 2959TIP3   OH233071   3.893   0.365   8.611  0.0409  0.5732 -0.6805
 2959TIP3    H133072   3.879   0.347   8.518  1.3699  1.6983 -1.1178
 2959TIP3    H233073   3.820   0.320   8.654  0.6481 -1.9256 -2.0388
 2960TIP3   OH233074   2.787   3.168   9.504  0.2120  0.2238  0.1108
 2960TIP3    H133075   2.707   3.182   9.554 -1.0220 -0.0381 -1.6855
 2960TIP3    H233076   2.776   3.081   9.465  2.0760 -0.4776  1.0061
 2961TIP3   OH233077   6.628   5.524   7.739 -0.0532 -0.4471  0.1590
 2961TIP3    H133078   6.679   5.553   7.815  0.9554 -2.4180  0.3154
 2961TIP3    H233079   6.538   5.549   7.760  0.4186  0.3759  1.3209
 2962TIP3   OH233080   2.191   5.083   7.193  0.1573 -0.3238 -0.4584
 2962TIP3    H133081   2.115   5.142   7.197  1.7292  1.7921  0.3561
 2962TIP3    H233082   2.190   5.049   7.104 -1.1689  0.4720 -0.7838
 2963TIP3   OH233083   5.444   5.207   9.625 -0.0175 -0.2340 -0.0518
 2963TIP3    H133084   5.506   5.191   9.554  0.8733  0.5917  0.5110
 2963TIP3    H233085   5.480   5.282   9.672 -1.3258  0.1236  0.4398
 2964TIP3   OH233086   4.324   7.163   1.557  0.3327 -0.0982  0.8290
 2964TIP3    H133087   4.361   7.243   1.594 -0.1692  1.1058 -1.1691
 2964TIP3    H233088   4.378   7.093   1.595  3.8216  1.4505 -0.8101
 2965TIP3   OH233089   1.551   6.348   8.384  0.3412 -0.9748  0.1911
 2965TIP3    H133090   1.506   6.423   8.345  0.8735 -0.1268  1.1648
 2965TIP3    H233091   1.484   6.305   8.438  0.5311  0.0050  1.2537
 2966TIP3   OH233092   4.878   0.278   8.652 -0.2850  0.1029 -0.3311
 2966TIP3    H133093   4.939   0.244   8.717  1.2053  1.1488 -1.1087
 2966TIP3    H233094   4.930   0.287   8.572 -1.4411  1.0918 -1.0190
 2967TIP3   OH233095   5.617   4.443   8.730  0.6636 -0.7543 -0.1229
 2967TIP3    H133096   5.527   4.462   8.758  0.4254 -2.0610  0.0536
 2967TIP3    H233097   5.656   4.530   8.717 -0.5916 -0.1583 -0.1391
 2968TIP3   OH233098   6.441   7.223   9.844 -0.0336 -0.2165  0.1400
 2968TIP3    H133099   6.400   7.138   9.864  0.1836  0.3924  3.8611
 2968TIP3    H233100   6.371   7.287   9.859  0.5642  0.4448  0.1111
 2969TIP3   OH233101   0.691   3.417   9.165 -0.0987 -0.2055  0.2927
 2969TIP3    H133102   0.718   3.509   9.162  0.1666 -0.2105  1.6886
 2969TIP3    H233103   0.611   3.418   9.219 -1.0534 -0.6100 -1.0538
 2970TIP3   OH233104   0.224   0.727   9.311  0.1206 -0.1390  0.2300
 2970TIP3    H133105   0.192   0.658   9.253 -0.4922  0.0256  0.3619
 2970TIP3    H233106   0.189   0.705   9.397  0.8838 -0.2873  0.5121
 2971TIP3   OH233107   1.598   3.564   7.953  0.1768  0.3678 -0.0957
 2971TIP3    H133108   1.681   3.610   7.967 -0.2173  0.3486  2.8242
 2971TIP3    H233109   1.617   3.473   7.977 -0.6625  0.3553  0.5502
 2972TIP3   OH233110   4.628   6.866   8.674 -0.7635  0.0452  0.0473
 2972TIP3    H133111   4.591   6.919   8.604 -0.2640 -0.2771 -0.4619
 2972TIP3    H233112   4.719   6.853   8.650  0.1533  2.0754  2.0194
 2973TIP3   OH233113   6.497   2.285   1.474  0.1422 -0.7475  0.2472
 2973TIP3    H133114   6.429   2.223   1.447  0.0597 -0.8069  0.5880
 2973TIP3    H233115   6.457   2.336   1.544 -0.0679  0.2564 -0.5802
 2974TIP3   OH233116   4.893   5.152   0.138 -0.2651 -0.4075 -0.4951
 2974TIP3    H133117   4.814   5.122   0.094  0.1595 -1.2983 -0.6718
 2974TIP3    H233118   4.957   5.082   0.124  0.9641  0.8590 -1.4754
 2975TIP3   OH233119   5.717   0.426   8.892 -0.4320 -0.0391 -0.8133
 2975TIP3    H133120   5.688   0.498   8.947  0.1646 -2.0189  2.3361
 2975TIP3    H233121   5.638   0.376   8.872 -0.5232  0.1257 -0.8571
 2976TIP3   OH233122   3.310   5.394   1.146 -0.7208 -0.5637  0.1137
 2976TIP3    H133123   3.223   5.370   1.178 -0.5955  1.8769  2.6402
 2976TIP3    H233124   3.297   5.481   1.107  0.6182 -0.0094  0.8574
 2977TIP3   OH233125   0.905   6.577   7.933  0.0550 -0.4317 -0.0590
 2977TIP3    H133126   0.982   6.579   7.877  0.1417  0.6340  0.0754
 2977TIP3    H233127   0.867   6.490   7.919 -0.6455  0.2324 -2.7132
 2978TIP3   OH233128   7.387   0.991   8.856 -0.1793 -0.3651 -0.2758
 2978TIP3    H133129   7.438   0.920   8.816  0.7742  0.8096 -1.2463
 2978TIP3    H233130   7.437   1.018   8.932  1.2067  1.3684 -1.7108
 2979TIP3   OH233131   2.916   7.180   2.154  0.0024  0.2079 -0.0002
 2979TIP3    H133132   2.989   7.151   2.100  1.9217  1.7268  1.6142
 2979TIP3    H233133   2.888   7.263   2.114 -1.9274 -1.0768 -1.4883
 2980TIP3   OH233134   0.047   1.345   8.581 -0.1221 -0.1241  0.0114
 2980TIP3    H133135   0.066   1.438   8.578 -1.6477  0.2865  1.4746
 2980TIP3    H233136   0.044   1.318   8.489  2.4861  0.7345 -0.4207
 2981TIP3   OH233137   7.580   3.626   8.512  0.5924 -0.2491 -0.2831
 2981TIP3    H133138   7.534   3.563   8.568  0.5485 -0.1608 -0.2207
 2981TIP3    H233139   7.607   3.574   8.436  1.0750 -0.4820  0.0419
 2982TIP3   OH233140   5.755   2.398   2.682 -0.0988  0.0154  0.2081
 2982TIP3    H133141   5.840   2.428   2.714  0.3738 -0.8227 -0.2261
 2982TIP3    H233142   5.771   2.374   2.590 -1.4460  2.4417 -0.7412
 2983TIP3   OH233143   2.174   5.866   7.402 -0.0370 -0.2184  0.3701
 2983TIP3    H133144   2.224   5.925   7.345  0.5725 -1.6084 -0.6265
 2983TIP3    H233145   2.121   5.923   7.457 -3.0499  1.2584 -3.6387
 2984TIP3   OH233146   6.272   3.146   7.260 -0.0761 -0.2446  0.0351
 2984TIP3    H133147   6.217   3.122   7.334  0.1781 -0.1337  0.2633
 2984TIP3    H233148   6.349   3.089   7.268 -0.9683 -1.7205 -1.3295
 2985TIP3   OH233149   2.865   3.037   7.513 -0.3497 -0.0741  0.8430
 2985TIP3    H133150   2.829   3.124   7.531  0.7011  0.8432 -1.2146
 2985TIP3    H233151   2.842   3.020   7.422  2.3563 -0.4028  0.1300
 2986TIP3   OH233152   5.541   0.989   0.919 -0.0838 -0.1992 -0.1173
 2986TIP3    H133153   5.487   1.032   0.852 -1.0284 -1.6515 -0.3374
 2986TIP3    H233154   5.631   1.006   0.892 -0.4425  0.4147 -0.9824
 2987TIP3   OH233155   2.329   2.188   2.480  0.9178  0.2848  0.6072
 2987TIP3    H133156   2.357   2.278   2.495 -1.0956  1.4642 -2.0349
 2987TIP3    H233157   2.236   2.188   2.503  0.9438 -1.2019  0.7940
 2988TIP3   OH233158   4.089   7.067   2.564  0.1085 -0.2840  0.0325
 2988TIP3    H133159   4.117   7.047   2.654 -0.8501  0.2845  0.4712
 2988TIP3    H233160   4.109   6.987   2.515 -1.1429 -1.3486  1.1634
 2989TIP3   OH233161   4.483   1.974   8.371  0.1021  0.1914  0.2359
 2989TIP3    H133162   4.500   2.066   8.348 -0.1078  1.1597  3.5059
 2989TIP3    H233163   4.392   1.960   8.347  1.1341 -0.5873 -4.0856
 2990TIP3   OH233164   6.806   5.483   0.038 -0.1320  0.2937 -0.1383
 2990TIP3    H133165   6.832   5.391   0.042  1.1921  0.6436 -0.0931
 2990TIP3    H233166   6.887   5.532   0.056 -0.4837  1.4861 -1.5344
 2991TIP3   OH233167   3.342   2.392   0.276 -0.6806 -0.5005 -0.4188
 2991TIP3    H133168   3.249   2.372   0.292 -0.9740  1.0187 -0.0686
 2991TIP3    H233169   3.372   2.433   0.358  0.1973 -0.6279 -0.6659
 2992TIP3   OH233170   7.384   6.050   2.490  0.1036  0.0043  0.1473
 2992TIP3    H133171   7.422   6.137   2.504  0.6869 -0.4560  1.7192
 2992TIP3    H233172   7.347   6.026   2.576 -0.2636 -1.1922 -0.3218
 2993TIP3   OH233173   2.572   7.439   0.647 -0.5969  0.2464  0.1243
 2993TIP3    H133174   2.581   7.531   0.621 -0.4899  0.1981 -0.0096
 2993TIP3    H233175   2.482   7.431   0.678 -0.6645  0.3513 -0.0463
 2994TIP3   OH233176   3.344   6.693   7.901  0.5571 -0.3911  0.1746
 2994TIP3    H133177   3.410   6.731   7.959 -0.2107 -1.4804  1.8548
 2994TIP3    H233178   3.370   6.602   7.892  0.6938 -0.2323 -1.3093
 2995TIP3   OH233179   4.890   0.185   0.193 -0.2248  0.7798 -0.4116
 2995TIP3    H133180   4.983   0.208   0.201 -0.2699  0.8164  0.0206
 2995TIP3    H233181   4.891   0.090   0.176 -0.0871  0.8885 -1.0414
 2996TIP3   OH233182   3.827   0.882   0.805  0.4987 -0.0668 -0.2869
 2996TIP3    H133183   3.852   0.954   0.864  2.9607 -3.4535  3.3789
 2996TIP3    H233184   3.863   0.804   0.847 -3.5695 -3.8043 -2.9039
 2997TIP3   OH233185   1.766   3.548   9.096  0.0575  0.1080 -0.3409
 2997TIP3    H133186   1.822   3.529   9.021  0.8909  0.7683  0.1069
 2997TIP3    H233187   1.823   3.591   9.159 -0.8894  0.5618  0.2315
 2998TIP3   OH233188   0.562   0.432   9.284 -0.1452  0.0178 -0.2517
 2998TIP3    H133189   0.565   0.338   9.269  0.6111  0.0613 -0.4332
 2998TIP3    H233190   0.653   0.456   9.305 -0.4677  0.5830  0.5633
 2999TIP3   OH233191   3.413   7.540   0.961 -0.4318 -0.0608 -0.0923
 2999TIP3    H133192   3.476   7.478   0.925 -1.6431 -2.5374  1.7318
 2999TIP3    H233193   3.400   7.511   1.052 -3.7133  0.6483 -0.2082
 3000TIP3   OH233194   7.620   2.604   1.040 -0.3854 -0.1763 -0.3052
 3000TIP3    H133195   7.597   2.607   0.947  0.2867 -1.0159 -0.5118
 3000TIP3    H233196   7.586   2.686   1.076 -1.7370 -0.3725 -1.0404
 3001TIP3   OH233197   5.439   6.392   0.898  0.0005 -0.0681  0.4499
 3001TIP3    H133198   5.478   6.335   0.964 -0.1947 -1.3143 -0.4843
 3001TIP3    H233199   5.489   6.375   0.819 -0.6881  0.3408 -0.0835
 3002TIP3   OH233200   6.823   6.161   3.348 -0.2506  0.6050 -0.2230
 3002TIP3    H133201   6.909   6.170   3.388 -1.3701  1.6234  2.1944
 3002TIP3    H233202   6.808   6.244   3.304 -0.5749  1.0693  0.7180
 3003TIP3   OH233203   2.998   4.894   2.358  0.4017 -0.0644 -0.0742
 3003TIP3    H133204   2.930   4.952   2.392 -1.1611  0.4020 -3.6164
 3003TIP3    H233205   2.998   4.819   2.418 -1.3935  1.1042  1.4764
 3004TIP3   OH233206   4.335   6.203   1.689 -0.8913 -0.2473  0.0086
 3004TIP3    H133207   4.427   6.179   1.697 -0.4922  1.1274 -0.1743
 3004TIP3    H233208   4.327   6.238   1.600 -1.7763 -1.0527 -0.2449
 3005TIP3   OH233209   7.574   6.442   7.993  0.7101  0.3471  0.0425
 3005TIP3    H133210   7.595   6.518   8.048 -0.7437  0.0572  1.0791
 3005TIP3    H233211   7.656   6.392   7.988  1.7575  2.0806 -0.8749
 3006TIP3   OH233212   4.499   2.904   9.384 -0.1431  0.3321  0.2857
 3006TIP3    H133213   4.553   2.950   9.320  0.4481  1.1073  1.3026
 3006TIP3    H233214   4.543   2.820   9.398  1.4744  1.3670  1.8812
 3007TIP3   OH233215   6.160   0.858   8.417  0.1110 -0.0608 -0.0181
 3007TIP3    H133216   6.120   0.945   8.414 -2.4060 -1.1733 -1.1410
 3007TIP3    H233217   6.173   0.842   8.510 -0.9568  0.8571  0.3194
 3008TIP3   OH233218   0.042   4.468   9.945 -0.1969 -0.2588  0.3143
 3008TIP3    H133219   0.134   4.454   9.927 -0.5963 -0.6015 -1.6736
 3008TIP3    H233220   0.037   4.482  10.040  1.6193 -2.1945  0.7389
 3009TIP3   OH233221   3.696   1.365   8.549  0.1616  1.0990 -0.3556
 3009TIP3    H133222   3.698   1.325   8.462 -2.5180 -1.1314  0.4575
 3009TIP3    H233223   3.605   1.390   8.562 -0.0132 -0.6000  2.5357
 3010TIP3   OH233224   0.124   3.538   2.471 -0.0347  0.3594  0.7227
 3010TIP3    H133225   0.209   3.538   2.427 -0.1367 -0.3758  0.5050
 3010TIP3    H233226   0.099   3.630   2.477 -0.1703  0.4633 -1.0581
 3011TIP3   OH233227   5.580   7.347   2.260  0.0126  0.3311 -0.0680
 3011TIP3    H133228   5.599   7.389   2.176  1.4713  0.5003  0.3116
 3011TIP3    H233229   5.525   7.272   2.238 -1.1140  1.3745 -0.9639
 3012TIP3   OH233230   7.610   0.402   0.269  0.0491 -0.8315 -0.1423
 3012TIP3    H133231   7.649   0.453   0.340 -1.5557 -0.3319  0.4416
 3012TIP3    H233232   7.599   0.465   0.198 -0.3982 -0.7566 -0.0137
 3013TIP3   OH233233   3.882   5.329   8.629  0.2428  0.1510 -0.1524
 3013TIP3    H133234   3.814   5.328   8.697  0.9148 -0.2424  0.5226
 3013TIP3    H233235   3.894   5.422   8.609  0.9213  0.3757  1.1800
 3014TIP3   OH233236   6.261   7.543   2.316 -0.1220 -0.1599 -0.6248
 3014TIP3    H133237   6.192   7.609   2.304 -0.5403 -0.7466 -1.5980
 3014TIP3    H233238   6.336   7.578   2.268  0.2102  0.3882  0.2731
 3015TIP3   OH233239   4.464   0.826   1.599  0.1684  0.1265 -0.1176
 3015TIP3    H133240   4.468   0.747   1.653 -1.7268 -0.2505 -0.4426
 3015TIP3    H233241   4.380   0.819   1.554 -0.0654  2.3644 -0.1137
 3016TIP3   OH233242   3.831   0.892   3.005  0.3552 -0.3072  0.2848
 3016TIP3    H133243   3.750   0.932   3.036  0.8971 -0.2591  1.6846
 3016TIP3    H233244   3.828   0.802   3.038  0.8570 -0.3103  0.3322
 3017TIP3   OH233245   1.432   2.103   8.430  0.0876  0.2025  0.1290
 3017TIP3    H133246   1.494   2.082   8.500 -1.8981 -0.4112  1.8087
 3017TIP3    H233247   1.415   2.019   8.388 -1.4633 -0.1265  1.3344
 3018TIP3   OH233248   6.959   0.518   9.679 -0.2443 -0.5748  0.7445
 3018TIP3    H133249   6.954   0.451   9.748  0.9223 -0.5236  0.8990
 3018TIP3    H233250   7.049   0.551   9.684 -0.4544  0.1696 -0.1196
 3019TIP3   OH233251   6.007   0.025   1.945 -0.7880 -0.8398  0.2855
 3019TIP3    H133252   5.946  -0.028   1.996 -1.8891 -0.3838 -0.5427
 3019TIP3    H233253   5.982   0.012   1.854  0.7805 -1.1641 -0.1258
 3020TIP3   OH233254   6.790   0.496   9.078  0.2213  0.1150 -0.2129
 3020TIP3    H133255   6.798   0.590   9.093  0.2158  0.3414 -1.4913
 3020TIP3    H233256   6.752   0.462   9.159  0.5126  1.1606  0.3840
 3021TIP3   OH233257   5.840   1.891   2.877  0.1435 -0.4595 -0.8195
 3021TIP3    H133258   5.892   1.811   2.882 -2.4606 -2.1983  2.5887
 3021TIP3    H233259   5.789   1.881   2.797  2.2685 -0.4795 -2.2392
 3022TIP3   OH233260   4.627   4.072   8.925  0.2042  0.4220 -0.0004
 3022TIP3    H133261   4.660   4.043   9.010 -0.4000 -2.5577 -0.6909
 3022TIP3    H233262   4.706   4.083   8.871  0.4482 -0.5731  0.1321
 3023TIP3   OH233263   5.121   2.310   7.239  0.0792 -0.2787 -0.1218
 3023TIP3    H133264   5.213   2.286   7.253  0.2149  0.7986  1.0759
 3023TIP3    H233265   5.074   2.266   7.310 -0.2123 -0.2086 -0.2716
 3024TIP3   OH233266   5.750   6.147   0.483  0.7209  0.2785  0.1823
 3024TIP3    H133267   5.714   6.072   0.436  0.2227 -0.8404  2.2353
 3024TIP3    H233268   5.820   6.180   0.426 -0.9372  0.1046 -2.1017
 3025TIP3   OH233269   5.843   4.973   8.468 -0.2092  0.4169 -0.5395
 3025TIP3    H133270   5.764   4.924   8.490 -0.5467  0.7269 -1.0529
 3025TIP3    H233271   5.879   4.928   8.392  1.5710 -1.3332  1.2270
 3026TIP3   OH233272   1.120   5.600   8.893 -0.0394 -0.3559  0.4607
 3026TIP3    H133273   1.186   5.599   8.963 -0.5733  3.1831  1.2329
 3026TIP3    H233274   1.039   5.573   8.935  0.0460 -0.2429  0.6995
 3027TIP3   OH233275   0.440   1.242   7.960  0.2038 -0.0158 -0.6979
 3027TIP3    H133276   0.513   1.266   8.016 -0.8260 -1.0980  1.2286
 3027TIP3    H233277   0.472   1.256   7.870  2.3401  0.6084  0.1081
 3028TIP3   OH233278   3.903   2.060   0.858  0.5955 -0.1153 -0.0041
 3028TIP3    H133279   3.839   2.034   0.792  0.8992 -0.0374 -0.3301
 3028TIP3    H233280   3.863   2.136   0.901  0.6394  0.1722 -0.4675
 3029TIP3   OH233281   3.183   4.961   7.316 -0.0528 -0.1481 -0.0808
 3029TIP3    H133282   3.220   4.905   7.249 -2.0331 -0.2112 -1.2001
 3029TIP3    H233283   3.254   5.021   7.339  1.4016 -1.6432 -0.4754
 3030TIP3   OH233284   3.761   2.920   2.311  0.4645 -0.3693  0.2950
 3030TIP3    H133285   3.715   2.952   2.234 -0.5914  0.1436  1.1192
 3030TIP3    H233286   3.854   2.919   2.285  0.5995  3.1870  0.1229
 3031TIP3   OH233287   0.870   1.985   1.275  0.4074  0.0605 -0.0901
 3031TIP3    H133288   0.885   2.040   1.352 -0.1548 -0.5216  0.4454
 3031TIP3    H233289   0.871   1.895   1.309 -2.1407 -0.1242 -0.3413
 3032TIP3   OH233290   5.238   0.602   7.389  0.1514  0.2885  0.5335
 3032TIP3    H133291   5.317   0.639   7.349  0.0699 -0.3853 -0.2677
 3032TIP3    H233292   5.173   0.671   7.382  0.5640  0.7291  0.8968
 3033TIP3   OH233293   6.782   2.398   7.957  0.6840 -0.0634  0.5610
 3033TIP3    H133294   6.760   2.407   8.050  0.8155 -1.1308  0.7084
 3033TIP3    H233295   6.732   2.322   7.928 -0.0248  0.7772 -0.4753
 3034TIP3   OH233296   6.303   1.809   0.971 -0.3716  0.1449  0.1810
 3034TIP3    H133297   6.312   1.753   0.894 -2.6944 -0.2117  0.1074
 3034TIP3    H233298   6.243   1.762   1.028  1.0003  0.5837  2.0973
 3035TIP3   OH233299   4.094   2.597   9.205  0.0290  0.2955  0.3885
 3035TIP3    H133300   4.134   2.660   9.145  4.1793 -1.9236  0.4858
 3035TIP3    H233301   4.082   2.646   9.286  1.5498  1.4392 -0.0216
 3036TIP3   OH233302   4.720   1.828   2.607 -0.3377  0.1053 -0.2379
 3036TIP3    H133303   4.656   1.893   2.578  0.7996  0.8357 -1.2005
 3036TIP3    H233304   4.784   1.824   2.536  0.2268 -1.2488  0.3068
 3037TIP3   OH233305   1.454   6.467   1.315  0.6630 -0.0891 -0.1236
 3037TIP3    H133306   1.497   6.412   1.249  0.5731  0.0576 -0.3066
 3037TIP3    H233307   1.409   6.534   1.264  0.9697  0.2989  0.1065
 3038TIP3   OH233308   7.353   3.155   7.938 -0.0050 -0.3761 -0.0988
 3038TIP3    H133309   7.273   3.136   7.987  0.0081 -0.6636 -0.1867
 3038TIP3    H233310   7.408   3.078   7.951 -0.7386 -1.3164 -2.0821
 3039TIP3   OH233311   5.901   2.161   9.096 -0.0002  0.2875  0.2380
 3039TIP3    H133312   5.829   2.206   9.052 -0.3197  0.7859  1.2206
 3039TIP3    H233313   5.934   2.225   9.159 -0.1636 -0.6733  1.3516
 3040TIP3   OH233314   0.070   7.646   9.445 -0.2145 -0.0039 -0.0061
 3040TIP3    H133315   0.027   7.591   9.511  1.9330  0.0696  1.5396
 3040TIP3    H233316  -0.002   7.674   9.388 -1.6282 -3.1778 -0.0278
 3041TIP3   OH233317   2.384   2.452   0.089 -0.1930  0.0189  0.1884
 3041TIP3    H133318   2.421   2.365   0.100  1.8564  0.6418 -1.2004
 3041TIP3    H233319   2.312   2.456   0.152  1.6343 -1.5398  2.5297
 3042TIP3   OH233320   4.316   4.076   8.641  0.2875  0.3612  0.0003
 3042TIP3    H133321   4.342   4.087   8.550  1.4350  0.1696  0.2853
 3042TIP3    H233322   4.331   3.983   8.660 -1.4784  0.0281 -0.0513
 3043TIP3   OH233323   0.759   1.693   1.212 -0.1198 -0.1897  0.1808
 3043TIP3    H133324   0.845   1.720   1.179 -1.0453  2.2427 -0.5177
 3043TIP3    H233325   0.700   1.706   1.138 -1.3600 -0.0999  1.1453
 3044TIP3   OH233326   3.474   6.109   7.867  0.1215  0.0633  0.3705
 3044TIP3    H133327   3.560   6.137   7.836  0.2566 -0.3993  0.3241
 3044TIP3    H233328   3.464   6.020   7.832 -1.3647  0.9465 -1.6204
 3045TIP3   OH233329   2.103   3.653   7.728 -0.0504 -0.0001 -0.2091
 3045TIP3    H133330   2.090   3.680   7.819  1.6417  0.4109 -0.0673
 3045TIP3    H233331   2.040   3.582   7.715  0.3513 -0.7413  1.5901
 3046TIP3   OH233332   4.128   2.932   7.706  0.5024  0.6507 -0.0172
 3046TIP3    H133333   4.105   2.959   7.795 -1.2141  0.2520 -0.3211
 3046TIP3    H233334   4.097   3.003   7.650 -1.1729 -0.4309 -0.5351
 3047TIP3   OH233335   0.145   4.381   7.666 -0.1513  0.0455  0.5526
 3047TIP3    H133336   0.156   4.287   7.684 -0.2256 -0.3783 -1.3776
 3047TIP3    H233337   0.087   4.383   7.590  1.4771  1.5875 -0.7072
 3048TIP3   OH233338   6.437   0.633   8.536  0.2801  0.2828 -0.5211
 3048TIP3    H133339   6.446   0.586   8.453 -0.2835 -0.2003 -0.3082
 3048TIP3    H233340   6.522   0.621   8.579 -0.5603 -2.5894  0.5866
 3049TIP3   OH233341   0.593   3.645   7.232 -0.3811 -0.2532  0.3772
 3049TIP3    H133342   0.614   3.707   7.163  0.2585 -1.5748 -0.6701
 3049TIP3    H233343   0.665   3.653   7.295 -0.1553 -0.1330  0.1062
 3050TIP3   OH233344   1.397   2.508   1.285 -0.7301 -0.0551  0.2866
 3050TIP3    H133345   1.429   2.464   1.206 -1.2760 -1.1927  0.6737
 3050TIP3    H233346   1.322   2.455   1.312 -1.1772  0.9212  0.9896
 3051TIP3   OH233347   6.421   4.541   9.567 -0.2979  0.1828 -0.3488
 3051TIP3    H133348   6.357   4.477   9.598 -1.3779  2.0983  1.6076
 3051TIP3    H233349   6.504   4.514   9.607 -0.4033 -0.7727 -0.7324
 3052TIP3   OH233350   2.451   2.133   3.285  0.3045  0.1091 -0.6099
 3052TIP3    H133351   2.413   2.187   3.354 -1.9182  1.8706 -3.0087
 3052TIP3    H233352   2.542   2.120   3.311 -0.1642  1.6136  2.0525
 3053TIP3   OH233353   7.289   1.716   9.851 -0.1209  0.4460 -0.4417
 3053TIP3    H133354   7.297   1.777   9.924 -0.2780  0.5398 -0.5016
 3053TIP3    H233355   7.284   1.772   9.774  0.2284  0.3420 -0.5404
 3054TIP3   OH233356   7.443   0.939   0.945 -0.1131  0.0982 -0.5387
 3054TIP3    H133357   7.409   0.869   1.001  0.8133  0.3845  0.4179
 3054TIP3    H233358   7.409   0.919   0.858 -3.0325  0.6020  0.4003
 3055TIP3   OH233359   0.113   5.830   6.977  0.2502 -0.2288  0.0860
 3055TIP3    H133360   0.166   5.865   6.906  0.8585  0.2882  0.7794
 3055TIP3    H233361   0.175   5.815   7.048 -0.3222 -0.8971  0.4582
 3056TIP3   OH233362   7.151   2.952   7.053  0.0161  0.4676  0.2006
 3056TIP3    H133363   7.180   3.042   7.064  1.8861 -0.1031  0.2251
 3056TIP3    H233364   7.088   2.956   6.981 -0.7612  1.9264  0.9071
 3057TIP3   OH233365   6.958   3.492   9.719  0.1974 -0.1207 -0.2248
 3057TIP3    H133366   6.914   3.407   9.719 -3.0257  1.3448 -2.2118
 3057TIP3    H233367   6.923   3.537   9.795  0.2662  0.1828 -0.3735
 3058TIP3   OH233368   3.545   0.746   7.905  0.0937 -0.4339  0.0678
 3058TIP3    H133369   3.554   0.700   7.822 -0.7332 -0.5610  0.0409
 3058TIP3    H233370   3.508   0.831   7.881 -0.3808 -0.5657  0.3299
 3059TIP3   OH233371   0.260   3.340   7.680 -0.0859  0.3683 -0.1230
 3059TIP3    H133372   0.209   3.403   7.629  0.8114  0.3077 -1.1080
 3059TIP3    H233373   0.349   3.375   7.682 -0.3338  1.1363  2.6669
 3060TIP3   OH233374   2.819   6.290   8.158  0.1401 -0.2214 -0.2191
 3060TIP3    H133375   2.804   6.200   8.129  0.4760 -0.0582 -0.9380
 3060TIP3    H233376   2.795   6.290   8.251  2.3989 -1.6663  0.4580
 3061TIP3   OH233377   1.760   0.361   1.959  0.3113  0.5238  0.0860
 3061TIP3    H133378   1.737   0.430   1.897 -0.0463  0.0054 -0.3638
 3061TIP3    H233379   1.788   0.288   1.904 -0.2231 -0.0186  0.5313
 3062TIP3   OH233380   5.906   7.127   0.028  0.1515  0.1496 -0.3698
 3062TIP3    H133381   5.948   7.087   0.105  0.3227  2.1545  0.6349
 3062TIP3    H233382   5.820   7.086   0.024  0.1463 -0.0066  0.8966
 3063TIP3   OH233383   0.878   5.371   3.139  0.3619  0.4595 -0.0928
 3063TIP3    H133384   0.949   5.326   3.183  1.5396  1.9799 -0.3602
 3063TIP3    H233385   0.798   5.327   3.170  1.2665  0.1756  1.9282
 3064TIP3   OH233386   7.631   4.730   0.887 -0.1836 -0.1192  0.4449
 3064TIP3    H133387   7.601   4.785   0.959  1.1181  0.3447  0.6666
 3064TIP3    H233388   7.660   4.650   0.929 -0.7117 -0.3993  0.2798
 3065TIP3   OH233389   6.157   6.928   7.708  0.0815  0.2212 -0.1353
 3065TIP3    H133390   6.128   6.956   7.794  0.0562  0.9930 -0.3900
 3065TIP3    H233391   6.078   6.896   7.665  0.2777 -1.2034  0.5062
 3066TIP3   OH233392   0.698   0.448   0.238 -0.5262 -0.2454  0.1474
 3066TIP3    H133393   0.656   0.477   0.319  0.2057 -0.9617  0.7994
 3066TIP3    H233394   0.740   0.366   0.261  0.9845  0.2926 -0.5505
 3067TIP3   OH233395   6.574   4.652   9.350 -0.3662  0.1012  0.9449
 3067TIP3    H133396   6.512   4.628   9.419  0.2884 -0.1030  1.4689
 3067TIP3    H233397   6.620   4.729   9.386  0.0346 -0.0586  0.7783
 3068TIP3   OH233398   3.653   5.908   7.192  0.1091 -0.3590  0.5374
 3068TIP3    H133399   3.703   5.853   7.132  0.2924  0.7387 -0.3607
 3068TIP3    H233400   3.576   5.934   7.142 -0.8393 -1.1539  1.5388
 3069TIP3   OH233401   0.844   1.269   2.152 -0.0380 -0.5831 -0.9848
 3069TIP3    H133402   0.897   1.192   2.171  1.6198  0.6087 -0.5613
 3069TIP3    H233403   0.788   1.280   2.228  0.1692 -1.0213 -0.7676
 3070TIP3   OH233404   0.774   1.421   3.071 -0.3944  0.1493  0.2707
 3070TIP3    H133405   0.822   1.380   3.000 -0.4048  0.4383  0.0955
 3070TIP3    H233406   0.770   1.354   3.139 -1.3513 -0.5275 -0.4211
 3071TIP3   OH233407   3.989   0.769   2.771 -0.2894 -0.5141  0.1768
 3071TIP3    H133408   4.031   0.689   2.804  1.6531  0.5533  0.4506
 3071TIP3    H233409   3.945   0.807   2.846 -1.4335 -1.4218 -0.0091
 3072TIP3   OH233410   4.166   3.365   0.096  0.4350  0.2951 -0.2337
 3072TIP3    H133411   4.132   3.436   0.149 -0.9492  0.1661 -0.9075
 3072TIP3    H233412   4.191   3.297   0.159  0.0823  0.6660  0.3107
 3073TIP3   OH233413   3.388   7.447   2.471 -0.4327  0.3489 -0.3211
 3073TIP3    H133414   3.471   7.410   2.441 -0.8151 -0.4827 -0.3875
 3073TIP3    H233415   3.339   7.372   2.506 -0.7702  0.9793  0.6190
 3074TIP3   OH233416   3.542   1.666   0.294  0.1441  0.4504  0.0300
 3074TIP3    H133417   3.565   1.679   0.201  0.9339 -2.9716 -0.3933
 3074TIP3    H233418   3.447   1.666   0.295  0.0862  2.4841 -0.3648
 3075TIP3   OH233419   1.828   2.536   7.511 -0.0086 -0.5769  0.2126
 3075TIP3    H133420   1.741   2.497   7.508  0.5214 -1.7732 -0.4140
 3075TIP3    H233421   1.825   2.605   7.444 -0.6965 -0.0658  0.7479
 3076TIP3   OH233422   3.197   0.759   9.786 -0.1378  0.2196  0.0434
 3076TIP3    H133423   3.287   0.733   9.806  0.0324  0.7442 -0.0382
 3076TIP3    H233424   3.205   0.833   9.726 -0.6307 -0.1174 -0.4541
 3077TIP3   OH233425   1.243   3.002   8.502  0.2238  0.1248  0.1910
 3077TIP3    H133426   1.239   3.073   8.438  2.1244  1.6953  1.6299
 3077TIP3    H233427   1.224   2.923   8.453  2.2517  1.1463 -2.5016
 3078TIP3   OH233428   2.045   1.961   2.161  0.0683  0.6587  0.0023
 3078TIP3    H133429   2.040   2.055   2.181  0.0399  0.7985 -0.6358
 3078TIP3    H233430   2.079   1.921   2.240  0.1558  1.2228  0.2530
 3079TIP3   OH233431   6.487   1.382   1.572  0.4363  0.1881 -0.4437
 3079TIP3    H133432   6.527   1.299   1.546 -0.2443  0.0383 -1.0160
 3079TIP3    H233433   6.458   1.367   1.662 -1.0173 -0.7011 -1.0356
 3080TIP3   OH233434   5.840   4.186   9.080 -0.3626  0.0171  0.3532
 3080TIP3    H133435   5.906   4.140   9.029  1.1080  0.7030  1.5751
 3080TIP3    H233436   5.820   4.265   9.029  0.6033  0.3617  0.4857
 3081TIP3   OH233437   0.497   5.133   8.722  0.1233  0.4495 -0.2053
 3081TIP3    H133438   0.541   5.048   8.722 -0.0198  0.3723  0.2176
 3081TIP3    H233439   0.569   5.196   8.713  0.5214  0.3981  2.0377
 3082TIP3   OH233440   1.828   1.519   8.245 -0.0789  0.3476  0.0245
 3082TIP3    H133441   1.883   1.492   8.172  1.1902  0.3872  0.9413
 3082TIP3    H233442   1.883   1.576   8.298 -1.7634  2.3860 -0.2823
 3083TIP3   OH233443   1.668   4.838   7.762  0.5340 -0.4392  0.2404
 3083TIP3    H133444   1.605   4.791   7.708 -0.7082  1.8082 -0.3961
 3083TIP3    H233445   1.729   4.770   7.793  0.8325 -1.9580 -3.2543
 3084TIP3   OH233446   1.811   3.315   1.463 -0.1718 -0.0982 -0.3259
 3084TIP3    H133447   1.823   3.228   1.501  1.2747  0.7959  1.3852
 3084TIP3    H233448   1.741   3.354   1.515 -0.0613  0.1581 -0.3677
 3085TIP3   OH233449   2.361   1.279   9.560  0.1133 -0.6853 -0.1021
 3085TIP3    H133450   2.328   1.218   9.626  1.4342 -1.6881 -0.3274
 3085TIP3    H233451   2.456   1.268   9.562  0.2505 -0.0667 -1.5308
 3086TIP3   OH233452   2.711   5.572   7.447 -0.0451  0.0104 -0.3404
 3086TIP3    H133453   2.633   5.616   7.482 -0.8137 -1.1194 -0.6027
 3086TIP3    H233454   2.776   5.642   7.440 -0.6630  0.7599  0.9641
 3087TIP3   OH233455   3.572   5.631   7.512 -0.2239 -0.1333  0.0411
 3087TIP3    H133456   3.490   5.668   7.477 -0.3155 -0.3949 -0.0204
 3087TIP3    H233457   3.610   5.583   7.439  1.0725  1.7517 -0.5927
 3088TIP3   OH233458   6.408   0.368   7.418  0.0298 -0.3395  0.3496
 3088TIP3    H133459   6.434   0.437   7.479 -0.9640 -2.1938  3.0575
 3088TIP3    H233460   6.328   0.401   7.378  1.0437  1.1897 -0.5327
 3089TIP3   OH233461   7.488   1.879   3.095 -0.0693  0.0068 -0.1973
 3089TIP3    H133462   7.557   1.883   3.162 -0.5489  0.6069  0.2874
 3089TIP3    H233463   7.456   1.789   3.099 -0.6604  0.2489  0.9931
 3090TIP3   OH233464   1.651   1.608   7.758 -0.6935 -0.4520 -0.3535
 3090TIP3    H133465   1.575   1.609   7.816 -0.4156 -0.2441  0.0098
 3090TIP3    H233466   1.615   1.586   7.672 -1.2537  0.2344 -0.3079
 3091TIP3   OH233467   7.610   0.744   8.509 -0.0113  0.0957 -0.4355
 3091TIP3    H133468   7.684   0.802   8.523 -1.0241  1.1104  1.1007
 3091TIP3    H233469   7.635   0.689   8.435  1.8283  1.0918 -0.5976
 3092TIP3   OH233470   3.318   5.734   7.438  0.3481 -0.2592 -0.3490
 3092TIP3    H133471   3.260   5.710   7.366 -2.0656  0.6331  1.1880
 3092TIP3    H233472   3.331   5.828   7.429  1.7891 -0.4599 -0.7634
 3093TIP3   OH233473   1.687   6.634   1.957  0.4422  0.0131  0.9053
 3093TIP3    H133474   1.653   6.664   1.873 -0.3783 -0.4615  1.0484
 3093TIP3    H233475   1.654   6.697   2.020 -1.8444 -1.4213  1.2959
 3094TIP3   OH233476   7.342   0.330   0.302  0.1979  0.0162 -0.2912
 3094TIP3    H133477   7.317   0.274   0.229  0.9263  0.4958 -0.9237
 3094TIP3    H233478   7.436   0.344   0.291  0.3071  0.1530  0.7019
 3095TIP3   OH233479   1.217   6.488   1.443  0.2518 -0.5240 -0.0548
 3095TIP3    H133480   1.304   6.487   1.403  0.1238  0.0873 -0.3683
 3095TIP3    H233481   1.226   6.433   1.521  1.6617  1.6417  1.4208
 3096TIP3   OH233482   2.635   7.648   8.492 -0.5586  0.0723  0.6511
 3096TIP3    H133483   2.613   7.741   8.481  1.5204  0.4077 -1.3907
 3096TIP3    H233484   2.586   7.603   8.424 -0.6168 -0.1525  0.8426
 3097TIP3   OH233485   7.468   6.584   7.371  0.2372 -0.2810 -0.2049
 3097TIP3    H133486   7.476   6.676   7.344 -1.8202 -0.5254 -1.9301
 3097TIP3    H233487   7.384   6.579   7.416  0.4270 -1.2954  0.0658
 3098TIP3   OH233488   2.265   6.259   8.031 -0.4498  0.5127 -0.9310
 3098TIP3    H133489   2.258   6.354   8.024 -0.0712  0.5211 -1.2093
 3098TIP3    H233490   2.274   6.243   8.125  0.3207  0.8169 -0.9445
 3099TIP3   OH233491   4.492   2.355   1.384 -0.7618  0.4009  0.0246
 3099TIP3    H133492   4.521   2.267   1.410  2.8013  0.8401 -1.7709
 3099TIP3    H233493   4.495   2.406   1.465  2.0296 -0.1075  0.3624
 3100TIP3   OH233494   4.483   1.227   1.472  0.4535  0.2542  0.8293
 3100TIP3    H133495   4.446   1.174   1.401  0.9508 -1.7281  1.9704
 3100TIP3    H233496   4.489   1.316   1.435 -1.8187 -0.1353 -0.6547
 3101TIP3   OH233497   6.390   0.440   9.419 -0.0407 -0.2420  0.0114
 3101TIP3    H133498   6.306   0.399   9.400 -1.0638  2.0442 -0.7390
 3101TIP3    H233499   6.411   0.491   9.341  2.2811 -1.0251  0.0241
 3102TIP3   OH233500   4.083   6.377   1.724  0.7291  0.8929  0.3794
 3102TIP3    H133501   4.123   6.414   1.803  1.3011  0.7661  0.1545
 3102TIP3    H233502   4.092   6.446   1.658 -1.5031  1.7771  0.9134
 3103TIP3   OH233503   6.082   0.573   2.417 -0.1625  0.0038 -0.5497
 3103TIP3    H133504   6.147   0.530   2.474 -1.1603  2.1130  2.4504
 3103TIP3    H233505   6.122   0.657   2.394 -1.1258  0.6138 -0.0566
 3104TIP3   OH233506   3.269   1.061   1.623 -0.6452 -0.4536 -0.1316
 3104TIP3    H133507   3.271   1.050   1.719  1.9971  3.0429  0.4089
 3104TIP3    H233508   3.329   0.994   1.590  0.0030 -0.4057  0.8954
 3105TIP3   OH233509   1.333   1.213   1.348  0.1972 -0.2304  0.5551
 3105TIP3    H133510   1.363   1.275   1.413 -1.7620  0.0683  1.2545
 3105TIP3    H233511   1.263   1.259   1.301  0.7080 -0.8874 -0.9166
 3106TIP3   OH233512   0.966   3.815   7.804  0.1875  0.4255 -0.3567
 3106TIP3    H133513   1.047   3.855   7.835  1.0535 -1.6356  0.2091
 3106TIP3    H233514   0.958   3.734   7.855 -1.7513  0.1316 -1.0454
 3107TIP3   OH233515   4.907   1.411   1.016 -0.0946 -0.5642  0.5993
 3107TIP3    H133516   4.962   1.368   1.082  0.4381 -0.0859  0.4821
 3107TIP3    H233517   4.896   1.500   1.049  0.2702 -0.2871  0.0013
 3108TIP3   OH233518   3.042   6.640   8.222 -0.2962 -0.2041  0.1470
 3108TIP3    H133519   3.031   6.715   8.164 -2.7918 -1.0849 -0.6494
 3108TIP3    H233520   3.101   6.581   8.175 -0.2027  0.2391 -0.2912
 3109TIP3   OH233521   0.560   5.836   0.165 -0.1063 -0.0026 -0.2380
 3109TIP3    H133522   0.467   5.816   0.176  0.0338  0.2140  1.5610
 3109TIP3    H233523   0.593   5.846   0.254  1.2771  1.6758 -0.8983
 3110TIP3   OH233524   7.334   3.657   8.248  0.0432 -0.8870 -0.2155
 3110TIP3    H133525   7.417   3.691   8.214 -0.0826  0.0547  0.4013
 3110TIP3    H233526   7.340   3.667   8.343 -1.3890  0.6822 -0.2398
 3111TIP3   OH233527   4.249   6.287   2.336  0.3365  0.3601  0.3636
 3111TIP3    H133528   4.195   6.257   2.409  1.5422  0.6438  1.4014
 3111TIP3    H233529   4.315   6.343   2.376  2.6095 -1.4831 -0.5527
 3112TIP3   OH233530   0.391   2.610   1.545  0.8040  0.0371 -0.1163
 3112TIP3    H133531   0.321   2.567   1.596  1.3883 -0.4106  0.3236
 3112TIP3    H233532   0.372   2.703   1.553 -0.7571 -0.1262 -1.4768
 3113TIP3   OH233533   5.364   6.415   1.851  0.2850 -0.3056 -0.2422
 3113TIP3    H133534   5.357   6.465   1.770  0.2795 -0.4862 -0.3526
 3113TIP3    H233535   5.297   6.347   1.843 -0.3550  0.2402  0.3136
 3114TIP3   OH233536   0.172   5.873   9.272  0.7140  0.5140 -0.1673
 3114TIP3    H133537   0.171   5.956   9.224 -0.3375  0.7559  0.2428
 3114TIP3    H233538   0.161   5.899   9.364  1.3423 -0.0294  0.0735
 3115TIP3   OH233539   0.568   1.692   1.009  0.2736  0.2601 -0.3969
 3115TIP3    H133540   0.514   1.634   0.956  0.7153 -0.4183 -0.1111
 3115TIP3    H233541   0.571   1.774   0.959 -2.1345  0.7986  0.2122
 3116TIP3   OH233542   2.010   6.684   6.674  0.1176  0.3718 -0.0499
 3116TIP3    H133543   1.938   6.673   6.737  0.4559 -0.5875  0.1776
 3116TIP3    H233544   1.976   6.747   6.610 -1.0835 -0.3798 -0.1739
 3117TIP3   OH233545   7.500   5.188   0.163  0.3349 -0.2220 -0.4298
 3117TIP3    H133546   7.499   5.225   0.075 -1.4949  1.0364  0.0661
 3117TIP3    H233547   7.433   5.237   0.211  0.9297 -1.2113  1.5339
 3118TIP3   OH233548   6.571   7.162   7.177  0.5449 -0.5541  0.7067
 3118TIP3    H133549   6.612   7.083   7.141  1.9387  0.3983  0.1310
 3118TIP3    H233550   6.483   7.163   7.137  1.5478 -0.2563 -1.6836
 3119TIP3   OH233551   3.278   6.434   9.364  0.3724 -0.0560 -0.4386
 3119TIP3    H133552   3.198   6.440   9.416 -0.8170 -1.7740 -1.9298
 3119TIP3    H233553   3.348   6.461   9.423 -0.9630 -1.2967  1.8433
 3120TIP3   OH233554   0.308   4.110   7.524  0.1161 -0.2514 -0.0462
 3120TIP3    H133555   0.317   4.129   7.617  0.5559 -1.0591  0.0819
 3120TIP3    H233556   0.395   4.127   7.488  0.4625 -1.7145  0.0289
 3121TIP3   OH233557   4.267   0.813   2.372  0.0247  0.6909 -0.0679
 3121TIP3    H133558   4.327   0.888   2.375  0.4990  0.3452 -0.6783
 3121TIP3    H233559   4.271   0.782   2.282  0.5904 -0.6815  0.3999
 3122TIP3   OH233560   4.024   2.049   1.659  0.5940  0.2123  0.3474
 3122TIP3    H133561   4.000   2.135   1.624 -1.1682  0.2514  1.5715
 3122TIP3    H233562   4.072   2.068   1.739  0.5442  0.0545  0.4147
 3123TIP3   OH233563   6.087   2.526   9.984 -0.5877  0.1362 -0.1500
 3123TIP3    H133564   6.170   2.549   9.943 -1.3099 -0.7578 -2.2903
 3123TIP3    H233565   6.075   2.592  10.052  1.8809  0.2266  0.2862
 3124TIP3   OH233566   4.200   5.777   9.231 -0.5406 -0.2301  0.0894
 3124TIP3    H133567   4.156   5.698   9.265  1.0537 -1.5994 -0.8861
 3124TIP3    H233568   4.161   5.791   9.145 -1.2453  0.4360  0.5033
 3125TIP3   OH233569   0.369   5.251   8.144 -0.1488  0.2251  0.4924
 3125TIP3    H133570   0.457   5.217   8.162  0.5636  1.6471 -0.1602
 3125TIP3    H233571   0.346   5.299   8.223  0.9885  2.4385 -0.4374
 3126TIP3   OH233572   3.220   0.312   0.523 -0.0488 -0.0220  0.1824
 3126TIP3    H133573   3.249   0.384   0.467 -0.3621  1.3715  1.7179
 3126TIP3    H233574   3.293   0.297   0.583 -0.1898 -0.6518  0.2082
 3127TIP3   OH233575   2.998   3.997   0.163 -0.0156 -0.6278  0.2658
 3127TIP3    H133576   3.061   4.030   0.228  1.7144  0.9000 -2.0418
 3127TIP3    H233577   2.939   4.070   0.148 -0.4980 -1.0255  0.2234
 3128TIP3   OH233578   1.605   4.598   8.392  0.1861  0.0183  0.2370
 3128TIP3    H133579   1.572   4.509   8.398 -2.8268  0.9861 -0.0960
 3128TIP3    H233580   1.572   4.641   8.471 -0.8075  1.4791 -0.9106
 3129TIP3   OH233581   1.917   4.061   1.635  0.2801  0.4192 -0.0302
 3129TIP3    H133582   1.978   4.121   1.591 -0.8300  1.8622  0.3180
 3129TIP3    H233583   1.833   4.107   1.633 -0.8474 -1.5653 -0.5977
 3130TIP3   OH233584   1.642   0.463   1.213  1.1614  0.3776 -0.0501
 3130TIP3    H133585   1.623   0.530   1.278  0.6207  0.1664  0.0158
 3130TIP3    H233586   1.708   0.406   1.254  1.6446  0.8766 -0.1187
 3131TIP3   OH233587   4.180   7.056   9.953 -0.1337 -0.0065  0.1899
 3131TIP3    H133588   4.149   7.059  10.044 -0.8518  0.6291 -0.0640
 3131TIP3    H233589   4.165   6.966   9.926 -0.7247  0.0155  0.4319
 3132TIP3   OH233590   6.830   7.089   0.354 -0.1622 -0.1344 -0.3879
 3132TIP3    H133591   6.764   7.149   0.390  0.1033  0.8225 -1.4391
 3132TIP3    H233592   6.784   7.005   0.346 -0.2161 -0.4121  2.1608
 3133TIP3   OH233593   0.055   2.961   1.855  0.6125  0.3568  0.1194
 3133TIP3    H133594   0.067   3.025   1.926 -1.5172 -0.8928  1.7218
 3133TIP3    H233595   0.133   2.905   1.861  0.4083  0.1688  1.6652
 3134TIP3   OH233596   6.691   5.609   8.013  0.2041 -0.7805 -0.4640
 3134TIP3    H133597   6.630   5.586   8.083 -1.2295  2.1602 -0.5953
 3134TIP3    H233598   6.777   5.587   8.048 -0.6186 -1.2597  1.3927
 3135TIP3   OH233599   7.530   5.867   8.398  0.1114  0.2928 -0.2111
 3135TIP3    H133600   7.470   5.906   8.334  2.1376  0.3072 -2.2101
 3135TIP3    H233601   7.472   5.818   8.457 -1.9051  0.6279 -1.7704
 3136TIP3   OH233602   0.028   2.615   2.252  0.6475  0.0793  0.1605
 3136TIP3    H133603  -0.019   2.532   2.244  0.6533 -0.0190  1.0498
 3136TIP3    H233604  -0.027   2.669   2.309  1.5208  0.0089  1.1065
 3137TIP3   OH233605   5.495   1.687   6.997  0.4005 -0.4102 -0.1714
 3137TIP3    H133606   5.526   1.776   6.983 -0.6129 -0.3837 -2.6355
 3137TIP3    H233607   5.431   1.695   7.068  0.1911  0.8557 -0.4754
 3138TIP3   OH233608   2.006   6.524   0.517  0.1033 -0.2287  0.5743
 3138TIP3    H133609   1.972   6.611   0.538 -1.5685 -0.8840  0.7028
 3138TIP3    H233610   1.936   6.483   0.466 -0.0161 -2.2389  2.2640
 3139TIP3   OH233611   2.037   3.287   0.497 -0.5670  0.3108 -0.1526
 3139TIP3    H133612   2.112   3.241   0.460 -1.1152 -0.5610 -0.2112
 3139TIP3    H233613   2.069   3.325   0.579 -0.7262 -2.4031  1.2874
 3140TIP3   OH233614   5.356   5.947   7.540 -0.1497  0.2611  0.6328
 3140TIP3    H133615   5.433   5.892   7.523  0.0973 -0.0481  2.5006
 3140TIP3    H233616   5.349   6.004   7.463  2.7695  1.2465  0.9669
 3141TIP3   OH233617   1.990   0.571   2.412 -0.3151 -0.6292 -0.2896
 3141TIP3    H133618   1.949   0.551   2.327  0.5634 -0.2332 -0.8178
 3141TIP3    H233619   1.916   0.595   2.469 -0.7693  0.9150 -1.4559
 3142TIP3   OH233620   1.055   6.359   2.183  0.0958 -0.5502 -0.3842
 3142TIP3    H133621   1.023   6.285   2.235  0.8951 -0.4937  0.2090
 3142TIP3    H233622   0.984   6.377   2.121 -1.5754  0.3436  1.6197
 3143TIP3   OH233623   5.547   6.645   0.628 -0.1320  0.4436  0.5409
 3143TIP3    H133624   5.546   6.555   0.660  1.4553  0.1585 -0.1375
 3143TIP3    H233625   5.567   6.638   0.535  0.4738  1.5058  0.5724
 3144TIP3   OH233626   7.611   6.866   0.232 -0.7369  0.3522 -0.2276
 3144TIP3    H133627   7.682   6.910   0.185 -0.8399  1.3073  0.4757
 3144TIP3    H233628   7.573   6.806   0.167  0.0831  0.5286 -0.8984
 3145TIP3   OH233629   6.426   1.467   8.614  0.4371 -0.4510  0.1662
 3145TIP3    H133630   6.402   1.474   8.522  0.1548  0.9088  0.3099
 3145TIP3    H233631   6.516   1.437   8.614 -0.2515 -2.7014 -0.4691
 3146TIP3   OH233632   7.242   0.881   7.203  0.0428 -0.7972  0.0958
 3146TIP3    H133633   7.294   0.935   7.143 -1.3465 -0.3502 -0.7479
 3146TIP3    H233634   7.195   0.820   7.145 -0.3073 -1.2520  0.8461
 3147TIP3   OH233635   3.148   1.794   9.797  0.0902  0.0422  0.0035
 3147TIP3    H133636   3.110   1.879   9.776 -0.5592 -0.2227  0.1003
 3147TIP3    H233637   3.074   1.733   9.798  0.6042 -0.6065 -0.4902
 3148TIP3   OH233638   1.083   4.386   1.969  0.1807 -0.1072 -0.2345
 3148TIP3    H133639   1.171   4.419   1.953  0.1249  0.5940  0.8257
 3148TIP3    H233640   1.091   4.291   1.963  1.0483 -0.0523  0.0074
 3149TIP3   OH233641   2.279   6.157   7.437  0.0968  0.2376  0.3040
 3149TIP3    H133642   2.250   6.115   7.519  2.3348 -0.1727  0.9430
 3149TIP3    H233643   2.260   6.250   7.450 -0.4229  0.0603  0.8903
 3150TIP3   OH233644   3.646   3.204   6.874 -0.0211 -0.2602  0.7592
 3150TIP3    H133645   3.581   3.271   6.895 -2.2327 -2.0045  0.0356
 3150TIP3    H233646   3.731   3.245   6.889 -1.2776  2.4106  1.0320
 3151TIP3   OH233647   3.292   0.578   8.439  0.1509 -0.2066  0.4125
 3151TIP3    H133648   3.385   0.573   8.417  0.4994  2.7834  0.8809
 3151TIP3    H233649   3.249   0.590   8.354  0.6982  2.8694  0.4708
 3152TIP3   OH233650   1.349   5.970   8.921  0.1496 -0.6698  0.3504
 3152TIP3    H133651   1.350   6.065   8.932 -0.3182 -0.8188  1.8377
 3152TIP3    H233652   1.289   5.955   8.849  0.6800  0.1817 -0.2959
 3153TIP3   OH233653   1.952   3.122   1.228  0.1389 -0.1652  0.1644
 3153TIP3    H133654   2.006   3.168   1.291 -0.2782  0.7892 -0.1560
 3153TIP3    H233655   1.975   3.030   1.239  0.3249  0.0213  1.4544
 3154TIP3   OH233656   6.051   4.491   9.299  0.1782  0.3386 -0.7664
 3154TIP3    H133657   6.129   4.435   9.306  0.3154  0.5971 -0.1453
 3154TIP3    H233658   6.016   4.473   9.212 -0.0148 -1.0203 -0.4299
 3155TIP3   OH233659   2.747   0.682   2.013 -0.3058  0.4979  0.0194
 3155TIP3    H133660   2.821   0.632   1.978 -1.0870 -0.9159  0.3476
 3155TIP3    H233661   2.737   0.754   1.950  1.3660  0.7679 -0.0036
 3156TIP3   OH233662   3.560   2.614   9.025 -0.2333  0.1522 -0.3748
 3156TIP3    H133663   3.651   2.588   9.039 -0.5619 -0.2728  1.1799
 3156TIP3    H233664   3.565   2.705   8.994  0.6889  0.7609  1.4126
 3157TIP3   OH233665   3.259   3.411   8.655  0.2291 -0.2412 -0.5088
 3157TIP3    H133666   3.336   3.448   8.697  0.4826  0.0297 -1.2012
 3157TIP3    H233667   3.196   3.400   8.727  1.3473 -1.6754  0.2870
 3158TIP3   OH233668   7.550   5.346   2.801 -0.1728 -0.0192  0.3263
 3158TIP3    H133669   7.569   5.379   2.889 -0.4674 -1.8138  1.0866
 3158TIP3    H233670   7.581   5.416   2.743  1.2872  0.6226  1.7989
 3159TIP3   OH233671   4.425   1.953   8.893  1.0571 -0.0354 -0.4862
 3159TIP3    H133672   4.377   1.940   8.974  2.0805  0.1401  0.1590
 3159TIP3    H233673   4.517   1.959   8.919  1.1963  2.7630 -1.3166
 3160TIP3   OH233674   6.579   3.509   7.408  0.2095 -0.5638 -0.8218
 3160TIP3    H133675   6.649   3.553   7.360 -1.1984  0.3769 -2.1226
 3160TIP3    H233676   6.499   3.546   7.372 -0.9830 -1.9089  0.3242
 3161TIP3   OH233677   4.243   2.539   0.857  0.0006  0.0782  0.0286
 3161TIP3    H133678   4.253   2.537   0.952 -0.0859 -2.1344  0.0533
 3161TIP3    H233679   4.164   2.590   0.842  0.5809  1.3138  1.0611
 3162TIP3   OH233680   4.953   1.961   1.022 -0.8761 -0.0781  0.1358
 3162TIP3    H133681   4.941   2.049   1.058  2.0389  0.1272  0.9125
 3162TIP3    H233682   4.978   1.907   1.098 -2.4394 -1.5897 -0.3474
 3163TIP3   OH233683   1.362   4.111   0.544  0.4849 -0.0891  0.4151
 3163TIP3    H133684   1.386   4.198   0.512  0.3992 -0.4081 -0.5502
 3163TIP3    H233685   1.446   4.063   0.547  0.1481 -1.2141 -2.9900
 3164TIP3   OH233686   4.215   0.486   1.958  0.0743 -0.6505  0.2856
 3164TIP3    H133687   4.241   0.395   1.968  1.1948 -0.4121 -0.3759
 3164TIP3    H233688   4.165   0.488   1.876 -0.3149 -0.7286  0.5134
 3165TIP3   OH233689   4.001   2.846   7.989 -0.1469  0.0181 -0.2808
 3165TIP3    H133690   3.930   2.885   8.041 -0.4066  0.0432 -0.6424
 3165TIP3    H233691   3.957   2.816   7.909  0.2978  0.2826 -0.6266
 3166TIP3   OH233692   0.616   0.232   1.677 -0.2523 -0.2288  0.2720
 3166TIP3    H133693   0.595   0.159   1.735  0.8876 -0.2456  0.6789
 3166TIP3    H233694   0.593   0.310   1.727 -0.3737 -0.2717  0.2846
 3167TIP3   OH233695   2.999   5.582   8.199 -0.5165  0.4862 -0.2292
 3167TIP3    H133696   3.075   5.637   8.218 -0.5513 -0.0834  1.7940
 3167TIP3    H233697   3.027   5.527   8.126  0.8795  0.5815  0.2050
 3168TIP3   OH233698   6.346   6.882   0.280  0.2050 -0.2164  0.1327
 3168TIP3    H133699   6.341   6.948   0.211  0.0254 -0.3545  0.0149
 3168TIP3    H233700   6.426   6.833   0.261  0.6674  0.3505  0.5634
 3169TIP3   OH233701   0.371   0.556   2.576  0.4775  0.4483  0.8171
 3169TIP3    H133702   0.361   0.590   2.487 -1.4750  0.6692  1.0703
 3169TIP3    H233703   0.366   0.461   2.566 -1.8850  0.5073  0.8362
 3170TIP3   OH233704   2.727   5.971   7.905 -0.0824 -0.0267  0.6838
 3170TIP3    H133705   2.800   6.033   7.898  0.2739 -0.6410 -2.4540
 3170TIP3    H233706   2.650   6.027   7.910  0.3734  0.6769  0.1647
 3171TIP3   OH233707   3.032   3.351   7.270 -0.6633  0.0983 -0.5377
 3171TIP3    H133708   2.937   3.342   7.277 -0.6284  0.1900  0.1513
 3171TIP3    H233709   3.050   3.442   7.295 -0.4756  0.3787 -1.6319
 3172TIP3   OH233710   1.140   7.598   8.055  0.2582 -0.1192 -0.6943
 3172TIP3    H133711   1.160   7.673   7.999 -1.4748 -1.0942 -2.7712
 3172TIP3    H233712   1.117   7.637   8.139  0.6496  1.5847 -1.3322
 3173TIP3   OH233713   5.914   7.458   7.295  0.1274 -0.1280 -0.3471
 3173TIP3    H133714   5.848   7.501   7.350  0.1497  0.9058 -1.1143
 3173TIP3    H233715   5.967   7.408   7.357 -0.6718 -0.0600  0.4134
 3174TIP3   OH233716   1.036   4.817   2.822  0.4476 -0.2842 -0.1165
 3174TIP3    H133717   1.114   4.851   2.777  0.4874 -0.5958 -0.2823
 3174TIP3    H233718   1.057   4.825   2.915 -0.1128  1.5244 -0.1002
 3175TIP3   OH233719   2.019   2.702   9.877 -0.2811  0.2536 -0.0309
 3175TIP3    H133720   1.982   2.649   9.948 -1.0258  1.8441  0.8592
 3175TIP3    H233721   2.113   2.701   9.892 -0.4390  0.6531  1.0808
 3176TIP3   OH233722   0.867   1.519   1.760  0.2431 -0.2748  0.3696
 3176TIP3    H133723   0.951   1.548   1.795 -0.1964  2.2945 -0.4863
 3176TIP3    H233724   0.828   1.466   1.830  2.9668 -2.5520  0.3529
 3177TIP3   OH233725   5.136   7.626   0.180  0.4095  0.2742  0.7659
 3177TIP3    H133726   5.053   7.593   0.147  1.0668  0.4541 -1.2134
 3177TIP3    H233727   5.184   7.547   0.205  0.5221 -0.0341 -0.3461
 3178TIP3   OH233728   5.824   7.178   1.055 -0.8191 -0.2726 -0.0953
 3178TIP3    H133729   5.805   7.270   1.070 -2.0613 -0.5106 -0.1610
 3178TIP3    H233730   5.867   7.176   0.969 -0.1473  0.3025  0.2148
 3179TIP3   OH233731   6.725   6.512   0.881  0.7499  0.5357 -1.2468
 3179TIP3    H133732   6.805   6.502   0.934 -0.5172  1.6085  1.0301
 3179TIP3    H233733   6.742   6.590   0.828  1.4866  0.3113 -1.3610
 3180TIP3   OH233734   5.700   0.175   9.053 -0.7765  0.2502  0.1039
 3180TIP3    H133735   5.758   0.173   8.976 -0.3800 -0.1483  0.4111
 3180TIP3    H233736   5.635   0.108   9.035 -2.0250  1.6457 -0.9037
 3181TIP3   OH233737   5.880   3.222   8.898  0.0195  0.4988  0.3386
 3181TIP3    H133738   5.877   3.289   8.830  0.0795  1.1692  0.9967
 3181TIP3    H233739   5.926   3.263   8.971  1.3525 -0.7050  0.2436
 3182TIP3   OH233740   5.339   2.825   9.934 -0.2542  0.6020 -0.0767
 3182TIP3    H133741   5.340   2.730   9.927 -0.3967  0.6046 -0.1362
 3182TIP3    H233742   5.429   2.851   9.915  0.8496  0.2298  3.7683
 3183TIP3   OH233743   2.334   7.139   9.349 -0.3723  0.2839  0.2450
 3183TIP3    H133744   2.396   7.211   9.339 -0.6183  0.2914 -1.5417
 3183TIP3    H233745   2.347   7.109   9.439 -0.3764  2.6450  1.1226
 3184TIP3   OH233746   3.056   5.751   0.020 -0.2047  0.4609  0.5405
 3184TIP3    H133747   3.038   5.814  -0.050  1.5954 -1.4017 -1.7532
 3184TIP3    H233748   3.150   5.736   0.016 -0.5506 -2.4391  0.8334
 3185TIP3   OH233749   4.159   1.445   9.808  0.9651  0.6075 -0.6322
 3185TIP3    H133750   4.224   1.515   9.800  0.4840  0.8525 -2.9376
 3185TIP3    H233751   4.205   1.375   9.854  2.0086  1.7476  0.1364
 3186TIP3   OH233752   5.356   0.225   8.370 -0.0062  0.0044 -0.3581
 3186TIP3    H133753   5.340   0.182   8.286 -0.4056 -1.3760  0.3881
 3186TIP3    H233754   5.309   0.171   8.433  1.2289  0.3476  0.9021
 3187TIP3   OH233755   6.970   0.885   9.293 -0.2976  0.4400 -0.0914
 3187TIP3    H133756   6.899   0.913   9.350  1.2079 -0.9418  2.7099
 3187TIP3    H233757   6.930   0.822   9.234 -1.7872  1.2774 -0.0120
 3188TIP3   OH233758   3.841   7.613   2.360 -0.3211 -1.0573  0.5717
 3188TIP3    H133759   3.821   7.706   2.348  0.2871 -0.8592  1.0454
 3188TIP3    H233760   3.857   7.604   2.454 -0.9944 -1.7716  0.6331
 3189TIP3   OH233761   2.205   1.288   0.808  1.0766 -0.3882 -1.3940
 3189TIP3    H133762   2.281   1.319   0.858 -1.3482  0.3737  2.1755
 3189TIP3    H233763   2.181   1.206   0.850 -0.7769  0.0174 -1.5831
 3190TIP3   OH233764   3.755   1.487   1.763  0.7515 -0.3068 -0.3395
 3190TIP3    H133765   3.665   1.511   1.744 -0.2272 -0.8734  2.8994
 3190TIP3    H233766   3.807   1.532   1.697 -1.7506  1.6523 -1.1280
 3191TIP3   OH233767   5.070   7.308   7.176  0.3126  0.2276 -0.0631
 3191TIP3    H133768   5.018   7.281   7.100  0.3746 -1.3342  0.4283
 3191TIP3    H233769   5.158   7.323   7.141 -0.0132  1.1135 -0.5647
 3192TIP3   OH233770   3.038   1.435   9.328 -0.7040  0.0181 -0.4724
 3192TIP3    H133771   3.128   1.410   9.307 -0.7248 -0.7785  0.3476
 3192TIP3    H233772   2.994   1.438   9.243  0.1844  0.8075 -0.9265
 3193TIP3   OH233773   3.341   4.364   9.069 -0.0651  0.2879 -0.2374
 3193TIP3    H133774   3.341   4.274   9.035 -2.3874 -0.9821  2.7679
 3193TIP3    H233775   3.249   4.391   9.067  0.2110  1.5076  1.5742
 3194TIP3   OH233776   7.472   5.901   6.668 -0.4039  1.2532 -0.0314
 3194TIP3    H133777   7.401   5.860   6.618 -0.3547  0.7754  0.2781
 3194TIP3    H233778   7.503   5.972   6.612 -1.4427  1.7797  0.0234
 3195TIP3   OH233779   2.644   1.781   2.381 -0.2366 -0.5894 -0.3397
 3195TIP3    H133780   2.593   1.836   2.442  0.5020  0.0096 -0.2410
 3195TIP3    H233781   2.647   1.695   2.423 -1.4201 -0.7226 -0.4957
 3196TIP3   OH233782   2.479   1.559   7.904 -0.8585  0.0498  0.0392
 3196TIP3    H133783   2.473   1.466   7.882 -3.4370  0.6423 -2.3280
 3196TIP3    H233784   2.509   1.601   7.823  3.2424  1.1301  1.8885
 3197TIP3   OH233785   6.514   3.463   8.472  0.3055  0.0548 -0.4137
 3197TIP3    H133786   6.541   3.518   8.398  1.4299 -1.6235 -1.3169
 3197TIP3    H233787   6.528   3.518   8.549  0.4505  1.3572 -1.3292
 3198TIP3   OH233788   6.917   2.249   8.601 -0.6562  0.0751  0.2734
 3198TIP3    H133789   6.957   2.165   8.626 -2.0603 -0.6304  0.2792
 3198TIP3    H233790   6.962   2.314   8.654 -0.3211 -0.8322  1.1358
 3199TIP3   OH233791   7.211   5.613   0.405 -0.2205 -0.6132 -0.4955
 3199TIP3    H133792   7.133   5.625   0.458  0.5115 -1.3450  0.7949
 3199TIP3    H233793   7.232   5.701   0.373 -1.5235 -0.4016 -0.8480
 3200TIP3   OH233794   5.017   2.570   0.689 -0.1937 -0.4579 -0.6524
 3200TIP3    H133795   4.926   2.594   0.668  0.2652  1.5608 -0.5430
 3200TIP3    H233796   5.035   2.613   0.772  0.9705 -0.5435 -0.8423
 3201TIP3   OH233797   6.746   3.798   8.057  0.3738 -0.6499 -0.6491
 3201TIP3    H133798   6.687   3.872   8.071  1.1970  0.2549 -1.8070
 3201TIP3    H233799   6.762   3.763   8.144 -2.1217 -1.1534 -0.3084
 3202TIP3   OH233800   1.218   2.907   0.659 -0.8421 -0.3773  0.2691
 3202TIP3    H133801   1.204   2.969   0.731  0.3968  0.9122 -0.5561
 3202TIP3    H233802   1.211   2.821   0.701 -0.4148  0.3346  1.8916
 3203TIP3   OH233803   7.277   7.297   8.307  0.6842  0.3947  0.4830
 3203TIP3    H133804   7.295   7.368   8.368  2.4290  1.8397 -1.5908
 3203TIP3    H233805   7.358   7.285   8.259 -0.1686 -1.7067 -0.5798
 3204TIP3   OH233806   3.221   2.512   7.247 -0.1454 -0.4742 -0.3273
 3204TIP3    H133807   3.281   2.533   7.319  0.7419  1.0592 -1.4500
 3204TIP3    H233808   3.248   2.424   7.220 -1.5145 -1.7592  2.1297
 3205TIP3   OH233809   1.469   6.651   8.966 -0.2749  0.1829 -0.0758
 3205TIP3    H133810   1.383   6.685   8.940 -0.8066 -1.3563 -0.4638
 3205TIP3    H233811   1.450   6.591   9.038  0.3983 -0.5338 -0.4719
 3206TIP3   OH233812   7.072   1.821   9.291  0.2273  0.0826  0.5611
 3206TIP3    H133813   7.083   1.839   9.198  0.1282  0.3733  0.6024
 3206TIP3    H233814   7.143   1.870   9.333  1.0886 -1.1124  0.5432
 3207TIP3   OH233815   2.479   2.533   9.281  0.0243  0.6005 -0.4994
 3207TIP3    H133816   2.434   2.456   9.315 -1.9342  1.7269 -0.4392
 3207TIP3    H233817   2.539   2.558   9.352 -0.7121  0.2333  0.2742
 3208TIP3   OH233818   6.040   6.635   8.715 -0.5651 -0.1707 -0.2232
 3208TIP3    H133819   6.041   6.715   8.767  0.2951 -0.5731  0.4134
 3208TIP3    H233820   6.001   6.569   8.773 -1.2292 -0.2305 -0.7246
 3209TIP3   OH233821   5.354   3.008   0.121 -0.1323  0.3348  0.3586
 3209TIP3    H133822   5.368   3.083   0.064  3.3174 -0.8430 -0.6290
 3209TIP3    H233823   5.326   2.938   0.063 -1.2682  0.3018  0.9245
 3210TIP3   OH233824   2.333   1.966   0.963  0.5260  0.2312 -0.1762
 3210TIP3    H133825   2.340   2.032   1.032  0.5470 -0.6772  0.7183
 3210TIP3    H233826   2.352   2.013   0.882  0.0302  1.4273  0.3791
 3211TIP3   OH233827   7.061   7.370   7.978 -0.7944  0.2434 -0.1992
 3211TIP3    H133828   7.094   7.386   7.889 -0.0728 -0.2413 -0.0264
 3211TIP3    H233829   7.111   7.431   8.032 -1.8021  1.1114 -0.2166
 3212TIP3   OH233830   3.246   0.683   8.142 -0.3120 -0.0497 -0.5332
 3212TIP3    H133831   3.233   0.764   8.191 -0.5772 -0.5823  0.2919
 3212TIP3    H233832   3.278   0.712   8.056  2.0044  0.8159  0.5398
 3213TIP3   OH233833   2.267   4.639   1.347 -0.1304 -0.1554  0.3467
 3213TIP3    H133834   2.218   4.557   1.339  0.5335 -0.4914 -0.3361
 3213TIP3    H233835   2.265   4.658   1.441 -1.0928 -0.4463  0.4040
 3214TIP3   OH233836   6.346   7.136   7.758 -0.3617 -0.3327 -0.6081
 3214TIP3    H133837   6.441   7.130   7.764 -0.4440 -0.4881  0.7967
 3214TIP3    H233838   6.319   7.050   7.724  0.0545  0.0386 -1.9099
 3215TIP3   OH233839   0.218   4.451   1.361  0.5695  0.2343 -0.4372
 3215TIP3    H133840   0.158   4.492   1.424  0.1926  0.9647 -1.2661
 3215TIP3    H233841   0.297   4.504   1.365  0.1334  0.9851 -1.4034
 3216TIP3   OH233842   5.291   6.695   9.311  0.5075  0.0144  0.1179
 3216TIP3    H133843   5.361   6.743   9.266  0.7188  1.1887  1.6321
 3216TIP3    H233844   5.333   6.659   9.389 -0.5965  0.9413  1.1783
 3217TIP3   OH233845   5.795   6.380   9.404  0.2249 -0.1198  0.3894
 3217TIP3    H133846   5.709   6.353   9.373  0.5525 -0.0395 -0.6271
 3217TIP3    H233847   5.837   6.299   9.435  0.2597 -0.3760 -0.3099
 3218TIP3   OH233848   1.218   0.636   9.452 -0.2392  0.3598 -0.2845
 3218TIP3    H133849   1.140   0.582   9.466 -1.2672  1.8315 -0.0675
 3218TIP3    H233850   1.232   0.681   9.535  1.1219 -0.1880 -0.1849
 3219TIP3   OH233851   3.880   2.097   1.168 -0.0099  0.1788 -0.5053
 3219TIP3    H133852   3.840   2.013   1.145 -2.5022  1.5105 -1.5510
 3219TIP3    H233853   3.806   2.150   1.199  1.6809  1.6279  1.2645
 3220TIP3   OH233854   0.617   7.566   0.741  0.7952 -0.1060 -0.7747
 3220TIP3    H133855   0.534   7.547   0.784  1.1412 -0.8929 -0.4446
 3220TIP3    H233856   0.670   7.487   0.753  1.0138 -0.2347 -2.3667
 3221TIP3   OH233857   1.757   2.662   7.908  0.3876  0.3961 -0.0483
 3221TIP3    H133858   1.767   2.568   7.915 -0.3244  0.2909 -0.3864
 3221TIP3    H233859   1.740   2.678   7.815  0.3766  0.8437  0.0263
 3222TIP3   OH233860   6.537   5.133   9.555 -0.6842 -0.0120  0.5390
 3222TIP3    H133861   6.466   5.196   9.558  0.2981  1.1424  0.3584
 3222TIP3    H233862   6.526   5.079   9.633 -1.2397  0.7292  0.9754
 3223TIP3   OH233863   4.443   7.654   8.009  0.1157  0.2565  0.3050
 3223TIP3    H133864   4.511   7.675   8.073  0.0951  1.5590 -0.0700
 3223TIP3    H233865   4.437   7.733   7.955 -0.7465 -0.3588 -0.5110
 3224TIP3   OH233866   5.664   6.537   2.897  0.9263 -0.1616  0.1701
 3224TIP3    H133867   5.577   6.509   2.925  0.8440  0.7418  0.8610
 3224TIP3    H233868   5.682   6.617   2.947  1.5071  0.5477 -1.0844
 3225TIP3   OH233869   4.847   7.007   7.239  0.0904  0.6846 -0.3023
 3225TIP3    H133870   4.811   7.038   7.156 -0.5712  0.5158 -0.0897
 3225TIP3    H233871   4.794   7.051   7.306 -2.2667 -2.2834  0.0381
 3226TIP3   OH233872   1.727   3.072   9.016  0.1438 -0.1041  0.0485
 3226TIP3    H133873   1.748   2.979   9.018  0.2136 -0.2132 -2.4258
 3226TIP3    H233874   1.652   3.079   8.957  0.7831  1.5007 -0.6329
 3227TIP3   OH233875   5.739   5.530   8.712  0.4546 -0.6697 -0.9221
 3227TIP3    H133876   5.765   5.622   8.718  1.8237 -1.0179 -1.3052
 3227TIP3    H233877   5.659   5.532   8.660 -0.5161  0.4546  0.5149
 3228TIP3   OH233878   7.285   0.846   9.524  0.3668 -0.1464 -0.5490
 3228TIP3    H133879   7.256   0.931   9.557 -1.7393 -1.3296  0.8800
 3228TIP3    H233880   7.379   0.845   9.542  0.3101  1.5573  0.1080
 3229TIP3   OH233881   7.521   4.701   1.600  0.0115 -0.0168 -0.4714
 3229TIP3    H133882   7.522   4.789   1.637 -0.3351 -0.0758 -0.3213
 3229TIP3    H233883   7.453   4.703   1.533 -0.3473 -0.3052 -0.1255
 3230TIP3   OH233884   1.083   2.723   1.862 -0.0332 -0.0177  0.7569
 3230TIP3    H133885   1.002   2.774   1.861 -0.8415 -1.1755 -1.7578
 3230TIP3    H233886   1.065   2.650   1.920 -1.1361 -0.6599 -0.3354
 3231TIP3   OH233887   2.369   7.335   1.194 -0.2561 -0.0454  0.2529
 3231TIP3    H133888   2.306   7.407   1.187 -3.0639 -2.2952  0.8466
 3231TIP3    H233889   2.344   7.275   1.124  2.2546 -0.3871 -0.4521
 3232TIP3   OH233890   4.900   6.198   1.988 -0.6815 -0.4087 -0.2400
 3232TIP3    H133891   4.962   6.126   1.974  2.0821  1.7916 -0.1209
 3232TIP3    H233892   4.838   6.190   1.915  0.4712 -1.9792 -1.1053
 3233TIP3   OH233893   4.511   0.919   0.055 -0.0675  0.0084  0.1376
 3233TIP3    H133894   4.511   0.918  -0.040 -1.6328 -0.3989  0.1129
 3233TIP3    H233895   4.602   0.936   0.079  0.2935  0.4145 -1.4201
 3234TIP3   OH233896   4.383   6.555   0.965 -0.2251  0.2091  0.1346
 3234TIP3    H133897   4.327   6.606   0.906 -0.5846  0.9374  1.0707
 3234TIP3    H233898   4.470   6.595   0.956 -0.5889  1.2886  1.1605
 3235TIP3   OH233899   1.318   7.642   9.678  0.2302  0.3691 -0.2010
 3235TIP3    H133900   1.291   7.710   9.616 -0.0822  0.2360 -0.2103
 3235TIP3    H233901   1.390   7.597   9.633  1.1501  1.3491  0.2261
 3236TIP3   OH233902   0.858   1.920   0.996 -0.2417 -0.1142 -0.2768
 3236TIP3    H133903   0.903   1.836   1.009  2.8686  1.5775  0.9806
 3236TIP3    H233904   0.869   1.967   1.079  0.0449  2.3518 -1.6091
 3237TIP3   OH233905   5.158   3.861   8.613 -0.5600  0.1056 -0.2171
 3237TIP3    H133906   5.122   3.775   8.594 -2.3134  1.1039 -1.7591
 3237TIP3    H233907   5.193   3.854   8.702 -1.1371 -2.0228 -0.1151
 3238TIP3   OH233908   5.437   1.025   8.246  0.0489 -0.1532 -0.6871
 3238TIP3    H133909   5.441   1.032   8.342  1.2666 -0.9247 -0.6666
 3238TIP3    H233910   5.386   1.102   8.219  1.4199  1.2019  0.4309
 3239TIP3   OH233911   5.398   0.622   2.884 -0.4761  0.1106 -0.1608
 3239TIP3    H133912   5.452   0.658   2.954  0.6640  1.0207 -1.4548
 3239TIP3    H233913   5.341   0.695   2.858  0.3028  0.3442 -1.3002
 3240TIP3   OH233914   2.455   2.519   9.679 -0.4676  0.0892  0.3729
 3240TIP3    H133915   2.500   2.518   9.763  0.2179 -0.0352  0.0144
 3240TIP3    H233916   2.524   2.535   9.615 -0.7283 -1.3156 -0.3083
 3241TIP3   OH233917   6.891   6.387   7.953  0.3929  0.2542  0.3102
 3241TIP3    H133918   6.905   6.294   7.973 -0.1169  0.1256  0.0828
 3241TIP3    H233919   6.796   6.399   7.963  0.5706  0.9553  1.2124
 3242TIP3   OH233920   3.433   4.665   8.606  0.5842  0.6490 -0.1872
 3242TIP3    H133921   3.512   4.616   8.627  1.2819  1.2985 -1.2133
 3242TIP3    H233922   3.464   4.742   8.558 -0.6320  1.1378 -0.2288
 3243TIP3   OH233923   3.771   0.323   1.862 -0.3396 -0.2062 -0.0420
 3243TIP3    H133924   3.781   0.242   1.911  0.6758 -0.0766 -0.0070
 3243TIP3    H233925   3.745   0.388   1.928 -0.8411 -0.4239 -0.0171
 3244TIP3   OH233926   3.844   1.066   2.047 -0.2899  0.6536  0.3906
 3244TIP3    H133927   3.845   1.150   2.002 -2.3685  0.2665 -0.5014
 3244TIP3    H233928   3.779   1.076   2.116 -1.7143 -0.6454 -0.6987
 3245TIP3   OH233929   2.559   6.589   2.442 -0.5018  0.0835 -0.1616
 3245TIP3    H133930   2.472   6.628   2.456 -0.7306 -0.9019  1.5051
 3245TIP3    H233931   2.612   6.624   2.514  0.3733  0.3374 -0.9179
 3246TIP3   OH233932   0.408   2.751   9.319 -0.6845 -0.0225 -0.5081
 3246TIP3    H133933   0.476   2.791   9.265 -0.7029  1.3944  0.4366
 3246TIP3    H233934   0.456   2.709   9.391 -0.7616  0.6825 -0.0283
 3247TIP3   OH233935   1.124   4.082   2.207 -0.3440 -0.0431  0.6756
 3247TIP3    H133936   1.108   4.086   2.302  1.0976  0.6571  0.9182
 3247TIP3    H233937   1.094   3.995   2.182 -1.6895  0.1301  1.5845
 3248TIP3   OH233938   6.362   0.959   7.647  0.1820  0.8910 -0.2817
 3248TIP3    H133939   6.376   0.870   7.679 -0.7217  0.2102 -1.6714
 3248TIP3    H233940   6.450   0.997   7.640  0.6026 -0.0255 -0.0471
 3249TIP3   OH233941   0.432   1.508   0.793 -0.2586  0.3463 -0.9127
 3249TIP3    H133942   0.519   1.479   0.769  0.0713  0.3852  0.1850
 3249TIP3    H233943   0.387   1.429   0.822  0.0198  0.5931  0.2535
 3250TIP3   OH233944   3.064   5.837   0.290 -0.2090 -0.4441 -0.5998
 3250TIP3    H133945   3.150   5.834   0.333  0.4732  1.8459 -1.6442
 3250TIP3    H233946   3.073   5.776   0.216  1.0950  0.8409 -1.5708
 3251TIP3   OH233947   3.127   1.939   2.118 -0.7723 -0.1464  0.2790
 3251TIP3    H133948   3.127   1.900   2.030 -0.0870 -0.1057  0.2520
 3251TIP3    H233949   3.040   1.921   2.152 -0.6435 -1.2847  0.0685
 3252TIP3   OH233950   3.588   3.641   9.035  0.2834  0.0374  0.2384
 3252TIP3    H133951   3.528   3.715   9.028 -0.4977 -0.5803  0.3058
 3252TIP3    H233952   3.576   3.608   9.124  2.3215  1.2251  1.0152
 3253TIP3   OH233953   7.467   4.475   0.453 -0.0648  0.1990 -0.3132
 3253TIP3    H133954   7.497   4.521   0.532 -0.3908  2.6075 -1.5049
 3253TIP3    H233955   7.395   4.528   0.420 -0.2718 -1.0387 -1.9885
 3254TIP3   OH233956   4.087   7.504   2.239 -0.2382  0.3090  0.1446
 3254TIP3    H133957   4.044   7.420   2.255 -0.9379  0.4742 -0.7409
 3254TIP3    H233958   4.019   7.570   2.257 -0.1085  0.6127 -0.4351
 3255TIP3   OH233959   4.179   0.716   1.525 -0.1689  0.2490 -0.3518
 3255TIP3    H133960   4.135   0.781   1.579 -0.0237 -0.2792  0.4239
 3255TIP3    H233961   4.226   0.661   1.588  1.2962  0.5768 -1.1353
 3256TIP3   OH233962   1.619   2.730   0.323  0.5059  0.2702 -0.1673
 3256TIP3    H133963   1.563   2.673   0.271  2.1719 -1.0647 -0.5809
 3256TIP3    H233964   1.592   2.819   0.299 -0.6857 -0.3370 -1.1458
 3257TIP3   OH233965   4.976   6.906   9.009  0.4890  0.3630  0.1372
 3257TIP3    H133966   4.883   6.888   8.995  0.4358  0.4593  0.3670
 3257TIP3    H233967   5.020   6.825   8.982  0.3857  0.5181 -0.5220
 3258TIP3   OH233968   3.903   1.615   8.304 -0.2066  0.1015  0.2465
 3258TIP3    H133969   3.847   1.546   8.267  1.5391 -0.7450 -0.9647
 3258TIP3    H233970   3.897   1.686   8.240 -1.7252  0.9855  1.3187
 3259TIP3   OH233971   2.686   2.396   0.424 -0.7128 -0.3040 -0.1919
 3259TIP3    H133972   2.594   2.422   0.424 -0.5848  0.2280  1.1615
 3259TIP3    H233973   2.693   2.332   0.352 -2.3508 -1.1029  0.3056
 3260TIP3   OH233974   7.629   3.908   9.011 -0.1003  0.0105  0.3166
 3260TIP3    H133975   7.592   3.858   9.084 -0.8637 -0.1517 -0.1748
 3260TIP3    H233976   7.721   3.882   9.009  0.0217  0.2685  1.4335
 3261TIP3   OH233977   2.628   3.718   0.218  0.2246 -0.7390  0.0201
 3261TIP3    H133978   2.657   3.655   0.152  1.6569 -0.8536  0.7253
 3261TIP3    H233979   2.688   3.706   0.291  0.3194  1.1828  0.3224
 3262TIP3   OH233980   0.395   1.274   2.472 -0.4585  0.3107  0.3369
 3262TIP3    H133981   0.400   1.235   2.559  0.7919  1.9721  1.0530
 3262TIP3    H233982   0.411   1.367   2.486 -1.5085  0.8195 -1.5350
 3263TIP3   OH233983   1.149   6.175   2.933 -0.0679 -0.0420  0.1564
 3263TIP3    H133984   1.231   6.125   2.932 -1.2873 -2.1359  0.3315
 3263TIP3    H233985   1.178   6.266   2.928  2.2156 -0.7402 -1.5854
 3264TIP3   OH233986   5.006   7.010   0.016 -0.2333 -0.4202 -0.5498
 3264TIP3    H133987   4.965   7.087  -0.024  0.8465  0.4962  0.0340
 3264TIP3    H233988   5.089   6.999  -0.031  0.6840  0.1985  0.8427
 3265TIP3   OH233989   7.105   5.279   9.160  0.3535 -0.1938 -0.0581
 3265TIP3    H133990   7.164   5.274   9.085  0.4415  0.9047 -0.0743
 3265TIP3    H233991   7.136   5.210   9.219  1.5726  0.2767 -0.1231
 3266TIP3   OH233992   6.372   5.400   8.370  0.3788  0.2090 -0.1721
 3266TIP3    H133993   6.302   5.434   8.315 -0.4521 -1.0911  0.0259
 3266TIP3    H233994   6.453   5.424   8.325 -0.2330  0.6604 -1.0513
 3267TIP3   OH233995   3.428   5.282   2.414 -0.0421 -0.0751 -0.2114
 3267TIP3    H133996   3.409   5.351   2.478 -0.9943 -0.1287 -0.4274
 3267TIP3    H233997   3.449   5.205   2.468  1.5796  0.4991  0.0360
 3268TIP3   OH233998   6.467   6.661   0.971  0.1670  0.2153 -0.2302
 3268TIP3    H133999   6.539   6.598   0.981 -0.9415 -0.9424  0.7853
 3268TIP3    H234000   6.436   6.648   0.881  0.7543  0.2196 -0.4380
 3269TIP3   OH234001   5.454   6.658   6.847  0.2512  0.1295 -0.1586
 3269TIP3    H134002   5.426   6.573   6.880  0.1688 -1.2481 -3.3919
 3269TIP3    H234003   5.549   6.651   6.838  0.5580  1.2966  1.7486
 3270TIP3   OH234004   1.968   1.561   2.825 -0.2850  0.0435  0.0393
 3270TIP3    H134005   1.972   1.490   2.889 -0.7348  0.3486  0.4120
 3270TIP3    H234006   1.888   1.543   2.775  0.1464 -0.2780 -0.5370
 3271TIP3   OH234007   0.380   6.831   7.698  0.5107 -0.4508 -0.0972
 3271TIP3    H134008   0.464   6.871   7.676  1.3954 -1.7754  0.7453
 3271TIP3    H234009   0.395   6.788   7.782 -0.9075 -1.0609 -0.1254
 3272TIP3   OH234010   0.625   3.360   0.798  0.5860  0.4203 -0.0058
 3272TIP3    H134011   0.677   3.390   0.873  1.2205 -0.8330  0.0966
 3272TIP3    H234012   0.613   3.437   0.744  0.5336  1.2480  1.1477
 3273TIP3   OH234013   2.445   3.271   9.147  0.3913  0.3752 -0.4520
 3273TIP3    H134014   2.524   3.313   9.181  0.3802 -0.8843  1.1978
 3273TIP3    H234015   2.400   3.341   9.100  1.3485  1.7069  0.5390
 3274TIP3   OH234016   3.746   6.226   9.661 -0.1652  0.1111 -0.1130
 3274TIP3    H134017   3.677   6.280   9.701 -1.1790 -0.1637 -1.4368
 3274TIP3    H234018   3.821   6.236   9.720 -0.6611  2.0952  0.2601
 3275TIP3   OH234019   2.026   1.087   2.187  0.2397  0.3722  0.0643
 3275TIP3    H134020   1.993   0.997   2.192 -0.6174  0.6705  0.0338
 3275TIP3    H234021   2.113   1.079   2.148  0.1873 -0.4439  0.0942
 3276TIP3   OH234022   6.048   1.691   1.156 -0.6753 -0.4261 -0.2703
 3276TIP3    H134023   6.027   1.686   1.062 -1.6330  1.5180 -0.2268
 3276TIP3    H234024   5.991   1.761   1.188  1.3376  0.6026  1.2746
 3277TIP3   OH234025   7.600   2.041   1.831  0.5480 -0.7159  0.4992
 3277TIP3    H134026   7.578   2.046   1.738  1.0393 -1.0171  0.3630
 3277TIP3    H234027   7.623   2.131   1.855 -1.0401 -0.3373  0.7112
 3278TIP3   OH234028   4.661   0.343   2.729  0.6125 -0.0506 -0.2956
 3278TIP3    H134029   4.620   0.313   2.810  0.4277  0.7375 -0.0835
 3278TIP3    H234030   4.754   0.350   2.751  0.2154  3.5579  1.0396
 3279TIP3   OH234031   7.582   0.240   7.831  0.2538 -0.3795 -0.2678
 3279TIP3    H134032   7.568   0.315   7.889  0.5716 -0.5663  0.0596
 3279TIP3    H234033   7.538   0.167   7.875 -0.6146 -0.2552 -0.9070
 3280TIP3   OH234034   6.973   1.208   8.699  0.1005 -0.5060 -0.2449
 3280TIP3    H134035   6.960   1.276   8.633 -0.2019 -1.2669 -0.9918
 3280TIP3    H234036   7.066   1.212   8.720  0.1347 -0.0480 -0.4755
 3281TIP3   OH234037   4.565   2.090   9.328 -0.3998 -0.0862  0.1143
 3281TIP3    H134038   4.509   2.131   9.261 -0.5372 -1.4863 -0.6683
 3281TIP3    H234039   4.504   2.037   9.380 -0.0977 -0.0393  0.5139
 3282TIP3   OH234040   2.860   6.371   7.639  0.3319  0.6620  0.2901
 3282TIP3    H134041   2.838   6.464   7.633 -0.4077  0.3998 -2.1955
 3282TIP3    H234042   2.822   6.343   7.722  1.6660  2.8044  1.7149
 3283TIP3   OH234043   5.157   7.565   1.005  0.1378 -0.3517  0.1910
 3283TIP3    H134044   5.153   7.555   0.910 -0.4161 -3.6384  0.4396
 3283TIP3    H234045   5.239   7.522   1.030  0.7455  1.2777  1.1896
 3284TIP3   OH234046   5.122   4.522   7.952 -0.3423 -0.1152 -0.1629
 3284TIP3    H134047   5.188   4.546   8.017 -2.1085  2.0067  0.9916
 3284TIP3    H234048   5.166   4.533   7.868  1.1391 -0.0388  0.5953
 3285TIP3   OH234049   2.413   0.168   8.150 -0.1441 -0.1762 -0.0477
 3285TIP3    H134050   2.459   0.143   8.230  0.4184  0.7735 -0.0526
 3285TIP3    H234051   2.389   0.085   8.109  1.7294 -0.7157 -0.1310
 3286TIP3   OH234052   5.386   6.551   7.453 -0.3755 -0.2666  0.5270
 3286TIP3    H134053   5.321   6.534   7.385  0.2468  1.8050 -0.6589
 3286TIP3    H234054   5.425   6.465   7.471 -1.4462 -1.0582 -0.7853
 3287TIP3   OH234055   1.780   3.886   9.304  0.4350 -0.3890  0.5995
 3287TIP3    H134056   1.776   3.791   9.299  0.0691 -0.3093 -0.9251
 3287TIP3    H234057   1.824   3.914   9.224  0.3092  0.7475  0.8984
 3288TIP3   OH234058   4.240   0.926   0.991 -0.1911 -0.6554 -0.0364
 3288TIP3    H134059   4.241   0.876   0.910  1.1653  0.1011 -0.5176
 3288TIP3    H234060   4.330   0.958   1.001 -0.4695 -0.2451  1.4594
 3289TIP3   OH234061   3.900   3.845   8.703  0.2125  0.7093 -0.7077
 3289TIP3    H134062   3.895   3.835   8.608 -0.1858 -2.1722 -0.4503
 3289TIP3    H234063   3.848   3.773   8.738  1.3667  0.9655  1.7347
 3290TIP3   OH234064   6.073   2.410   8.857 -0.3266 -0.1600 -0.2327
 3290TIP3    H134065   6.069   2.487   8.800  0.5278 -1.2890 -1.9193
 3290TIP3    H234066   6.071   2.446   8.945  0.2846  1.8191 -0.9549
 3291TIP3   OH234067   6.067   1.066   9.191  0.3241  0.3674 -0.4637
 3291TIP3    H134068   6.103   1.068   9.279  0.3075 -0.8843 -0.4173
 3291TIP3    H234069   6.144   1.070   9.134  0.4143 -0.2415 -0.3829
 3292TIP3   OH234070   7.553   1.236   2.447 -0.0664 -0.4744  0.0041
 3292TIP3    H134071   7.483   1.266   2.388  0.1847  1.7252  0.7514
 3292TIP3    H234072   7.629   1.287   2.422  0.6772 -1.1934  0.7341
 3293TIP3   OH234073   0.367   7.120   7.804  0.6570 -0.1764  0.3603
 3293TIP3    H134074   0.409   7.054   7.858  0.6144  0.9152  1.7735
 3293TIP3    H234075   0.424   7.128   7.727  1.4156 -0.8391  0.8377
 3294TIP3   OH234076   1.725   0.117   8.956  0.1915  0.0347  0.1748
 3294TIP3    H134077   1.663   0.045   8.945  0.4471 -0.0028 -1.1380
 3294TIP3    H234078   1.698   0.159   9.037 -0.8760 -0.6426  0.1933
 3295TIP3   OH234079   3.589   5.293   7.528 -0.6335 -0.9285  0.3023
 3295TIP3    H134080   3.630   5.258   7.449 -1.4834  0.0070 -0.5863
 3295TIP3    H234081   3.512   5.340   7.495 -0.7470 -0.1433  1.6552
 3296TIP3   OH234082   6.199   5.404   8.893  0.0529 -0.0090 -0.0745
 3296TIP3    H134083   6.133   5.401   8.824 -0.9322  0.6837  0.8037
 3296TIP3    H234084   6.201   5.314   8.928  0.3426 -0.2867 -0.7870
 3297TIP3   OH234085   6.765   1.851   2.113  0.0174  0.6671  0.6013
 3297TIP3    H134086   6.809   1.901   2.044  0.4405  0.1567  0.4945
 3297TIP3    H234087   6.690   1.812   2.069 -0.5600  1.5471  0.7856
 3298TIP3   OH234088   7.669   7.546   8.609 -0.3812 -0.1399 -0.3937
 3298TIP3    H134089   7.744   7.566   8.665  0.6551 -0.8542 -1.4675
 3298TIP3    H234090   7.606   7.616   8.626  0.3272  0.2031  0.8967
 3299TIP3   OH234091   3.427   1.800   1.814  0.2761  0.1213  0.6836
 3299TIP3    H134092   3.465   1.713   1.805 -0.3551 -0.0529 -0.5337
 3299TIP3    H234093   3.346   1.796   1.764  0.5908  1.6095 -0.0061
 3300TIP3   OH234094   6.209   2.228   8.290 -0.2070  0.3957  0.3023
 3300TIP3    H134095   6.147   2.300   8.285  2.3486  2.7401 -0.8194
 3300TIP3    H234096   6.242   2.218   8.200  2.9044  1.1751  1.2357
 3301TIP3   OH234097   1.648   4.191   0.319  0.5240 -0.3155 -0.7234
 3301TIP3    H134098   1.618   4.228   0.236 -0.5748 -1.6344 -0.9537
 3301TIP3    H234099   1.653   4.265   0.379 -0.6766  0.3436 -1.4244
 3302TIP3   OH234100   3.623   0.653   7.423  0.2985  0.5513 -0.0118
 3302TIP3    H134101   3.692   0.619   7.366 -0.9209 -0.5556 -0.9010
 3302TIP3    H234102   3.545   0.657   7.367 -0.3952  1.6496  0.9897
 3303TIP3   OH234103   0.094   4.044   6.872  0.0808  0.4411  0.1903
 3303TIP3    H134104   0.014   4.042   6.819 -1.0492 -0.3415  1.8096
 3303TIP3    H234105   0.165   4.036   6.809 -1.0247  2.5713 -1.4389
 3304TIP3   OH234106   2.611   7.512   7.863  0.2416  0.2767  0.8022
 3304TIP3    H134107   2.626   7.423   7.831  0.1517  0.5153  0.0667
 3304TIP3    H234108   2.517   7.526   7.851  0.5779  1.2247 -1.1577
 3305TIP3   OH234109   0.764   2.808   9.507 -0.1747  0.3854 -0.0029
 3305TIP3    H134110   0.789   2.726   9.465  0.3431  0.8751 -0.6849
 3305TIP3    H234111   0.841   2.833   9.559 -1.1434 -0.7117  2.1153
 3306TIP3   OH234112   2.396   4.871   7.243  0.3154  0.1412  0.6779
 3306TIP3    H134113   2.322   4.932   7.246  0.4210  0.3752 -0.6661
 3306TIP3    H234114   2.448   4.892   7.321  1.3494  3.1157 -0.6716
 3307TIP3   OH234115   7.412   7.042   2.334 -0.7148 -0.0951  0.8458
 3307TIP3    H134116   7.340   7.029   2.273  1.2920  0.3223 -1.7495
 3307TIP3    H234117   7.460   6.959   2.334 -0.8846 -0.2291  2.2169
 3308TIP3   OH234118   5.139   5.785   0.201  0.1879  0.2305 -0.5537
 3308TIP3    H134119   5.102   5.697   0.205  1.3342 -0.3128 -1.5581
 3308TIP3    H234120   5.071   5.841   0.239 -1.0892 -0.9137 -1.0773
 3309TIP3   OH234121   2.071   7.054   0.103 -0.4778  0.2305 -0.6022
 3309TIP3    H134122   2.162   7.033   0.082 -0.4113 -1.4498  1.1576
 3309TIP3    H234123   2.022   7.029   0.024  0.3827 -0.5918 -0.8950
 3310TIP3   OH234124   0.240   1.063   0.643  0.3673  0.3821  0.1701
 3310TIP3    H134125   0.152   1.069   0.680  1.1376  2.2499  1.8322
 3310TIP3    H234126   0.267   0.973   0.661 -1.0587 -0.1403 -0.1255
 3311TIP3   OH234127   1.529   5.836   7.800  0.1171 -0.0266 -0.8839
 3311TIP3    H134128   1.578   5.836   7.718  0.0108 -0.8526 -0.9487
 3311TIP3    H234129   1.596   5.841   7.868  0.1789  1.7904 -1.0115
 3312TIP3   OH234130   4.195   4.603   7.200 -0.1658  0.5769 -0.3371
 3312TIP3    H134131   4.197   4.608   7.296  0.2734 -2.1272 -0.1394
 3312TIP3    H234132   4.105   4.580   7.179 -0.2118  0.9708 -0.5941
 3313TIP3   OH234133   7.266   0.052   9.833 -0.0439 -0.7009 -0.7743
 3313TIP3    H134134   7.330   0.061   9.762 -0.4900 -1.1894 -1.2389
 3313TIP3    H234135   7.217  -0.027   9.812  0.8341 -1.7694  0.8862
 3314TIP3   OH234136   1.566   0.160   7.374 -0.3564 -0.0782 -0.6264
 3314TIP3    H134137   1.493   0.217   7.349  0.9771  0.7744 -2.8094
 3314TIP3    H234138   1.542   0.074   7.341 -0.2280  0.2794 -1.6768
 3315TIP3   OH234139   3.476   5.248   0.958 -0.5757 -0.4281  0.3252
 3315TIP3    H134140   3.394   5.295   0.974 -0.1071  0.1896  1.0030
 3315TIP3    H234141   3.487   5.250   0.863 -0.2738  1.3884  0.3592
 3316TIP3   OH234142   5.845   1.773   1.777  0.0788  0.0568  0.4144
 3316TIP3    H134143   5.786   1.733   1.840 -1.0002  1.7418  0.5216
 3316TIP3    H234144   5.923   1.794   1.828 -0.5061  0.7597  1.0412
 3317TIP3   OH234145   7.626   5.342   8.053  0.4464  0.3404 -0.6401
 3317TIP3    H134146   7.715   5.343   8.018  0.4933 -0.3934 -0.5617
 3317TIP3    H234147   7.637   5.353   8.148  0.5494 -0.8647 -0.4880
 3318TIP3   OH234148   2.855   4.650   9.768  0.3999  0.1105 -0.4900
 3318TIP3    H134149   2.857   4.744   9.785 -1.5985  0.1699 -0.3510
 3318TIP3    H234150   2.919   4.613   9.829  0.0864  1.2485  0.5708
 3319TIP3   OH234151   3.136   2.677   9.816 -0.6329 -0.3507  0.0229
 3319TIP3    H134152   3.209   2.620   9.840  0.5363 -0.2793 -2.9535
 3319TIP3    H234153   3.059   2.622   9.827 -0.1293 -0.6903  2.4501
 3320TIP3   OH234154   4.786   4.681   8.176 -0.0979  0.1942  0.2012
 3320TIP3    H134155   4.809   4.723   8.259  0.5470 -1.5887  0.9776
 3320TIP3    H234156   4.695   4.654   8.187 -0.7430  1.9396 -0.5699
 3321TIP3   OH234157   0.626   4.178   7.452  0.1140  0.2023 -0.2564
 3321TIP3    H134158   0.710   4.180   7.498  0.5929 -2.7534 -0.7944
 3321TIP3    H234159   0.626   4.094   7.406 -3.2562 -0.0276 -0.0743
 3322TIP3   OH234160   6.664   6.803   8.083  0.0612  0.1167 -0.1924
 3322TIP3    H134161   6.691   6.747   8.010  0.0363  0.2024 -0.2671
 3322TIP3    H234162   6.723   6.878   8.079 -0.5573  0.5821 -0.7017
 3323TIP3   OH234163   0.680   3.657   0.942 -0.0229 -0.2319 -0.3649
 3323TIP3    H134164   0.682   3.607   0.861 -0.7884 -0.6838 -0.1147
 3323TIP3    H234165   0.748   3.724   0.931  0.4269 -0.7855 -1.0462
 3324TIP3   OH234166   6.063   3.116   8.512  0.4238  0.5376 -0.0766
 3324TIP3    H134167   5.973   3.111   8.543 -0.3513  0.8858 -2.0748
 3324TIP3    H234168   6.112   3.152   8.586 -1.2566  1.2472  0.7532
 3325TIP3   OH234169   6.266   4.648   6.941 -0.0334 -0.1162  0.4954
 3325TIP3    H134170   6.196   4.612   6.995 -0.2139 -0.2311  0.1801
 3325TIP3    H234171   6.281   4.583   6.873 -0.7216  0.6227 -0.3930
 3326TIP3   OH234172   1.756   4.656   2.326  0.5262 -0.1185  0.1555
 3326TIP3    H134173   1.798   4.570   2.328 -1.9192 -1.4396 -0.8824
 3326TIP3    H234174   1.678   4.646   2.380 -0.7006  0.8863 -1.3422
 3327TIP3   OH234175   1.794   0.598   3.145  0.0159  0.0318 -0.4824
 3327TIP3    H134176   1.812   0.545   3.223 -3.2164 -1.4546 -0.5726
 3327TIP3    H234177   1.803   0.688   3.174  1.2826 -0.5068  0.9232
 3328TIP3   OH234178   3.249   5.464   9.449 -0.3607 -0.0427 -0.4471
 3328TIP3    H134179   3.219   5.405   9.518  0.0044 -0.4150 -0.5976
 3328TIP3    H234180   3.174   5.520   9.431 -0.0713  0.9397  1.1620
 3329TIP3   OH234181   6.090   3.610   0.173  0.8021  0.4985 -0.0438
 3329TIP3    H134182   6.169   3.649   0.136  1.5019  0.1072  0.9909
 3329TIP3    H234183   6.055   3.677   0.232  0.8101  0.3695  0.1087
 3330TIP3   OH234184   0.717   0.900   0.135  0.1472  0.3222 -0.9329
 3330TIP3    H134185   0.686   0.989   0.119 -0.2860  0.6573  1.4078
 3330TIP3    H234186   0.787   0.910   0.200  0.4151 -0.9918 -0.9837
 3331TIP3   OH234187   6.801   0.285   3.089  0.1741 -0.0126  0.5529
 3331TIP3    H134188   6.804   0.347   3.162  1.1054 -0.0136  0.5266
 3331TIP3    H234189   6.758   0.207   3.125 -0.7384  0.5326  0.6649
 3332TIP3   OH234190   0.663   1.809   2.538  0.1969 -0.1896  0.0491
 3332TIP3    H134191   0.729   1.838   2.475  0.6922  0.3215  0.7797
 3332TIP3    H234192   0.610   1.887   2.554 -0.4536 -0.5402 -0.3635
 3333TIP3   OH234193   0.987   4.941   9.553  0.1223  0.3002 -0.6171
 3333TIP3    H134194   0.918   4.958   9.489  0.2398 -3.4602 -1.9823
 3333TIP3    H234195   0.950   4.875   9.611  1.6784  0.2102  0.3202
 3334TIP3   OH234196   4.609   3.217   8.175 -0.6510 -0.5959  0.3504
 3334TIP3    H134197   4.612   3.312   8.172 -1.0334 -0.5750  0.5845
 3334TIP3    H234198   4.608   3.196   8.269 -2.2789 -0.7622  0.3264
 3335TIP3   OH234199   0.952   4.817   8.903 -0.0561 -0.7703 -0.0138
 3335TIP3    H134200   0.918   4.896   8.861 -0.7149 -0.2553  1.4134
 3335TIP3    H234201   1.005   4.774   8.835 -0.3752  0.4512 -1.0716
 3336TIP3   OH234202   7.597   3.922   1.524  0.0482  0.1286 -0.6077
 3336TIP3    H134203   7.558   3.854   1.579  1.7770  0.2800  0.8899
 3336TIP3    H234204   7.523   3.977   1.499 -0.7823  0.4592  2.2027
 3337TIP3   OH234205   3.490   6.401   2.375 -0.4016  0.4551 -0.0520
 3337TIP3    H134206   3.525   6.409   2.464  0.0704  2.2919 -0.3603
 3337TIP3    H234207   3.398   6.377   2.389 -0.9442  2.8457  1.0812
 3338TIP3   OH234208   6.174   1.447   9.299 -0.2832 -0.2484 -0.2226
 3338TIP3    H134209   6.156   1.541   9.302  1.5917  0.1164  2.5223
 3338TIP3    H234210   6.164   1.417   9.389 -0.2322 -2.6156 -0.9236
 3339TIP3   OH234211   2.661   7.579   7.185  0.1059  0.2712  0.6080
 3339TIP3    H134212   2.722   7.570   7.112 -0.6284  0.5935 -0.0578
 3339TIP3    H234213   2.585   7.623   7.147 -0.0296  1.0170  1.7095
 3340TIP3   OH234214   5.388   2.156   7.811 -0.5113 -0.1612  0.1432
 3340TIP3    H134215   5.408   2.083   7.752  0.6117  0.0224  0.2811
 3340TIP3    H234216   5.348   2.222   7.754 -0.0019 -0.2266 -0.3016
 3341TIP3   OH234217   3.515   4.992   0.656 -0.1632  0.5542  0.2401
 3341TIP3    H134218   3.510   5.087   0.651 -1.4846  0.4770 -0.2022
 3341TIP3    H234219   3.490   4.972   0.747  0.3093  0.6376  0.3893
 3342TIP3   OH234220   6.621   5.915   0.124  0.3129 -0.2038 -0.2222
 3342TIP3    H134221   6.617   5.880   0.035  0.1609 -3.7082  1.0091
 3342TIP3    H234222   6.707   5.956   0.130  0.5969 -0.5215 -1.7534
 3343TIP3   OH234223   4.002   1.807   0.826 -0.2932 -0.0808  0.2843
 3343TIP3    H134224   3.944   1.799   0.751 -2.0291  1.7325  1.3111
 3343TIP3    H234225   3.976   1.889   0.868  1.4660 -0.3708  2.1537
 3344TIP3   OH234226   6.982   2.085   0.071 -0.2387  0.2303 -0.0405
 3344TIP3    H134227   6.907   2.026   0.074 -0.0025 -0.0500  0.5650
 3344TIP3    H234228   7.043   2.049   0.136 -0.5321  1.7502  1.1225
 3345TIP3   OH234229   1.764   0.277   8.734  0.8149  0.2070  0.2496
 3345TIP3    H134230   1.716   0.194   8.738 -1.0774  1.2391  0.3867
 3345TIP3    H234231   1.832   0.269   8.801  0.6325 -1.2073  0.2945
 3346TIP3   OH234232   4.110   0.123   0.204  0.0959  0.2940  0.4238
 3346TIP3    H134233   4.131   0.119   0.110 -1.2400 -0.0361  0.1220
 3346TIP3    H234234   4.144   0.042   0.240 -1.0437 -0.4682 -0.1553
 3347TIP3   OH234235   4.663   4.872   8.597  0.3029  0.5869  0.1111
 3347TIP3    H134236   4.671   4.959   8.637 -0.4647  0.2627  0.9780
 3347TIP3    H234237   4.583   4.877   8.545  0.5314  0.5435 -0.2539
 3348TIP3   OH234238   3.671   0.974   2.438  0.1351  0.0891 -0.4881
 3348TIP3    H134239   3.623   0.955   2.518  0.4650 -1.3172 -0.5987
 3348TIP3    H234240   3.759   0.939   2.453  0.8472  1.6917 -0.6892
 3349TIP3   OH234241   0.745   0.048   9.067 -0.4781  0.2084  0.4764
 3349TIP3    H134242   0.766   0.135   9.033 -1.7770  0.4464  0.2269
 3349TIP3    H234243   0.657   0.057   9.104 -0.1551 -0.7154  1.5232
 3350TIP3   OH234244   1.614   7.133   6.870 -0.0230  0.1827 -0.0826
 3350TIP3    H134245   1.613   7.042   6.840 -0.6252  0.3222 -0.5011
 3350TIP3    H234246   1.540   7.138   6.931  0.3381  0.2615  0.3574
 3351TIP3   OH234247   6.474   7.217   2.666  0.5239  0.1928 -0.5404
 3351TIP3    H134248   6.561   7.251   2.690  1.0595 -1.6414  0.3199
 3351TIP3    H234249   6.481   7.199   2.572  0.1955  2.4342 -1.0345
 3352TIP3   OH234250   2.666   0.151   1.198 -0.2112 -0.1424 -0.0058
 3352TIP3    H134251   2.652   0.094   1.122 -1.0890 -0.2182  0.2117
 3352TIP3    H234252   2.583   0.151   1.244  0.0977  0.4980  0.5626
 3353TIP3   OH234253   3.183   6.826   1.247 -0.6591 -0.5486 -1.1701
 3353TIP3    H134254   3.157   6.764   1.315  1.3543 -0.3722 -0.1560
 3353TIP3    H234255   3.259   6.785   1.205 -0.7500  0.1847 -2.0891
 3354TIP3   OH234256   4.845   1.494   7.807 -0.5286 -0.0614  0.0225
 3354TIP3    H134257   4.822   1.523   7.895  0.0174  0.8074 -0.1084
 3354TIP3    H234258   4.924   1.442   7.818  0.6474  1.6074 -0.1311
 3355TIP3   OH234259   4.178   5.241   6.502  0.4877 -0.5439 -0.2790
 3355TIP3    H134260   4.222   5.248   6.586  0.2976  0.3666 -0.2495
 3355TIP3    H234261   4.223   5.303   6.445  0.1948 -0.6746 -0.6629
 3356TIP3   OH234262   1.594   1.690   8.119 -0.4983  0.2784  0.0663
 3356TIP3    H134263   1.652   1.622   8.152  1.2826  1.0939 -1.2501
 3356TIP3    H234264   1.539   1.646   8.054 -1.1345 -0.4049  1.0332
 3357TIP3   OH234265   3.281   7.206   7.594 -0.2304  0.8880  0.6642
 3357TIP3    H134266   3.346   7.220   7.662  2.3950 -0.6165 -1.3437
 3357TIP3    H234267   3.269   7.111   7.592 -0.4262  0.9215 -0.7613
 3358TIP3   OH234268   4.569   2.442   2.798 -0.1319  0.7224  0.6730
 3358TIP3    H134269   4.636   2.408   2.858  0.2896 -4.0231 -1.9767
 3358TIP3    H234270   4.486   2.420   2.840  0.0574  1.2621  1.3427
 3359TIP3   OH234271   0.116   2.468   9.306  0.2543 -0.1443  0.6051
 3359TIP3    H134272   0.070   2.412   9.368  3.2743  0.8098  4.0478
 3359TIP3    H234273   0.134   2.412   9.231 -2.5645 -1.7041  0.9678
 3360TIP3   OH234274   6.853   1.463   7.391 -0.2525 -0.0372  0.7790
 3360TIP3    H134275   6.887   1.484   7.478  1.2208  0.8108  0.0356
 3360TIP3    H234276   6.759   1.448   7.405  0.0666 -0.5743  2.6068
 3361TIP3   OH234277   7.438   4.810   0.045  0.2285  0.6998 -0.4334
 3361TIP3    H134278   7.446   4.741  -0.020 -0.3602 -0.2694  0.4923
 3361TIP3    H234279   7.480   4.886   0.004 -0.8063  0.3556 -2.2459
 3362TIP3   OH234280   7.467   2.807   6.848  0.0820 -0.1534  0.1307
 3362TIP3    H134281   7.459   2.722   6.805 -0.9691 -0.4485  0.8541
 3362TIP3    H234282   7.415   2.798   6.928 -1.5684  1.7345 -0.6444
 3363TIP3   OH234283   4.949   7.181   1.726  0.0859 -0.1008  0.4983
 3363TIP3    H134284   4.895   7.248   1.683 -0.0994  1.3905  2.9161
 3363TIP3    H234285   4.922   7.183   1.818  0.4141 -3.2057  0.7840
 3364TIP3   OH234286   1.805   6.131   1.882 -0.5689  0.4208  0.1399
 3364TIP3    H134287   1.815   6.072   1.808 -0.9636  0.1349  0.3122
 3364TIP3    H234288   1.780   6.215   1.843  0.9211  0.7415 -0.1806
 3365TIP3   OH234289   1.286   2.272   0.359  0.2723 -0.0138  0.4432
 3365TIP3    H134290   1.352   2.276   0.428  0.0199  0.5625  0.6527
 3365TIP3    H234291   1.232   2.349   0.373  0.3199  0.1987 -0.5057
 3366TIP3   OH234292   7.071   1.500   0.969 -0.0271  0.1558 -0.3741
 3366TIP3    H134293   7.023   1.583   0.964  0.9387  0.7454 -0.0644
 3366TIP3    H234294   7.098   1.494   1.060 -1.2831 -1.2097 -0.0426
 3367TIP3   OH234295   4.379   6.971   0.712  0.7886  0.3941  0.4085
 3367TIP3    H134296   4.363   6.994   0.621  1.4516  2.3004  0.7250
 3367TIP3    H234297   4.470   6.998   0.728  1.1979 -1.3188  1.2366
 3368TIP3   OH234298   1.239   5.952   9.273 -0.1297 -0.5874  0.0526
 3368TIP3    H134299   1.310   5.973   9.213 -0.8610 -0.5438 -0.8199
 3368TIP3    H234300   1.211   6.036   9.309 -0.6370 -0.4341 -0.6615
 3369TIP3   OH234301   5.805   0.859   6.903 -0.3638  0.0898 -0.0770
 3369TIP3    H134302   5.797   0.847   6.808  1.9735 -1.9586 -0.1286
 3369TIP3    H234303   5.856   0.939   6.913 -0.8268  0.4462 -0.5431
 3370TIP3   OH234304   6.101   1.550   7.738 -0.3436  0.0294 -0.0932
 3370TIP3    H134305   6.062   1.531   7.823 -0.0499  1.3483  0.3594
 3370TIP3    H234306   6.190   1.580   7.759 -0.0258 -0.3119 -0.9126
 3371TIP3   OH234307   7.598   3.510   1.560 -0.2459 -0.2153 -0.3010
 3371TIP3    H134308   7.544   3.586   1.578  0.8344  0.2971  0.9374
 3371TIP3    H234309   7.628   3.522   1.470 -0.5758  0.5061 -0.3169
 3372TIP3   OH234310   2.888   7.570   0.342 -0.0429 -0.1294 -0.2672
 3372TIP3    H134311   2.886   7.554   0.248  1.3342 -0.6579 -0.2300
 3372TIP3    H234312   2.959   7.633   0.354  0.3367 -0.6881  0.4919
 3373TIP3   OH234313   3.921   5.956   0.877 -0.1125 -0.5806 -0.0068
 3373TIP3    H134314   3.997   5.939   0.822 -0.5245 -1.3179 -0.3639
 3373TIP3    H234315   3.899   5.872   0.916 -0.9606 -0.4628 -0.1955
 3374TIP3   OH234316   2.343   5.026   9.428  0.2035 -0.3949 -0.4147
 3374TIP3    H134317   2.252   4.997   9.427  0.2164 -0.4759  0.3178
 3374TIP3    H234318   2.360   5.050   9.519  1.6147 -2.6839  0.0230
 3375TIP3   OH234319   1.036   2.752   6.874 -0.1859 -0.3897  0.8172
 3375TIP3    H134320   1.122   2.722   6.844  1.3463  1.7431  2.7210
 3375TIP3    H234321   0.992   2.781   6.794  1.1226 -0.8966 -0.1294
 3376TIP3   OH234322   4.108   1.496   0.238 -0.4357 -0.1208 -0.1516
 3376TIP3    H134323   4.078   1.448   0.316  0.0943 -0.6214 -0.2463
 3376TIP3    H234324   4.036   1.488   0.176 -1.0946  0.7497  0.4682
 3377TIP3   OH234325   4.171   3.775   7.591  0.1832  0.3445  0.5076
 3377TIP3    H134326   4.102   3.736   7.645 -0.5280 -0.8427 -1.1715
 3377TIP3    H234327   4.133   3.857   7.559 -0.1011  0.1559  0.3555
 3378TIP3   OH234328   0.149   7.273   7.837 -0.1964  0.2892 -0.2192
 3378TIP3    H134329   0.085   7.255   7.767  0.9751  0.6111 -1.4127
 3378TIP3    H234330   0.228   7.228   7.809  0.1292 -0.1261  1.2621
 3379TIP3   OH234331   4.871   0.145   9.212  0.1254  0.0350  0.1163
 3379TIP3    H134332   4.784   0.142   9.250  0.9109 -0.9462  2.0121
 3379TIP3    H234333   4.885   0.236   9.189 -2.3817 -0.1957 -2.8307
 3380TIP3   OH234334   4.406   6.903   2.632  0.4652  0.1586 -0.2033
 3380TIP3    H134335   4.420   6.923   2.725 -0.1463  0.8151 -0.2445
 3380TIP3    H234336   4.355   6.821   2.632  0.8243 -0.0657  0.0273
 3381TIP3   OH234337   5.404   4.093   8.824  0.3308  0.1493  0.2604
 3381TIP3    H134338   5.423   4.066   8.914  0.8007 -0.4011 -0.0010
 3381TIP3    H234339   5.332   4.156   8.833  0.4899  0.2330  1.0342
 3382TIP3   OH234340   0.656   7.243   0.183 -0.6944 -0.1646  0.1927
 3382TIP3    H134341   0.577   7.295   0.195 -0.8199 -0.3231  0.0526
 3382TIP3    H234342   0.703   7.250   0.267 -1.5038 -1.1688  0.7498
 3383TIP3   OH234343   5.111   3.690   9.324 -0.5715 -0.3607 -0.4485
 3383TIP3    H134344   5.173   3.663   9.392 -2.0871 -0.4253  0.9969
 3383TIP3    H234345   5.158   3.756   9.273  0.7123 -0.4833  0.5183
 3384TIP3   OH234346   2.316   4.299   0.625  0.6502  0.1335 -0.0382
 3384TIP3    H134347   2.271   4.294   0.541 -0.5301  1.1342  0.5065
 3384TIP3    H234348   2.273   4.233   0.679  0.6484  0.2655  0.1235
 3385TIP3   OH234349   2.678   4.733   1.232  0.0446 -0.5957  0.4434
 3385TIP3    H134350   2.752   4.767   1.183 -0.7616 -1.6872 -1.6774
 3385TIP3    H234351   2.712   4.717   1.320  2.1683 -0.5902 -0.3256
 3386TIP3   OH234352   3.785   7.549   9.153 -0.4507  0.0853  0.3096
 3386TIP3    H134353   3.730   7.497   9.213 -0.4477  0.1353  0.3552
 3386TIP3    H234354   3.873   7.544   9.190 -0.2115 -0.9009 -0.3574
 3387TIP3   OH234355   5.728   5.952   8.877  0.0719  0.5055  0.1885
 3387TIP3    H134356   5.794   6.013   8.844  0.5222 -0.2539 -0.3461
 3387TIP3    H234357   5.693   5.910   8.799  0.7954 -0.9556  0.6041
 3388TIP3   OH234358   7.617   1.816   7.954 -0.3259  0.3439 -0.1202
 3388TIP3    H134359   7.550   1.761   7.994  0.8571 -1.4198 -0.4349
 3388TIP3    H234360   7.695   1.760   7.951  0.9454  2.0609 -0.4672
 3389TIP3   OH234361   3.802   1.838   8.168 -0.5397  0.2601 -0.3552
 3389TIP3    H134362   3.784   1.836   8.073 -1.6831 -3.0916 -0.2243
 3389TIP3    H234363   3.743   1.905   8.202 -1.8003 -0.0449 -1.7973
 3390TIP3   OH234364   6.687   1.295   2.797  0.5005  0.2325  0.4590
 3390TIP3    H134365   6.627   1.245   2.853  1.0449 -1.9289 -0.7328
 3390TIP3    H234366   6.651   1.282   2.709  2.0491 -0.1351 -0.1423
 3391TIP3   OH234367   0.855   2.592   9.274 -0.0579  0.7570 -0.1564
 3391TIP3    H134368   0.787   2.543   9.229  2.1326 -1.1420 -1.5853
 3391TIP3    H234369   0.856   2.556   9.363 -0.1194 -0.0342 -0.4745
 3392TIP3   OH234370   1.578   3.537   1.238  0.4874  0.3405  0.1105
 3392TIP3    H134371   1.600   3.605   1.174  1.0359 -0.2965 -0.3956
 3392TIP3    H234372   1.663   3.499   1.262  0.3986  1.1980  1.9545
 3393TIP3   OH234373   1.264   3.559   2.961  0.3519  0.2176 -0.0907
 3393TIP3    H134374   1.206   3.569   3.036 -0.3035 -0.6000 -0.4644
 3393TIP3    H234375   1.262   3.465   2.942  1.5382  0.2289 -0.3242
 3394TIP3   OH234376   6.417   3.011   9.222  0.6539 -0.2087  0.0137
 3394TIP3    H134377   6.403   2.938   9.161 -0.4307 -0.3758  0.4477
 3394TIP3    H234378   6.338   3.064   9.215  0.5369 -0.1961  1.2210
 3395TIP3   OH234379   2.000   3.760   2.180 -0.3749  0.1677 -0.0516
 3395TIP3    H134380   2.066   3.691   2.178 -0.3540  0.1510  0.8649
 3395TIP3    H234381   2.040   3.830   2.232 -1.0848  0.1408  0.5457
 3396TIP3   OH234382   3.947   0.820   2.063  0.2146  0.0549  0.1892
 3396TIP3    H134383   3.937   0.914   2.050 -0.9305 -0.1125 -0.2690
 3396TIP3    H234384   3.900   0.780   1.989 -1.2662 -0.8847  1.5577
 3397TIP3   OH234385   0.615   6.996   0.322  0.2386 -0.0348  0.0603
 3397TIP3    H134386   0.530   6.954   0.312 -0.4816  1.2266  0.6538
 3397TIP3    H234387   0.595   7.086   0.347  1.7452 -0.1313  1.9212
 3398TIP3   OH234388   5.609   1.205   0.246 -0.7116  0.7224 -0.0797
 3398TIP3    H134389   5.516   1.181   0.241 -0.8758  1.3647 -0.1681
 3398TIP3    H234390   5.651   1.148   0.182 -0.9338 -0.0859  0.4791
 3399TIP3   OH234391   5.105   0.934   8.273  0.0360 -0.1450 -0.3066
 3399TIP3    H134392   5.019   0.918   8.234 -0.6827  0.2944  1.0427
 3399TIP3    H234393   5.137   1.013   8.228  0.1956 -0.8586 -1.5001
 3400TIP3   OH234394   1.040   2.709   1.312  0.2958  0.0552  0.2088
 3400TIP3    H134395   0.969   2.697   1.376  0.5516 -0.3517  0.4231
 3400TIP3    H234396   1.080   2.792   1.336 -0.1725  0.3414  0.0213
 3401TIP3   OH234397   2.321   4.495   8.111 -0.5679 -0.0834  0.3164
 3401TIP3    H134398   2.232   4.466   8.091 -0.7508 -1.5849  2.8927
 3401TIP3    H234399   2.331   4.478   8.205  2.3581  0.3200  0.1553
 3402TIP3   OH234400   3.501   3.052   7.773  0.2750 -0.0307  0.1508
 3402TIP3    H134401   3.485   2.986   7.840 -0.7408 -1.1635 -1.1483
 3402TIP3    H234402   3.480   3.135   7.816  1.6071 -0.5084  1.8202
 3403TIP3   OH234403   1.034   3.172   8.215 -0.3560  0.4153 -0.0530
 3403TIP3    H134404   1.089   3.190   8.291  1.1287 -1.9204 -0.4843
 3403TIP3    H234405   0.954   3.135   8.251 -0.5768  1.3229  0.4348
 3404TIP3   OH234406   3.849   0.563   7.971  0.1186  0.2252 -0.0513
 3404TIP3    H134407   3.801   0.610   8.039  0.3976  0.0709  0.2527
 3404TIP3    H234408   3.928   0.530   8.015  0.0605 -0.2943 -0.3303
 3405TIP3   OH234409   2.093   3.607   1.085  0.0872  0.0022 -0.0379
 3405TIP3    H134410   2.142   3.583   1.007  0.2978 -0.5907  0.2750
 3405TIP3    H234411   2.153   3.592   1.157 -0.4352 -0.3952  0.3208
 3406TIP3   OH234412   3.595   2.343   1.980 -0.1868 -0.2272  0.1774
 3406TIP3    H134413   3.614   2.371   2.069 -0.6967  1.0647 -0.0955
 3406TIP3    H234414   3.681   2.338   1.938  0.0011 -0.1746  0.5481
 3407TIP3   OH234415   1.068   3.212   9.183 -0.3137  0.4474 -0.1618
 3407TIP3    H134416   1.137   3.156   9.220 -1.6863 -0.8440  0.5532
 3407TIP3    H234417   1.073   3.292   9.235 -0.6275 -0.4129  1.2648
 3408TIP3   OH234418   5.571   0.553   2.476  0.0826  0.0971  0.6337
 3408TIP3    H134419   5.568   0.640   2.516 -1.6891  1.5477 -2.3069
 3408TIP3    H234420   5.483   0.540   2.440  1.0175 -1.8033 -1.2125
 3409TIP3   OH234421   5.413   0.862   9.821 -0.0351  0.0292 -0.4151
 3409TIP3    H134422   5.416   0.768   9.802 -0.3085 -0.0434 -0.1014
 3409TIP3    H234423   5.320   0.884   9.818  0.0774  0.4309 -1.1504
 3410TIP3   OH234424   6.878   0.233   2.820  0.4523 -0.3487  0.9038
 3410TIP3    H134425   6.951   0.294   2.809 -0.3837  0.4070 -1.0184
 3410TIP3    H234426   6.860   0.233   2.914  1.5311  1.1133  1.1509
 3411TIP3   OH234427   2.107   6.669   2.959 -0.1030  0.3505 -0.5736
 3411TIP3    H134428   2.044   6.613   2.913  1.1200 -1.2283 -0.4207
 3411TIP3    H234429   2.052   6.734   3.003 -1.6886 -1.1800 -0.1397
 3412TIP3   OH234430   1.554   5.836   0.352 -0.3304 -0.2630 -0.3823
 3412TIP3    H134431   1.503   5.914   0.331 -0.4840 -0.3263 -0.2470
 3412TIP3    H234432   1.528   5.772   0.285  0.8268  0.2318 -1.3528
 3413TIP3   OH234433   5.715   2.510   1.829  0.4421 -1.3504 -0.1353
 3413TIP3    H134434   5.693   2.562   1.751 -2.0786  0.0368  1.3786
 3413TIP3    H234435   5.642   2.450   1.840  2.1405 -3.5919 -0.3875
 3414TIP3   OH234436   4.671   5.458   8.573  0.0510 -0.0557 -0.8817
 3414TIP3    H134437   4.594   5.443   8.518 -0.1130  0.9164 -0.9438
 3414TIP3    H234438   4.674   5.553   8.583 -0.2567 -0.2422  1.2928
 3415TIP3   OH234439   3.292   5.969   1.923  0.5140  0.6660 -0.4145
 3415TIP3    H134440   3.326   5.901   1.864 -1.0895  0.6078 -1.3199
 3415TIP3    H234441   3.289   5.927   2.009  1.4047  0.2438 -0.5726
 3416TIP3   OH234442   7.443   2.927   0.880 -0.4231 -0.6314 -0.1729
 3416TIP3    H134443   7.531   2.959   0.901 -0.4531 -2.0965  2.6236
 3416TIP3    H234444   7.390   3.006   0.871  0.2292  0.2596  2.8688
 3417TIP3   OH234445   6.273   6.214   9.784  0.5579 -0.0181  0.1398
 3417TIP3    H134446   6.191   6.207   9.736  0.3121 -0.0319  0.5589
 3417TIP3    H234447   6.334   6.252   9.721  0.6260 -1.3557 -0.6367
 3418TIP3   OH234448   5.659   2.265   1.624 -0.7065 -0.6269  0.3840
 3418TIP3    H134449   5.614   2.289   1.704  1.4767  0.5940  1.3497
 3418TIP3    H234450   5.713   2.189   1.648 -1.8273 -1.7877 -0.6190
 3419TIP3   OH234451   3.247   0.310   1.156 -0.2744  0.3536  0.0513
 3419TIP3    H134452   3.232   0.400   1.184  0.2754  0.7172 -0.8020
 3419TIP3    H234453   3.304   0.273   1.224  1.3649  1.3460 -0.7289
 3420TIP3   OH234454   2.588   4.355   0.520  0.0169  0.7264  0.2325
 3420TIP3    H134455   2.629   4.400   0.446 -0.1324  0.4844  0.0025
 3420TIP3    H234456   2.503   4.327   0.487  0.3815 -0.3319  0.1535
 3421TIP3   OH234457   0.120   4.754   9.225  0.4374  0.5354  0.4512
 3421TIP3    H134458   0.027   4.745   9.247  0.1870  2.2141  0.1683
 3421TIP3    H234459   0.120   4.793   9.138  1.3616  2.7338  1.3680
 3422TIP3   OH234460   0.104   7.337   8.990  0.4420 -0.2067  0.5037
 3422TIP3    H134461   0.059   7.404   9.041  0.0951 -1.1780  1.5209
 3422TIP3    H234462   0.090   7.256   9.039  2.0207 -0.7981  0.0380
 3423TIP3   OH234463   4.991   0.767   7.341 -0.3365 -0.0691  0.4039
 3423TIP3    H134464   4.907   0.794   7.379 -1.0906 -1.0571 -0.4982
 3423TIP3    H234465   4.990   0.806   7.253 -0.6400 -1.4771 -0.2476
 3424TIP3   OH234466   6.768   0.517   3.281  0.0109 -0.4976  0.2403
 3424TIP3    H134467   6.682   0.483   3.305 -0.1757 -0.0007  0.2996
 3424TIP3    H234468   6.779   0.594   3.337 -0.7474  1.1475 -1.7538
 3425TIP3   OH234469   1.049   1.154   2.485 -0.0749 -0.2866  0.3215
 3425TIP3    H134470   1.035   1.249   2.492 -1.7825 -0.5859  1.9299
 3425TIP3    H234471   1.143   1.143   2.494  0.1617  1.2567  0.0562
 3426TIP3   OH234472   2.290   7.073   1.744  0.5872  0.3497  0.1006
 3426TIP3    H134473   2.336   7.029   1.672 -0.4718 -0.5703 -0.0459
 3426TIP3    H234474   2.326   7.034   1.823  0.6786  0.2565  0.0129
 3427TIP3   OH234475   3.196   7.490   2.035 -0.0356 -0.3312 -1.1194
 3427TIP3    H134476   3.230   7.418   2.089  2.1448  0.4427 -1.3401
 3427TIP3    H234477   3.116   7.517   2.079  2.0343  0.8692  2.3930
 3428TIP3   OH234478   6.005   1.417   8.889  0.1995 -0.0701 -0.2134
 3428TIP3    H134479   6.037   1.332   8.920 -2.5946 -1.2862 -0.3768
 3428TIP3    H234480   5.955   1.452   8.962  0.3123  0.8804 -0.5831
 3429TIP3   OH234481   1.205   4.238   7.975 -0.1060  0.2147  0.6644
 3429TIP3    H134482   1.246   4.171   8.030  0.6118 -0.3743 -0.5717
 3429TIP3    H234483   1.216   4.319   8.025  1.1932 -0.1890  1.0699
 3430TIP3   OH234484   1.520   3.967   9.028  0.1136  0.1356 -0.5823
 3430TIP3    H134485   1.538   3.955   9.121  0.2674  0.5768 -0.5497
 3430TIP3    H234486   1.591   3.922   8.983  0.5517  0.6981 -0.4699
 3431TIP3   OH234487   2.623   7.294   9.644 -0.0763 -0.4397 -0.2109
 3431TIP3    H134488   2.651   7.261   9.730  0.6798 -0.0140 -0.2830
 3431TIP3    H234489   2.566   7.368   9.665 -2.8958 -2.5285 -0.0146
 3432TIP3   OH234490   6.259   0.763   9.345 -0.1492  0.5784  0.6843
 3432TIP3    H134491   6.179   0.710   9.342 -1.1453  2.0514 -0.9117
 3432TIP3    H234492   6.274   0.788   9.254  1.4602  1.3433  1.1303
 3433TIP3   OH234493   5.967   6.151   9.702  0.0585 -0.3177 -0.7104
 3433TIP3    H134494   5.964   6.057   9.682  0.8298 -0.3448 -0.7472
 3433TIP3    H234495   5.975   6.155   9.797  0.5298 -0.3088 -0.7473
 3434TIP3   OH234496   6.948   5.199   7.026 -0.4503  0.1277  0.5219
 3434TIP3    H134497   6.954   5.130   6.961  1.5331  1.2838 -0.6042
 3434TIP3    H234498   6.859   5.235   7.015 -0.2670  0.0854 -1.3285
 3435TIP3   OH234499   7.088   5.885   2.111 -0.2397 -0.2887 -0.1891
 3435TIP3    H134500   7.165   5.941   2.112 -0.6131  0.3123 -1.7476
 3435TIP3    H234501   7.021   5.935   2.157 -0.5326  0.5407 -1.4568
 3436TIP3   OH234502   3.453   5.219   7.804  0.2274  0.2179 -0.1990
 3436TIP3    H134503   3.419   5.203   7.716 -1.7366 -1.0860  0.7267
 3436TIP3    H234504   3.457   5.315   7.811 -0.1950  0.3446 -1.4820
 3437TIP3   OH234505   5.357   7.091   7.107  0.1400  0.1490  0.1658
 3437TIP3    H134506   5.382   7.072   7.197 -0.1118  0.4269  0.2942
 3437TIP3    H234507   5.419   7.160   7.080  1.3390 -1.1161 -0.4408
 3438TIP3   OH234508   7.552   7.195   0.695  0.1658  0.4107  0.8165
 3438TIP3    H134509   7.503   7.120   0.660  0.9442  0.6503 -0.8973
 3438TIP3    H234510   7.492   7.235   0.758 -2.5029  1.5342 -2.1551
 3439TIP3   OH234511   4.392   2.903   0.434  0.4164 -0.0607 -0.0376
 3439TIP3    H134512   4.422   2.858   0.355  1.9021 -0.8750  0.9564
 3439TIP3    H234513   4.300   2.877   0.442  0.9552 -2.1658 -0.0666
 3440TIP3   OH234514   4.884   0.990   1.344  0.0962 -0.3628 -0.2427
 3440TIP3    H134515   4.975   0.990   1.313  0.2700  0.8229  0.2259
 3440TIP3    H234516   4.855   1.081   1.333 -0.8253 -0.5957  0.2055
 3441TIP3   OH234517   1.647   7.182   0.101  0.7507 -0.0135 -0.2677
 3441TIP3    H134518   1.690   7.225   0.174  0.7576  0.6305 -0.6417
 3441TIP3    H234519   1.635   7.251   0.035  1.7191 -0.7986 -1.3123
 3442TIP3   OH234520   5.254   1.636   9.130  0.1715 -0.1462  0.3580
 3442TIP3    H134521   5.313   1.563   9.110 -0.0690 -0.6443  1.4212
 3442TIP3    H234522   5.286   1.671   9.213  0.4374  1.1363 -0.2711
 3443TIP3   OH234523   6.629   1.331   8.468  0.1103 -0.3120 -0.1011
 3443TIP3    H134524   6.671   1.245   8.458 -1.5407 -1.0435 -1.2209
 3443TIP3    H234525   6.645   1.375   8.385 -2.6663 -1.2978 -1.2935
 3444TIP3   OH234526   0.728   3.570   8.186  0.0676 -0.0011  0.0117
 3444TIP3    H134527   0.729   3.485   8.143  0.0110  0.4747 -0.9597
 3444TIP3    H234528   0.675   3.625   8.129 -0.4386  0.5219  0.9596
 3445TIP3   OH234529   2.371   4.605   8.402 -0.1866 -0.0607  0.0152
 3445TIP3    H134530   2.287   4.647   8.380 -0.7293 -1.5963 -0.9770
 3445TIP3    H234531   2.349   4.512   8.413  1.5156 -0.6340 -1.0630
 3446TIP3   OH234532   5.530   3.206   7.726  0.4143  0.6691  0.1464
 3446TIP3    H134533   5.580   3.248   7.796  1.8403 -2.3551  1.1016
 3446TIP3    H234534   5.473   3.144   7.770 -0.8956  0.8350 -1.2288
 3447TIP3   OH234535   2.091   2.081   8.869 -0.3233 -0.0180  0.5050
 3447TIP3    H134536   2.180   2.102   8.896  0.3603 -1.3053 -0.6151
 3447TIP3    H234537   2.037   2.098   8.946  0.7608  1.5259  0.9632
 3448TIP3   OH234538   5.939   0.384   9.775  0.1697  0.9478  0.0452
 3448TIP3    H134539   6.003   0.417   9.838  1.1514  2.2992 -1.5748
 3448TIP3    H234540   5.990   0.329   9.715 -0.7108 -0.1815  0.3018
 3449TIP3   OH234541   0.861   5.551   8.307 -0.0987  0.2580 -0.1967
 3449TIP3    H134542   0.919   5.554   8.383  2.5528 -2.6964 -1.8872
 3449TIP3    H234543   0.824   5.463   8.308 -0.6253  0.4236 -1.9477
 3450TIP3   OH234544   0.826   0.793   2.343  0.2090 -0.4280 -0.1625
 3450TIP3    H134545   0.773   0.774   2.266  1.7359  1.4165 -1.7540
 3450TIP3    H234546   0.852   0.884   2.332  1.5098 -0.4964  1.9267
 3451TIP3   OH234547   2.277   5.614   9.728  0.2274  0.0101  0.2471
 3451TIP3    H134548   2.242   5.575   9.647  2.1166 -0.0477 -0.5911
 3451TIP3    H234549   2.324   5.543   9.771  0.4156  0.3990  0.6923
 3452TIP3   OH234550   1.982   7.309   0.138  0.2873 -0.1648  0.3810
 3452TIP3    H134551   1.944   7.310   0.050  1.4479 -2.3492 -0.2252
 3452TIP3    H234552   2.009   7.218   0.151  1.4994  0.4295  2.4125
 3453TIP3   OH234553   0.449   3.410   1.660  0.1588  0.3784 -0.1800
 3453TIP3    H134554   0.495   3.493   1.666 -0.8526  0.8190  2.6967
 3453TIP3    H234555   0.357   3.433   1.654 -0.0658 -0.5606 -0.6406
 3454TIP3   OH234556   6.712   1.465   8.870 -0.3617  0.3159  0.4028
 3454TIP3    H134557   6.744   1.510   8.792  0.7669 -0.0016  0.6556
 3454TIP3    H234558   6.716   1.372   8.848  2.1866  0.0537  1.5419
 3455TIP3   OH234559   2.155   6.974   2.636  0.2693 -0.2223 -0.1574
 3455TIP3    H134560   2.201   6.973   2.719 -1.6513  1.2302  1.0118
 3455TIP3    H234561   2.081   6.915   2.649  0.7241 -1.1053 -1.3660
 3456TIP3   OH234562   6.880   3.109   0.401  0.6303  0.4605 -0.3456
 3456TIP3    H134563   6.910   3.051   0.331  0.5761  1.3873 -1.1528
 3456TIP3    H234564   6.944   3.180   0.404 -0.4844  1.5224 -0.8833
 3457TIP3   OH234565   5.836   3.042   7.569 -0.5286 -0.5844 -0.0447
 3457TIP3    H134566   5.819   3.136   7.575  0.7972 -0.3655  0.6061
 3457TIP3    H234567   5.753   3.001   7.596 -0.7664  0.4078  0.7736
 3458TIP3   OH234568   4.286   6.806   1.501  0.1189 -0.2008  0.5784
 3458TIP3    H134569   4.249   6.771   1.419 -0.9269  1.1391  0.4353
 3458TIP3    H234570   4.356   6.864   1.472  1.0397 -1.1874  0.7568
 3459TIP3   OH234571   4.163   2.950   2.547  0.0670 -0.1932 -0.0344
 3459TIP3    H134572   4.114   3.028   2.570 -1.5203 -1.4556  1.0803
 3459TIP3    H234573   4.175   2.903   2.630 -1.3679 -2.4066 -0.9685
 3460TIP3   OH234574   5.708   3.694   7.952  0.6325  0.2547 -0.3668
 3460TIP3    H134575   5.638   3.633   7.976 -0.2703  1.3672 -0.0409
 3460TIP3    H234576   5.742   3.725   8.035  1.1979  0.0760 -0.5292
 3461TIP3   OH234577   6.533   4.492   8.502 -0.2361 -0.3022 -0.3465
 3461TIP3    H134578   6.527   4.414   8.447 -2.9039 -1.0823  0.8826
 3461TIP3    H234579   6.500   4.562   8.446  2.0704  0.0273 -1.4203
 3462TIP3   OH234580   2.194   0.387   0.032 -0.2447  0.5203  0.5597
 3462TIP3    H134581   2.272   0.335   0.049 -0.2450  0.4977  0.4941
 3462TIP3    H234582   2.226   0.474   0.010 -0.2488  0.5790  0.7855
 3463TIP3   OH234583   1.131   2.389   1.281  0.6327  0.4534 -0.9048
 3463TIP3    H134584   1.098   2.420   1.365 -0.4249  0.1232 -1.1768
 3463TIP3    H234585   1.054   2.389   1.223  0.9058 -1.1500 -1.3340
 3464TIP3   OH234586   5.705   6.518   8.353 -0.2683 -0.3960  0.3701
 3464TIP3    H134587   5.797   6.520   8.381 -0.5024 -1.9400  1.3711
 3464TIP3    H234588   5.700   6.446   8.291 -1.0574 -1.3403  1.4726
 3465TIP3   OH234589   5.992   1.653   0.619 -0.1453  0.1148  0.0019
 3465TIP3    H134590   5.956   1.564   0.623 -0.3366  0.2172  0.6378
 3465TIP3    H234591   5.951   1.691   0.541 -1.4641  0.2334  0.7288
 3466TIP3   OH234592   6.494   5.683   9.421 -0.1976  0.1349  0.1219
 3466TIP3    H134593   6.453   5.602   9.390 -1.0580  0.5924  0.0278
 3466TIP3    H234594   6.516   5.665   9.513  0.5141 -0.5319 -0.1683
 3467TIP3   OH234595   0.566   1.001   2.300 -0.3253  0.3303  0.5981
 3467TIP3    H134596   0.627   0.959   2.361 -0.0619  1.4020  1.0894
 3467TIP3    H234597   0.480   0.986   2.337 -0.5792 -2.4684 -0.8389
 3468TIP3   OH234598   2.149   0.200   1.360  0.2580 -0.2092 -0.0721
 3468TIP3    H134599   2.131   0.200   1.454 -1.9850  0.5951 -0.4545
 3468TIP3    H234600   2.173   0.109   1.340  0.0173 -0.5574  1.1328
 3469TIP3   OH234601   3.706   3.232   2.598  0.6919  0.4508 -0.2897
 3469TIP3    H134602   3.652   3.235   2.519 -0.6472 -0.8737  0.5003
 3469TIP3    H234603   3.737   3.142   2.603  1.9978  0.8931 -0.0703
 3470TIP3   OH234604   5.833   2.150   9.737 -0.2750 -0.4865 -0.2682
 3470TIP3    H134605   5.828   2.127   9.644  0.5125  1.6739 -0.9119
 3470TIP3    H234606   5.754   2.203   9.752 -0.4542 -0.9197  0.3352
 3471TIP3   OH234607   2.078   0.898   8.460  0.2038  0.2070  0.2847
 3471TIP3    H134608   2.145   0.920   8.395 -1.0809  1.9530 -0.5387
 3471TIP3    H234609   2.102   0.811   8.490  0.3943 -1.1464 -3.2260
 3472TIP3   OH234610   6.016   5.338   8.273  0.0315 -0.3930  0.1536
 3472TIP3    H134611   5.985   5.401   8.207  0.5995  0.1841  0.4262
 3472TIP3    H234612   6.049   5.393   8.345 -1.2745 -1.0145  1.2619
 3473TIP3   OH234613   4.226   7.077   7.113 -0.4701  0.3142  0.0773
 3473TIP3    H134614   4.322   7.077   7.110 -0.3994 -1.9442  0.4120
 3473TIP3    H234615   4.199   7.115   7.030  0.6842  1.5093  0.2143
 3474TIP3   OH234616   6.015   1.976   9.897 -0.5511  0.3051 -0.3155
 3474TIP3    H134617   5.976   2.052   9.853  0.2097  1.7379  1.3446
 3474TIP3    H234618   6.060   1.928   9.828 -0.6682  1.6202 -1.3358
 3475TIP3   OH234619   3.066   1.920   2.883  0.3748 -0.0145  0.5721
 3475TIP3    H134620   3.155   1.909   2.918  0.3961 -0.4393  0.3877
 3475TIP3    H234621   3.012   1.864   2.939  0.1968  0.3411  0.7656
 3476TIP3   OH234622   2.377   5.790   3.104 -0.0016  0.3969 -0.4549
 3476TIP3    H134623   2.310   5.847   3.067  0.5581  0.1678 -1.8672
 3476TIP3    H234624   2.342   5.702   3.095  0.5085  0.2715 -1.2557
 3477TIP3   OH234625   3.865   1.292   8.752  0.0116  0.1049 -0.1323
 3477TIP3    H134626   3.819   1.325   8.674 -1.3525  0.6779  0.8775
 3477TIP3    H234627   3.808   1.223   8.786  0.4997 -0.0072  0.4735
 3478TIP3   OH234628   5.953   5.114   7.609  0.2611  0.0793  0.0734
 3478TIP3    H134629   5.861   5.139   7.614 -0.0476 -1.1589  2.8103
 3478TIP3    H234630   6.000   5.195   7.592 -1.3513  0.5273 -2.8003
 3479TIP3   OH234631   7.066   7.014   8.198 -0.0603  0.4757 -0.2642
 3479TIP3    H134632   7.032   7.092   8.241 -0.1938  0.0396  0.4467
 3479TIP3    H234633   7.147   7.042   8.156  0.7288  0.6632  1.3076
 3480TIP3   OH234634   1.593   0.840   1.215  0.1208  0.0748 -0.0220
 3480TIP3    H134635   1.554   0.881   1.292 -1.1828 -0.3194 -0.4607
 3480TIP3    H234636   1.684   0.825   1.241  0.2898  1.9485  0.6396
 3481TIP3   OH234637   0.181   3.666   2.075  0.7456 -0.0325  0.2259
 3481TIP3    H134638   0.166   3.745   2.022  1.4619 -0.1268 -0.1283
 3481TIP3    H234639   0.276   3.658   2.080  0.7191 -1.8699 -1.2554
 3482TIP3   OH234640   0.149   0.995   9.609 -0.2962  0.0122  0.6112
 3482TIP3    H134641   0.075   1.013   9.551 -0.8598 -2.5756  0.3600
 3482TIP3    H234642   0.151   1.069   9.670 -1.4297  1.4262 -0.9759
 3483TIP3   OH234643   4.117   7.218   8.958 -0.3840 -0.0145  0.3049
 3483TIP3    H134644   4.184   7.156   8.928 -0.5908  0.8554 -2.1991
 3483TIP3    H234645   4.040   7.199   8.904 -0.6125  2.0102 -0.1895
 3484TIP3   OH234646   0.853   0.088   8.142 -0.4424  0.3900  0.1904
 3484TIP3    H134647   0.813   0.167   8.106 -0.9129  0.6698  1.2717
 3484TIP3    H234648   0.802   0.016   8.104 -0.2724  0.6147 -0.4828
 3485TIP3   OH234649   1.274   4.993   9.549 -0.5911 -0.3839  0.2665
 3485TIP3    H134650   1.178   4.985   9.557 -0.7760 -0.7642 -1.6873
 3485TIP3    H234651   1.292   4.962   9.460  1.2718  0.4869  0.3130
 3486TIP3   OH234652   0.737   2.670   1.073  0.2061 -0.5926 -0.4541
 3486TIP3    H134653   0.768   2.760   1.082 -0.2683 -0.5027  0.3544
 3486TIP3    H234654   0.674   2.674   1.001 -0.8976  0.0359  0.5003
 3487TIP3   OH234655   5.765   6.806   7.381  0.3754  0.3758  0.4268
 3487TIP3    H134656   5.810   6.827   7.299 -0.5574  0.4889 -0.0746
 3487TIP3    H234657   5.811   6.731   7.416  0.3164 -0.1554 -0.6010
 3488TIP3   OH234658   2.691   2.049   7.591 -0.1935  0.5399 -1.0804
 3488TIP3    H134659   2.725   1.995   7.520 -1.0995 -0.4142 -0.8248
 3488TIP3    H234660   2.653   2.125   7.548 -2.1561 -0.7709 -1.8121
 3489TIP3   OH234661   2.774   5.284   7.964 -0.1533  0.3652  0.0391
 3489TIP3    H134662   2.731   5.341   8.027 -1.7197  0.1017 -0.7443
 3489TIP3    H234663   2.703   5.232   7.926  1.0970 -1.5329  0.1342
 3490TIP3   OH234664   3.655   4.385   7.321 -0.2781  0.2424  0.2735
 3490TIP3    H134665   3.688   4.463   7.365 -0.0514  2.6499 -3.6375
 3490TIP3    H234666   3.566   4.409   7.294  0.0259 -0.5338 -1.5669
 3491TIP3   OH234667   4.814   1.320   2.042  0.1244  0.2250  0.0110
 3491TIP3    H134668   4.835   1.246   2.099 -3.7582  0.1212  1.6347
 3491TIP3    H234669   4.839   1.290   1.954 -0.7868 -2.8569  0.6651
 3492TIP3   OH234670   4.695   2.338   2.326  0.0745  0.1456  0.1489
 3492TIP3    H134671   4.740   2.382   2.254  1.5440  0.3197  1.1299
 3492TIP3    H234672   4.628   2.400   2.355  1.6114  1.4792  1.0135
 3493TIP3   OH234673   2.095   1.271   7.266  0.0563 -0.1825  0.4889
 3493TIP3    H134674   2.114   1.350   7.214  0.2197 -0.6603 -0.1949
 3493TIP3    H234675   2.170   1.264   7.325 -0.4168  0.6991  1.2190
 3494TIP3   OH234676   1.693   0.680   7.264  0.0788 -0.2192 -0.5850
 3494TIP3    H134677   1.626   0.667   7.197  0.4607 -1.4390 -0.7444
 3494TIP3    H234678   1.648   0.657   7.346  0.1215 -0.4285 -0.6205
 3495TIP3   OH234679   2.727   2.493   2.099  0.3042 -0.2928 -0.1859
 3495TIP3    H134680   2.723   2.534   2.185  0.3110 -1.1292  0.2285
 3495TIP3    H234681   2.755   2.563   2.040  0.0034  0.3629  0.4383
 3496TIP3   OH234682   7.627   6.825   2.290  1.2934  0.4130  0.2262
 3496TIP3    H134683   7.582   6.769   2.228 -0.1348  1.7228  0.0231
 3496TIP3    H234684   7.656   6.766   2.360 -3.3481 -0.2501  1.9197
 3497TIP3   OH234685   5.331   6.621   8.229  0.4076 -0.5619  0.0970
 3497TIP3    H134686   5.378   6.656   8.305 -1.3199 -0.2754  1.0803
 3497TIP3    H234687   5.263   6.565   8.267 -1.5140  0.8335 -1.1101
 3498TIP3   OH234688   2.639   6.090   1.514  0.0242 -0.2754  0.4550
 3498TIP3    H134689   2.570   6.031   1.545 -0.8499  0.5207  0.0844
 3498TIP3    H234690   2.706   6.087   1.582  1.8880 -4.6073 -1.1824
 3499TIP3   OH234691   0.239   2.851   2.414  0.0123  0.4508 -0.4233
 3499TIP3    H134692   0.314   2.848   2.473  0.8134  1.5445 -1.3363
 3499TIP3    H234693   0.163   2.839   2.472  0.7721  1.2681  0.7963
 3500TIP3   OH234694   0.039   5.224   9.522 -0.1419  0.4234 -0.0708
 3500TIP3    H134695   0.113   5.202   9.579  0.1731 -1.7824 -1.2086
 3500TIP3    H234696   0.043   5.159   9.452 -3.5304 -0.1687  0.1170
 3501TIP3   OH234697   3.121   5.933   2.203 -0.0224  0.1394 -0.0778
 3501TIP3    H134698   3.110   5.973   2.289 -0.3497 -1.0130  0.4422
 3501TIP3    H234699   3.196   5.875   2.213  0.5871  0.7748 -0.8787
 3502TIP3   OH234700   0.297   6.510   9.165 -0.5124  0.1068 -0.1569
 3502TIP3    H134701   0.388   6.487   9.149 -0.4918 -0.8242  1.1207
 3502TIP3    H234702   0.299   6.601   9.194  0.2725 -0.4542  1.7377
 3503TIP3   OH234703   6.582   4.085   8.475  0.0732  0.3043 -0.6929
 3503TIP3    H134704   6.652   4.136   8.516 -1.3390  1.7169  0.0600
 3503TIP3    H234705   6.521   4.150   8.441 -1.9908 -0.8041  0.6330
 3504TIP3   OH234706   6.103   1.200   7.885 -0.0255 -0.1620  0.4775
 3504TIP3    H134707   6.069   1.155   7.808  2.2619 -0.9249 -0.1806
 3504TIP3    H234708   6.075   1.146   7.959  0.5595 -1.3183 -0.1152
 3505TIP3   OH234709   0.551   4.845   1.444 -0.3071  0.4442 -0.3585
 3505TIP3    H134710   0.588   4.932   1.429  0.9370 -0.0509 -0.2736
 3505TIP3    H234711   0.569   4.826   1.536  1.8357 -0.9533 -0.9887
 3506TIP3   OH234712   5.641   4.026   8.731  0.3454  0.3244 -0.2423
 3506TIP3    H134713   5.690   4.104   8.704  0.0213  0.2474 -1.0655
 3506TIP3    H234714   5.550   4.055   8.733  0.1567 -0.1847 -1.1234
 3507TIP3   OH234715   1.791   5.704   9.404  0.2835 -0.6261 -0.1047
 3507TIP3    H134716   1.865   5.710   9.344 -0.2305  0.0259 -0.6956
 3507TIP3    H234717   1.820   5.751   9.483  0.0531  0.7790 -0.8220
 3508TIP3   OH234718   1.327   1.638   1.270  0.3893 -0.1933 -0.0565
 3508TIP3    H134719   1.361   1.725   1.291 -0.2743 -0.1811  1.0426
 3508TIP3    H234720   1.324   1.592   1.355 -1.3707 -0.5234 -0.2689
 3509TIP3   OH234721   5.962   2.639   8.725 -0.2699 -0.6418  0.4172
 3509TIP3    H134722   5.959   2.673   8.815 -0.2481  1.0135 -0.1688
 3509TIP3    H234723   5.877   2.664   8.688 -0.4917 -1.7920  0.1298
 3510TIP3   OH234724   4.230   4.014   6.879  0.3869 -0.5302  0.7692
 3510TIP3    H134725   4.308   3.977   6.838  0.6326  2.2314 -1.5650
 3510TIP3    H234726   4.162   3.948   6.864  1.2389 -1.0155 -1.3412
 3511TIP3   OH234727   6.617   6.732   9.840  0.2398  0.3036  0.2689
 3511TIP3    H134728   6.603   6.698   9.752  0.6006  2.0535 -0.5118
 3511TIP3    H234729   6.600   6.826   9.833 -1.0299  0.3077  2.3835
 3512TIP3   OH234730   3.615   2.843   1.517  1.3385 -0.1067  0.1245
 3512TIP3    H134731   3.573   2.819   1.600 -0.3034  0.2101 -0.5747
 3512TIP3    H234732   3.597   2.768   1.459  1.6581  0.0816 -0.2224
 3513TIP3   OH234733   2.021   4.042   7.970 -0.0541 -0.1621 -0.2220
 3513TIP3    H134734   2.013   4.074   7.881 -0.0850 -1.0382 -0.5447
 3513TIP3    H234735   1.938   4.065   8.012 -0.7038 -1.2050 -0.9083
 3514TIP3   OH234736   4.325   2.468   1.152 -0.1529 -0.3513  0.4221
 3514TIP3    H134737   4.315   2.562   1.170  1.9787  0.0165  0.0314
 3514TIP3    H234738   4.388   2.438   1.218  0.1932 -1.1931 -0.2776
 3515TIP3   OH234739   3.274   1.039   1.929  0.1025 -0.0290 -0.2918
 3515TIP3    H134740   3.313   1.004   2.009  0.1437 -0.8410 -0.6487
 3515TIP3    H234741   3.304   1.130   1.925 -0.2362  0.1530  0.8220
 3516TIP3   OH234742   7.160   3.563   9.293 -0.2408  0.3974  0.3662
 3516TIP3    H134743   7.138   3.533   9.382  1.5357 -1.4671  0.2507
 3516TIP3    H234744   7.078   3.555   9.245 -0.6088 -1.2575  1.1860
 3517TIP3   OH234745   1.199   5.666   0.942 -0.1185  0.3920  0.0499
 3517TIP3    H134746   1.122   5.716   0.968  0.7292  1.3381  0.7826
 3517TIP3    H234747   1.266   5.731   0.926  0.4248 -0.3941 -1.0318
 3518TIP3   OH234748   1.013   2.853   0.454 -0.0954  0.2009 -0.3536
 3518TIP3    H134749   1.055   2.872   0.537  1.6287 -2.7589 -0.4246
 3518TIP3    H234750   0.919   2.866   0.471  0.2378 -0.0782  1.9706
 3519TIP3   OH234751   3.427   3.043   9.345  0.2752  0.5887  0.0038
 3519TIP3    H134752   3.442   3.137   9.341  0.7216  0.4769 -2.2528
 3519TIP3    H234753   3.383   3.029   9.428  0.9095  2.6748  0.7495
 3520TIP3   OH234754   7.057   2.743   1.820  0.5820 -0.3831  0.0325
 3520TIP3    H134755   7.094   2.655   1.812  0.0249 -0.7625  1.3933
 3520TIP3    H234756   6.992   2.736   1.890  0.3515  1.0548  0.0003
 3521TIP3   OH234757   2.989   4.879   1.503  0.0251  0.0178  0.1966
 3521TIP3    H134758   3.055   4.809   1.505  0.8454  0.7007 -1.1441
 3521TIP3    H234759   2.971   4.898   1.595 -0.7413 -2.3931  0.6132
 3522TIP3   OH234760   0.229   7.394   8.759 -0.2548 -0.5357  0.1840
 3522TIP3    H134761   0.287   7.466   8.781 -1.4863  1.2759 -1.9576
 3522TIP3    H234762   0.189   7.368   8.842  1.9161 -0.3401  1.3428
 3523TIP3   OH234763   3.088   3.411   0.573  0.7561  0.1804  0.0524
 3523TIP3    H134764   3.114   3.320   0.557 -0.2738 -0.1721  0.3114
 3523TIP3    H234765   3.161   3.463   0.538  2.0331 -0.7628  1.2207
 3524TIP3   OH234766   5.977   7.035   1.927 -0.1277  0.2269 -0.7839
 3524TIP3    H134767   6.015   7.099   1.987 -1.8897  0.5713  0.0506
 3524TIP3    H234768   5.931   7.088   1.861  0.4936 -0.1702 -1.5555
 3525TIP3   OH234769   3.283   1.924   7.955 -0.1508  0.6790 -0.1724
 3525TIP3    H134770   3.235   1.962   7.881 -1.0956  1.3925  0.7783
 3525TIP3    H234771   3.226   1.854   7.987  0.0314  0.6938  0.1883
 3526TIP3   OH234772   2.830   4.926   8.793  0.3602  0.3544 -0.3078
 3526TIP3    H134773   2.832   5.021   8.798  0.4229  0.2904  3.3303
 3526TIP3    H234774   2.769   4.899   8.862  0.7383 -2.2821 -0.8788
 3527TIP3   OH234775   1.043   1.812   2.127 -0.1409  0.5767 -0.5075
 3527TIP3    H134776   0.966   1.758   2.109 -1.2738  1.8950  0.1336
 3527TIP3    H234777   1.092   1.763   2.193  1.0697 -1.5802 -2.8493
 3528TIP3   OH234778   0.443   0.553   8.306  0.2889 -0.6204  0.3765
 3528TIP3    H134779   0.426   0.638   8.265 -0.2750 -1.4383 -1.1512
 3528TIP3    H234780   0.475   0.497   8.235  0.8507 -1.6439  1.3946
 3529TIP3   OH234781   0.180   0.544   8.771  0.4460 -0.5975 -0.0232
 3529TIP3    H134782   0.207   0.598   8.697 -0.3809 -0.8087 -0.4848
 3529TIP3    H234783   0.095   0.510   8.746 -1.0329  1.2952  2.0401
 3530TIP3   OH234784   0.001   6.998   3.342  0.0244 -0.5658  0.0467
 3530TIP3    H134785  -0.022   6.918   3.389  0.2531 -0.2739  0.6705
 3530TIP3    H234786  -0.065   7.062   3.368  1.4922  0.2928  1.8958
 3531TIP3   OH234787   7.508   7.475   8.876  0.0904 -0.6222  0.0996
 3531TIP3    H134788   7.556   7.558   8.884 -0.3096 -0.4193  0.4556
 3531TIP3    H234789   7.417   7.498   8.896  0.0618 -1.2422  0.7136
 3532TIP3   OH234790   5.634   6.105   7.266 -0.0909  0.0981 -0.0298
 3532TIP3    H134791   5.685   6.183   7.241  0.8882 -0.7053 -0.5984
 3532TIP3    H234792   5.654   6.092   7.359  0.0211  0.3185 -0.0213
 3533TIP3   OH234793   0.432   6.432   7.667 -0.1383 -0.2964  0.5396
 3533TIP3    H134794   0.444   6.338   7.681  1.1913 -0.1391  0.6476
 3533TIP3    H234795   0.432   6.442   7.572  0.3880 -0.3507  0.5270
 3534TIP3   OH234796   3.256   0.448   9.931  0.2540 -0.3414 -0.0678
 3534TIP3    H134797   3.334   0.409   9.971 -0.3891 -1.1006  0.4879
 3534TIP3    H234798   3.281   0.464   9.840  0.7631 -1.4462 -0.1447
 3535TIP3   OH234799   4.205   3.188   8.985  0.1078  0.2551  0.1429
 3535TIP3    H134800   4.226   3.236   9.066 -0.2706  0.8671 -0.1114
 3535TIP3    H234801   4.136   3.241   8.944 -0.4951 -0.6420 -0.0245
 3536TIP3   OH234802   4.243   5.342   7.385 -0.4642 -0.1228  0.0090
 3536TIP3    H134803   4.285   5.393   7.454  0.0406 -2.2739  1.3945
 3536TIP3    H234804   4.308   5.275   7.362 -1.8594 -1.4474 -0.1988
 3537TIP3   OH234805   1.085   4.562   9.518 -0.0207  0.4216  0.1727
 3537TIP3    H134806   1.164   4.508   9.522 -1.2929 -1.5290  0.0476
 3537TIP3    H234807   1.101   4.631   9.583  1.8466  0.1975  0.0095
 3538TIP3   OH234808   1.896   6.446   8.599  0.3932  0.2536  0.3513
 3538TIP3    H134809   1.912   6.448   8.693 -1.3035  2.6168  0.6728
 3538TIP3    H234810   1.814   6.493   8.588 -0.4012 -1.5246 -2.1732
 3539TIP3   OH234811   0.496   2.218   2.469 -0.0570  0.8514  0.2174
 3539TIP3    H134812   0.484   2.179   2.556 -1.0317 -4.3483 -1.9011
 3539TIP3    H234813   0.591   2.216   2.455  0.0081  0.4759  0.6797
 3540TIP3   OH234814   0.160   5.977   6.741 -0.0989  0.0987  0.0813
 3540TIP3    H134815   0.124   6.063   6.721  0.2129  0.3156  0.4173
 3540TIP3    H234816   0.127   5.920   6.673 -0.4235  0.4588 -0.0656
 3541TIP3   OH234817   7.306   2.245   0.288  0.1396  0.1699 -0.2924
 3541TIP3    H134818   7.253   2.177   0.331  0.3617  1.0875  1.5487
 3541TIP3    H234819   7.294   2.322   0.343  0.9622  1.2546 -1.5880
 3542TIP3   OH234820   6.678   3.238   7.486  0.4595  0.3437 -0.5754
 3542TIP3    H134821   6.771   3.218   7.473  1.1368  1.8040  1.5480
 3542TIP3    H234822   6.666   3.325   7.450  0.4299  1.0106  0.9827
 3543TIP3   OH234823   3.459   5.909   8.088 -0.1536  0.4365 -0.0967
 3543TIP3    H134824   3.545   5.916   8.046  0.6096 -0.9147  1.1374
 3543TIP3    H234825   3.397   5.937   8.021  1.0884 -0.4973 -1.7137
 3544TIP3   OH234826   4.592   1.667   7.718  0.4756  0.8920  0.6367
 3544TIP3    H134827   4.624   1.609   7.649 -0.3927  0.7426  0.3376
 3544TIP3    H234828   4.638   1.639   7.797 -2.2345 -2.4702  1.2436
 3545TIP3   OH234829   1.568   3.243   9.751 -0.2481 -0.1426  0.6095
 3545TIP3    H134830   1.495   3.253   9.691 -0.1704 -1.0272  0.3558
 3545TIP3    H234831   1.584   3.332   9.784  0.5578  0.5974 -1.6315
 3546TIP3   OH234832   3.837   1.378   1.233  0.3008 -0.2371 -0.8890
 3546TIP3    H134833   3.889   1.301   1.257  1.6966  0.7466 -0.6560
 3546TIP3    H234834   3.801   1.409   1.316 -0.2519 -0.6075 -0.9815
 3547TIP3   OH234835   0.916   2.893   9.108  0.2917 -0.4010 -0.2175
 3547TIP3    H134836   0.986   2.833   9.134 -0.6548 -1.2429  0.4676
 3547TIP3    H234837   0.870   2.846   9.038 -0.9460 -0.8531  0.8668
 3548TIP3   OH234838   3.147   0.069   9.168 -0.5272 -0.3024  0.0238
 3548TIP3    H134839   3.059   0.091   9.137 -0.5038 -0.5055 -0.1951
 3548TIP3    H234840   3.202   0.141   9.136 -0.6449 -0.0812  0.3211
 3549TIP3   OH234841   2.129   0.114   3.056 -0.4436  0.0078  0.1600
 3549TIP3    H134842   2.035   0.115   3.070 -0.7294 -2.0853 -1.1692
 3549TIP3    H234843   2.154   0.206   3.049 -2.3665  0.5908  0.5245
 3550TIP3   OH234844   2.102   4.073   8.814  0.0879 -0.3225 -0.3276
 3550TIP3    H134845   2.116   4.095   8.907 -0.0593  0.3581 -0.4570
 3550TIP3    H234846   2.063   4.153   8.777 -0.5721 -0.8600 -0.8045
 3551TIP3   OH234847   5.777   0.072   0.826 -0.4303  0.8668  0.7283
 3551TIP3    H134848   5.813   0.160   0.812 -4.0659  2.8117  2.1214
 3551TIP3    H234849   5.767   0.065   0.921 -0.3998 -1.0511  0.6326
 3552TIP3   OH234850   3.983   1.087   1.502 -0.0421  0.1413  0.4137
 3552TIP3    H134851   3.900   1.103   1.548 -0.0049 -1.0090  0.9051
 3552TIP3    H234852   4.050   1.121   1.561  0.0075 -1.3614  1.2734
 3553TIP3   OH234853   2.250   0.524   2.338  0.1790  0.8127 -0.0334
 3553TIP3    H134854   2.155   0.522   2.341  0.1934  1.0145  1.2751
 3553TIP3    H234855   2.277   0.439   2.373  0.4819  0.7619 -0.3806
 3554TIP3   OH234856   7.207   3.383   7.882 -0.0119  0.0389 -0.2167
 3554TIP3    H134857   7.269   3.310   7.882 -1.1272 -0.9316 -0.3109
 3554TIP3    H234858   7.166   3.379   7.968 -3.4646 -2.4764 -1.7399
 3555TIP3   OH234859   2.793   6.600   8.393 -0.4958 -0.1674 -0.0134
 3555TIP3    H134860   2.817   6.510   8.416  0.1402 -0.2302 -0.9054
 3555TIP3    H234861   2.875   6.642   8.369 -1.0620 -0.0810 -2.0437
 3556TIP3   OH234862   3.802   0.076   2.003 -0.2213 -0.4783 -0.2853
 3556TIP3    H134863   3.875   0.101   1.947 -0.3982 -0.1945 -0.3938
 3556TIP3    H234864   3.832   0.096   2.092 -1.0783  2.0734 -0.4816
 3557TIP3   OH234865   5.442   6.590   9.514 -0.2680  0.4336 -0.5797
 3557TIP3    H134866   5.434   6.509   9.564 -0.2321  1.1198  0.5758
 3557TIP3    H234867   5.536   6.600   9.501 -0.2813  0.2179 -0.8509
 3558TIP3   OH234868   2.798   1.012   9.005  0.4679  0.4085 -0.1747
 3558TIP3    H134869   2.729   0.946   9.011 -0.3625  1.2767  0.1173
 3558TIP3    H234870   2.789   1.047   8.916 -0.8526  1.9417  0.5080
 3559TIP3   OH234871   2.509   2.626   0.647 -0.0990 -0.1587  0.4211
 3559TIP3    H134872   2.478   2.583   0.568  0.4583 -0.8617  0.5743
 3559TIP3    H234873   2.558   2.558   0.694 -1.1054  0.0064  1.7611
 3560TIP3   OH234874   2.281   2.200   2.157  0.1673 -0.3480  0.1023
 3560TIP3    H134875   2.328   2.276   2.122  0.0652 -0.4217 -0.1959
 3560TIP3    H234876   2.198   2.236   2.188  1.1395  0.1292  2.3846
 3561TIP3   OH234877   7.506   2.113   0.734  0.0585 -0.1557 -0.2501
 3561TIP3    H134878   7.539   2.184   0.679 -2.0905  1.3176  0.2253
 3561TIP3    H234879   7.504   2.150   0.822 -0.6500 -0.9571  0.0809
 3562TIP3   OH234880   0.463   3.475   9.300 -0.1088 -0.4172 -0.0787
 3562TIP3    H134881   0.445   3.460   9.393  0.2621 -2.4445 -0.2807
 3562TIP3    H234882   0.403   3.545   9.275 -0.1561  0.2235  1.7005
 3563TIP3   OH234883   3.660   7.230   2.966  0.0544  0.0011 -0.0690
 3563TIP3    H134884   3.570   7.260   2.958  0.2354  0.1373 -2.5759
 3563TIP3    H234885   3.701   7.254   2.882  2.3761 -0.2096  0.9117
 3564TIP3   OH234886   5.606   6.654   1.351  0.4732  0.0426  0.3372
 3564TIP3    H134887   5.591   6.676   1.259 -1.4788  0.7144  0.7650
 3564TIP3    H234888   5.622   6.560   1.351 -3.6225 -0.8520 -0.3847
 3565TIP3   OH234889   4.474   7.537   9.664 -0.5321 -0.0164 -0.5465
 3565TIP3    H134890   4.551   7.505   9.618  0.5795  1.1687  0.4140
 3565TIP3    H234891   4.504   7.553   9.753 -2.3952 -1.3269  0.3739
 3566TIP3   OH234892   4.388   0.777   8.469  0.0192 -0.2778  0.1590
 3566TIP3    H134893   4.366   0.733   8.551 -0.2678  1.4414  1.0485
 3566TIP3    H234894   4.426   0.860   8.496 -0.6521  0.6033 -1.4618
 3567TIP3   OH234895   3.731   2.238   8.519 -0.0372  0.0409  0.0849
 3567TIP3    H134896   3.794   2.285   8.573  0.3698 -2.2491  1.7213
 3567TIP3    H234897   3.665   2.207   8.580 -1.2826  0.0389 -1.2140
 3568TIP3   OH234898   5.667   0.600   0.182  0.2360 -0.3296 -0.3226
 3568TIP3    H134899   5.700   0.587   0.271 -0.0518 -0.5022 -0.2399
 3568TIP3    H234900   5.697   0.688   0.157  0.1277 -0.1955  0.0257
 3569TIP3   OH234901   0.010   2.950   0.971  0.1213 -0.0291  0.4492
 3569TIP3    H134902   0.084   2.889   0.963  0.0770 -0.1160  0.6760
 3569TIP3    H234903   0.031   3.002   1.049  0.7267  1.0384 -0.3959
 3570TIP3   OH234904   4.309   7.304   9.260 -0.2472 -0.0180  0.0087
 3570TIP3    H134905   4.325   7.247   9.335 -0.9622  1.8546  1.6603
 3570TIP3    H234906   4.391   7.354   9.250 -0.0239 -0.5178 -0.7072
 3571TIP3   OH234907   2.719   0.821   8.293 -0.2045 -0.0140  0.3416
 3571TIP3    H134908   2.667   0.812   8.373  0.2777  2.1959  0.9742
 3571TIP3    H234909   2.773   0.743   8.291 -2.3845 -1.6225  0.4863
 3572TIP3   OH234910   6.741   0.382   7.923 -0.0233  0.7524 -0.6147
 3572TIP3    H134911   6.735   0.385   7.828 -0.4493  1.4790 -0.5761
 3572TIP3    H234912   6.660   0.341   7.952  0.7701 -0.8812 -0.6164
 3573TIP3   OH234913   3.252   1.870   9.418  0.4331  0.2928 -0.0167
 3573TIP3    H134914   3.298   1.942   9.462 -0.4161 -0.0322  1.4943
 3573TIP3    H234915   3.163   1.874   9.453  0.0049 -0.6672 -0.9412
 3574TIP3   OH234916   6.672   0.112   1.428 -0.1576 -0.2039  0.0537
 3574TIP3    H134917   6.725   0.045   1.384 -1.3079 -0.5684 -0.8269
 3574TIP3    H234918   6.684   0.095   1.521  1.9436  0.2690 -0.0699
 3575TIP3   OH234919   2.420   6.480   9.806 -0.2265 -0.0758 -0.5675
 3575TIP3    H134920   2.464   6.396   9.818 -0.8233 -0.2405  0.5924
 3575TIP3    H234921   2.341   6.474   9.860  0.6658  1.9359  1.1152
 3576TIP3   OH234922   6.748   6.116   9.019  0.4318  0.3598  0.3187
 3576TIP3    H134923   6.831   6.099   9.063 -0.5052  0.9311  2.4747
 3576TIP3    H234924   6.730   6.208   9.038 -0.3678  0.4369 -0.7228
 3577TIP3   OH234925   3.086   6.788   7.949  0.4937 -0.9718 -0.3254
 3577TIP3    H134926   3.156   6.734   7.913 -0.4997 -1.1873 -2.0797
 3577TIP3    H234927   3.009   6.766   7.896 -1.1956 -1.5148  2.1751
 3578TIP3   OH234928   1.678   5.401   2.150  0.4717  0.5264  0.0416
 3578TIP3    H134929   1.685   5.426   2.242 -0.4858 -0.5554  0.4401
 3578TIP3    H234930   1.722   5.316   2.145  0.5760  0.6085 -0.5173
 3579TIP3   OH234931   4.111   2.690   9.449  0.0630 -0.2580 -0.5119
 3579TIP3    H134932   4.019   2.697   9.473  0.1570  1.4149 -0.5050
 3579TIP3    H234933   4.158   2.722   9.527  0.7000 -1.8373 -0.2134
 3580TIP3   OH234934   1.604   4.799   9.384 -0.0201  0.1422  0.7252
 3580TIP3    H134935   1.630   4.809   9.475 -0.3511 -1.4697  1.0181
 3580TIP3    H234936   1.686   4.803   9.335  0.2288  0.3122  1.1505
 3581TIP3   OH234937   2.396   3.418   0.068 -0.3970  0.4621  0.5404
 3581TIP3    H134938   2.445   3.468   0.133 -1.5825  1.6230  0.5729
 3581TIP3    H234939   2.329   3.479   0.036 -1.4333 -0.8822  0.0570
 3582TIP3   OH234940   7.497   3.324   8.420  0.5067 -0.1222  0.2221
 3582TIP3    H134941   7.550   3.378   8.362 -0.6539  1.1864  0.3373
 3582TIP3    H234942   7.542   3.329   8.504  1.8189 -1.4742 -0.3667
 3583TIP3   OH234943   0.985   5.210   7.678  0.2562 -0.2754  0.6065
 3583TIP3    H134944   0.970   5.284   7.619  2.1740  1.3379  1.9789
 3583TIP3    H234945   0.994   5.134   7.620  0.5198  0.9670 -1.0539
 3584TIP3   OH234946   1.705   6.387   0.613  0.6606 -0.2232  0.2395
 3584TIP3    H134947   1.650   6.418   0.541  0.4115 -0.9672  0.1041
 3584TIP3    H234948   1.735   6.467   0.657 -0.5747  0.1957  0.3564
 3585TIP3   OH234949   3.916   2.748   8.584 -0.3314 -0.2003  0.4438
 3585TIP3    H134950   3.919   2.827   8.638 -0.6244 -0.7425  1.2723
 3585TIP3    H234951   3.834   2.705   8.609 -0.7670 -0.1712 -0.8702
 3586TIP3   OH234952   3.639   7.618   0.563  0.2180 -0.1917 -0.1109
 3586TIP3    H134953   3.691   7.588   0.488  0.1719 -0.2174 -0.1321
 3586TIP3    H234954   3.617   7.709   0.541  0.7456  0.0060  0.1616
 3587TIP3   OH234955   6.128   1.978   7.056 -0.1915 -0.4844 -0.5863
 3587TIP3    H134956   6.111   1.951   7.146 -0.1258 -0.8717 -0.6857
 3587TIP3    H234957   6.146   1.896   7.010  1.0948 -0.1822 -0.6697
 3588TIP3   OH234958   2.601   6.440   0.169 -0.3440 -0.0672 -0.2028
 3588TIP3    H134959   2.665   6.369   0.180  0.1966  0.3569 -0.5226
 3588TIP3    H234960   2.651   6.510   0.128 -1.0193  0.2877 -0.4267
 3589TIP3   OH234961   7.210   7.679   1.069 -0.0399  0.2380 -0.3194
 3589TIP3    H134962   7.236   7.594   1.105 -0.3080 -0.4191 -1.6357
 3589TIP3    H234963   7.135   7.705   1.123 -0.2398 -0.5769 -0.1793
 3590TIP3   OH234964   2.324   1.763   9.995  0.7049 -0.2602  0.3226
 3590TIP3    H134965   2.240   1.803  10.018  0.9370  0.5345 -0.1578
 3590TIP3    H234966   2.311   1.669  10.010 -0.7473 -0.3412 -1.1173
 3591TIP3   OH234967   2.579   1.027   1.551  0.2588 -0.2705 -0.2239
 3591TIP3    H134968   2.572   1.122   1.545 -0.0299 -0.2876 -0.1693
 3591TIP3    H234969   2.527   0.995   1.476 -0.3805 -0.4032  0.2625
 3592TIP3   OH234970   6.852   6.170   1.991  0.0447  0.4083 -0.4895
 3592TIP3    H134971   6.855   6.081   2.025  0.1838  0.8397  0.6634
 3592TIP3    H234972   6.943   6.200   1.993 -0.1607  1.0379  0.4494
 3593TIP3   OH234973   5.471   4.191   8.227 -0.2494 -0.6857 -0.5698
 3593TIP3    H134974   5.378   4.212   8.226  0.0352  0.6896 -0.8865
 3593TIP3    H234975   5.486   4.142   8.146 -0.4762  0.2439 -1.1932
 3594TIP3   OH234976   3.525   0.546   7.683  0.2297  0.2043  0.1282
 3594TIP3    H134977   3.552   0.616   7.624 -0.0465 -1.0251 -1.5386
 3594TIP3    H234978   3.439   0.519   7.650 -0.7160  0.5532  2.1238
 3595TIP3   OH234979   4.157   6.980   7.937 -0.0627 -0.0170 -0.0642
 3595TIP3    H134980   4.196   6.946   7.856 -1.7632 -0.1902 -0.8513
 3595TIP3    H234981   4.211   7.055   7.960 -0.6334  1.2355 -2.4698
 3596TIP3   OH234982   5.181   5.348   9.610 -0.0383  0.4848  0.2076
 3596TIP3    H134983   5.127   5.279   9.646 -0.4852  0.8589  0.2600
 3596TIP3    H234984   5.266   5.306   9.593 -0.2598 -0.0324  0.3721
 3597TIP3   OH234985   4.230   1.752   0.541  0.0344 -0.1056 -0.0443
 3597TIP3    H134986   4.271   1.667   0.558  0.2695 -0.0170 -0.1582
 3597TIP3    H234987   4.278   1.813   0.598 -0.4634 -0.1292  0.4089
 3598TIP3   OH234988   5.263   4.854   7.251  0.0013 -0.0520 -0.0968
 3598TIP3    H134989   5.230   4.934   7.210  0.8209  0.3564  0.0299
 3598TIP3    H234990   5.187   4.818   7.297 -0.7338 -0.1037 -1.3070
 3599TIP3   OH234991   3.898   6.003   7.645  0.4842 -0.4281  0.0635
 3599TIP3    H134992   3.987   5.992   7.610  0.7094  0.5294  0.3027
 3599TIP3    H234993   3.840   5.990   7.570  0.9252  0.9159 -0.5262
 3600TIP3   OH234994   4.255   0.488   8.003  0.3506 -0.7668 -0.2208
 3600TIP3    H134995   4.171   0.461   8.040  1.1291 -3.4182 -0.1309
 3600TIP3    H234996   4.299   0.535   8.073  0.4948 -2.8469  1.1596
 3601TIP3   OH234997   2.503   2.392   2.509 -0.2434  0.1286 -1.0345
 3601TIP3    H134998   2.597   2.409   2.516 -0.2908  1.1712 -2.3682
 3601TIP3    H234999   2.462   2.468   2.550 -0.5079 -0.5060 -0.1198
 3602TIP3   OH235000   6.057   0.549   1.550  0.1077 -0.3142 -0.1874
 3602TIP3    H135001   6.119   0.526   1.619  2.3460  0.0876 -1.9579
 3602TIP3    H235002   5.982   0.492   1.565  0.3917 -0.0833  2.6703
 3603TIP3   OH235003   5.014   3.224   8.102  0.3993 -0.0044  0.3374
 3603TIP3    H135004   5.066   3.165   8.157 -0.2836  0.7179  1.8136
 3603TIP3    H235005   4.990   3.296   8.160 -2.0731 -0.2000 -0.3172
 3604TIP3   OH235006   2.870   2.168   7.749  0.0583 -0.0205  0.2636
 3604TIP3    H135007   2.802   2.115   7.708  0.7378 -2.0766  1.6515
 3604TIP3    H235008   2.822   2.240   7.790 -1.0191 -0.1683 -0.6802
 3605TIP3   OH235009   3.612   2.245   9.949 -0.5759  0.1424  0.1906
 3605TIP3    H135010   3.536   2.294   9.917 -0.5510 -1.1806 -2.0764
 3605TIP3    H235011   3.666   2.311   9.993 -1.8452  1.6065 -0.3538
 3606TIP3   OH235012   4.159   6.763   1.231  0.3808  0.0727  0.5964
 3606TIP3    H135013   4.077   6.731   1.266  0.9836 -1.8764  0.3423
 3606TIP3    H235014   4.165   6.725   1.143  1.4376  0.3948  0.5053
 3607TIP3   OH235015   7.392   6.859   3.139 -0.2842 -0.0359  0.3021
 3607TIP3    H135016   7.312   6.896   3.102 -0.0730  0.0697 -0.0546
 3607TIP3    H235017   7.390   6.885   3.231 -0.2030  0.7573  0.0876
 3608TIP3   OH235018   4.436   5.013   8.505 -0.4200 -0.3681 -0.2904
 3608TIP3    H135019   4.439   5.086   8.567  2.3641  0.2590 -1.0281
 3608TIP3    H235020   4.434   5.055   8.419  1.5963 -1.0973 -0.7364
 3609TIP3   OH235021   3.702   4.601   8.639  0.3272 -0.5136  0.3737
 3609TIP3    H135022   3.782   4.629   8.593  0.4802 -2.5203 -0.7115
 3609TIP3    H235023   3.692   4.664   8.710  1.6671  1.0612 -0.7505
 3610TIP3   OH235024   2.110   4.328   7.407 -0.0441 -0.1408  0.0047
 3610TIP3    H135025   2.200   4.335   7.375  0.2188  0.1869  0.8094
 3610TIP3    H235026   2.112   4.256   7.470 -0.5000 -0.5835 -0.4718
 3611TIP3   OH235027   6.584   6.926   1.706  0.5893 -0.1696  0.5464
 3611TIP3    H135028   6.593   7.006   1.653 -0.7139  0.0111  0.5586
 3611TIP3    H235029   6.585   6.855   1.643  0.8720 -0.0798  0.4491
 3612TIP3   OH235030   6.733   6.474   9.565 -0.2819  0.3996  0.4717
 3612TIP3    H135031   6.697   6.522   9.490 -4.8325 -1.0882  1.3925
 3612TIP3    H235032   6.803   6.421   9.528 -1.1998  0.9908 -2.3917
 3613TIP3   OH235033   3.086   0.831   1.956 -0.8642  0.1021 -0.2484
 3613TIP3    H135034   3.046   0.847   2.042  1.4041 -0.7062  1.0443
 3613TIP3    H235035   3.148   0.903   1.945 -1.1006  0.1672 -1.1873
 3614TIP3   OH235036   4.483   6.827   2.273 -0.2772 -0.4168  0.0962
 3614TIP3    H135037   4.568   6.868   2.259  0.1262 -1.6616 -1.3529
 3614TIP3    H235038   4.428   6.862   2.202 -0.9365  0.2529  0.9257
 3615TIP3   OH235039   7.218   1.474   7.498 -0.2914  0.4236 -0.4654
 3615TIP3    H135040   7.123   1.490   7.503  0.1689  3.2928  1.5805
 3615TIP3    H235041   7.251   1.503   7.583  2.5132  0.1255 -1.3747
 3616TIP3   OH235042   7.223   1.491   7.074 -0.0756  0.3531  0.4136
 3616TIP3    H135043   7.231   1.418   7.135  0.1207  0.6816  0.7810
 3616TIP3    H235044   7.314   1.510   7.047 -0.2549 -0.7235 -1.0949
 3617TIP3   OH235045   0.463   4.084   1.870  0.5709 -0.0209  0.0443
 3617TIP3    H135046   0.426   3.997   1.857  0.8287 -0.0283 -0.7238
 3617TIP3    H235047   0.557   4.069   1.880  0.3849 -0.0290  2.2774
 3618TIP3   OH235048   2.930   1.184   9.392  0.0315  0.6381  0.2524
 3618TIP3    H135049   2.978   1.120   9.339 -0.0605  0.6906  0.1026
 3618TIP3    H235050   2.963   1.269   9.362 -1.0538  0.7365 -0.7678
 3619TIP3   OH235051   2.538   4.092   0.931 -0.7585  0.3401 -0.2614
 3619TIP3    H135052   2.549   3.997   0.927  0.5765  0.4892 -0.8449
 3619TIP3    H235053   2.555   4.122   0.842 -1.1682  1.1354 -0.0839
 3620TIP3   OH235054   5.899   4.615   7.977  0.1678 -0.8326  0.3403
 3620TIP3    H135055   5.853   4.694   7.949  0.2297 -1.5260 -1.9855
 3620TIP3    H235056   5.991   4.632   7.959  0.6142 -0.3325  2.7725
 3621TIP3   OH235057   7.162   7.412   8.727  0.0050  0.6949 -0.3401
 3621TIP3    H135058   7.227   7.352   8.764  0.3479  0.6315 -1.0339
 3621TIP3    H235059   7.081   7.390   8.773  0.4812  0.8266  0.5985
 3622TIP3   OH235060   6.569   5.450   9.826  0.3735  0.1092 -0.2560
 3622TIP3    H135061   6.645   5.455   9.884  0.0723 -2.1566  0.4248
 3622TIP3    H235062   6.529   5.365   9.845 -3.1016  1.6759  0.3459
 3623TIP3   OH235063   4.239   4.775   8.812  0.2919 -0.3046  0.0648
 3623TIP3    H135064   4.258   4.698   8.865  0.5177  0.4202  1.0725
 3623TIP3    H235065   4.244   4.848   8.874 -1.5265  0.3635 -0.5171
 3624TIP3   OH235066   0.741   5.162   0.205  0.2422  0.1319  0.1147
 3624TIP3    H135067   0.826   5.194   0.174 -0.5446  1.2356 -1.0438
 3624TIP3    H235068   0.695   5.242   0.232 -0.0620 -0.5633  1.7180
 3625TIP3   OH235069   2.594   4.897   7.418 -0.0192 -1.1760 -0.3882
 3625TIP3    H135070   2.614   4.935   7.503  0.8733 -1.4419 -0.4753
 3625TIP3    H235071   2.675   4.855   7.389 -0.1372 -0.6029 -1.6366
 3626TIP3   OH235072   1.989   1.294   8.995 -0.6317 -0.0172 -0.1718
 3626TIP3    H135073   2.032   1.265   9.076 -0.7741 -0.9283 -0.4167
 3626TIP3    H235074   1.993   1.389   8.999 -2.5122  0.0675  1.9693
 3627TIP3   OH235075   4.322   7.270   1.276 -0.2456  0.0520  0.6166
 3627TIP3    H135076   4.311   7.265   1.371 -0.7085  0.5001  0.5928
 3627TIP3    H235077   4.322   7.179   1.247  1.0526 -0.1458  1.1631
 3628TIP3   OH235078   0.949   2.801   0.183  0.2643  0.0660 -0.3611
 3628TIP3    H135079   0.873   2.752   0.215  0.1937  0.3203 -0.1313
 3628TIP3    H235080   0.988   2.837   0.262 -0.6311  1.7473 -0.6455
 3629TIP3   OH235081   2.237   5.043   0.237  0.4324 -0.2437  0.5984
 3629TIP3    H135082   2.326   5.039   0.272  0.4112 -0.7853  0.6016
 3629TIP3    H235083   2.210   4.951   0.229  0.7121 -0.1887 -1.5422
 3630TIP3   OH235084   2.892   7.080   0.621 -0.4114  0.5123 -0.3466
 3630TIP3    H135085   2.888   7.044   0.532 -1.0413  1.3032 -0.6532
 3630TIP3    H235086   2.801   7.083   0.650 -0.1230 -0.8287  0.7963
 3631TIP3   OH235087   0.502   4.183   7.727  0.0604 -0.5365  0.4678
 3631TIP3    H135088   0.562   4.241   7.774 -1.4608  0.5190  1.2010
 3631TIP3    H235089   0.549   4.160   7.647  1.8990 -0.7055  1.5407
 3632TIP3   OH235090   3.608   3.182   1.706  0.3733  0.2959 -0.3695
 3632TIP3    H135091   3.660   3.111   1.745 -0.1945  0.0420 -0.0593
 3632TIP3    H235092   3.612   3.166   1.612 -1.5218 -1.4597 -0.2287
 3633TIP3   OH235093   2.439   6.884   0.722 -0.0839 -0.2317 -0.2348
 3633TIP3    H135094   2.435   6.836   0.805 -2.5821 -0.9906 -0.7242
 3633TIP3    H235095   2.531   6.878   0.696  0.6618 -0.3883  2.2086
 3634TIP3   OH235096   0.798   0.432   2.489  0.1943 -0.6215 -0.6700
 3634TIP3    H135097   0.782   0.338   2.496 -0.0162 -0.4972  0.8091
 3634TIP3    H235098   0.714   0.469   2.462  0.6060 -0.9503 -2.6122
 3635TIP3   OH235099   7.431   2.645   2.876  0.1722 -0.1519 -0.3996
 3635TIP3    H135100   7.483   2.592   2.936  0.1547  1.0890  0.7577
 3635TIP3    H235101   7.353   2.592   2.859 -1.1766  0.4993  2.8931
 3636TIP3   OH235102   6.219   4.471   7.611 -0.1978 -0.6127 -0.2025
 3636TIP3    H135103   6.190   4.532   7.543 -0.7575 -0.0710  0.5016
 3636TIP3    H235104   6.165   4.393   7.598 -2.0083  0.3588  1.0524
 3637TIP3   OH235105   3.169   3.237   2.985 -0.2118  0.1321 -1.0231
 3637TIP3    H135106   3.095   3.188   2.950  0.3951 -1.3793 -0.2978
 3637TIP3    H235107   3.210   3.177   3.047  2.1371  0.5862 -2.0278
 3638TIP3   OH235108   1.273   6.356   0.967  0.2605  0.1924  0.1941
 3638TIP3    H135109   1.321   6.426   1.010  0.6388  0.7547 -1.0892
 3638TIP3    H235110   1.340   6.298   0.932 -0.0362 -0.1374  0.1591
 3639TIP3   OH235111   5.902   5.277   9.681  0.5658  0.2164 -0.1460
 3639TIP3    H135112   5.951   5.195   9.690 -0.9668 -0.8853 -1.2666
 3639TIP3    H235113   5.825   5.264   9.736  0.7718  1.2974  0.4033
 3640TIP3   OH235114   0.907   5.263   8.533 -0.5468 -0.0209  0.8927
 3640TIP3    H135115   0.812   5.250   8.542 -0.4318 -0.9714  0.8781
 3640TIP3    H235116   0.941   5.175   8.513  0.1536  0.5634 -0.6288
 3641TIP3   OH235117   0.881   5.876   2.586  0.3714  0.3915  0.5742
 3641TIP3    H135118   0.786   5.875   2.577  0.5365 -0.8081 -1.6618
 3641TIP3    H235119   0.911   5.798   2.540  2.5513  1.7256 -0.4580
 3642TIP3   OH235120   5.213   5.851   9.931  0.4004 -0.0673  0.0980
 3642TIP3    H135121   5.126   5.875   9.899  0.0587 -0.5751  0.6320
 3642TIP3    H235122   5.207   5.857  10.026  0.5775 -1.2991  0.2078
 3643TIP3   OH235123   5.286   3.275   7.291  1.1186  0.0869 -0.1867
 3643TIP3    H135124   5.380   3.266   7.275  0.8896  0.1810 -1.7343
 3643TIP3    H235125   5.247   3.199   7.248  0.5056 -0.1271  0.7261
 3644TIP3   OH235126   5.412   6.472   2.123  0.0154 -0.0047 -0.0590
 3644TIP3    H135127   5.338   6.430   2.167  0.3034 -0.6084 -0.1293
 3644TIP3    H235128   5.381   6.488   2.034 -0.5042  1.0440  0.2956
 3645TIP3   OH235129   6.420   0.385   9.975 -0.0984 -0.8088  0.0829
 3645TIP3    H135130   6.439   0.385  10.069 -0.5904  0.6945  0.2167
 3645TIP3    H235131   6.495   0.343   9.935 -0.2156 -2.1467  1.2005
 3646TIP3   OH235132   5.683   7.409   9.961  0.1680 -0.4042  0.3136
 3646TIP3    H135133   5.625   7.445   9.894  0.4597  0.4998  0.5275
 3646TIP3    H235134   5.666   7.315   9.960 -0.8934 -0.2194 -0.0130
 3647TIP3   OH235135   5.554   5.769   7.445  0.1183 -0.2629  0.0731
 3647TIP3    H135136   5.532   5.680   7.417  2.0172 -0.3711 -1.2880
 3647TIP3    H235137   5.641   5.761   7.484  0.6702  1.1082 -0.8127
 3648TIP3   OH235138   5.893   0.618   8.582 -0.0511 -0.4746  0.5419
 3648TIP3    H135139   5.839   0.555   8.535  0.3849  0.6922 -1.6616
 3648TIP3    H235140   5.835   0.692   8.598  0.6858  0.5880 -1.4130
 3649TIP3   OH235141   5.379   5.936   8.424 -0.1249 -0.6723  0.5213
 3649TIP3    H135142   5.296   5.913   8.467 -0.2604  0.4321  0.8797
 3649TIP3    H235143   5.429   5.981   8.492  1.0008 -1.7997  0.4692
 3650TIP3   OH235144   4.821   7.552   1.308  0.0396 -0.3852 -0.0087
 3650TIP3    H135145   4.882   7.502   1.363  1.1789 -0.8805 -1.6347
 3650TIP3    H235146   4.842   7.524   1.218 -2.3728 -0.3122 -0.6577
 3651TIP3   OH235147   0.004   1.099   8.736 -0.2416 -0.1074 -0.5450
 3651TIP3    H135148  -0.087   1.107   8.764 -0.5462  0.9493 -1.7337
 3651TIP3    H235149   0.028   1.187   8.706  1.2765 -0.2969  0.0266
 3652TIP3   OH235150   6.289   3.433   7.772  0.1992 -0.0723 -0.1672
 3652TIP3    H135151   6.336   3.396   7.697  0.6164  1.3652 -0.6500
 3652TIP3    H235152   6.233   3.362   7.802 -0.4140 -0.5426 -2.2229
 3653TIP3   OH235153   2.246   4.304   1.044 -0.2121  0.0717 -0.3472
 3653TIP3    H135154   2.162   4.286   1.001 -0.1961 -0.4814 -0.1565
 3653TIP3    H235155   2.275   4.387   1.006 -1.3480  0.8209  0.3593
 3654TIP3   OH235156   1.094   4.430   0.097  0.4628 -0.1008  0.1225
 3654TIP3    H135157   1.166   4.473   0.144 -0.0139  1.0075 -0.1446
 3654TIP3    H235158   1.069   4.492   0.029  0.2509 -1.1215 -0.7644
 3655TIP3   OH235159   6.392   2.976   0.468  0.4847  0.2438 -0.1070
 3655TIP3    H135160   6.464   3.038   0.456 -0.3863  1.5250  0.9522
 3655TIP3    H235161   6.416   2.926   0.546  1.0726 -0.6001 -0.8192
 3656TIP3   OH235162   5.843   3.152   7.189 -0.3037 -0.0724 -0.1510
 3656TIP3    H135163   5.857   3.246   7.203  1.1338 -0.1305 -0.9400
 3656TIP3    H235164   5.916   3.111   7.235 -0.8965 -0.8198  0.1411
 3657TIP3   OH235165   0.943   0.550   1.739  0.3487 -0.0751  0.2417
 3657TIP3    H135166   0.909   0.528   1.826  0.9604 -0.9348  0.2747
 3657TIP3    H235167   0.919   0.475   1.684  3.2512 -1.4087  0.5600
 3658TIP3   OH235168   1.382   3.625   2.676 -0.2188 -0.2294  0.1104
 3658TIP3    H135169   1.335   3.599   2.755 -0.5008  0.2692  0.1165
 3658TIP3    H235170   1.324   3.599   2.604 -1.6109  2.3403  0.1650
 3659TIP3   OH235171   4.635   6.965   7.549 -0.0657  0.9179 -0.3407
 3659TIP3    H135172   4.559   6.913   7.520 -0.1896  0.7381  0.2963
 3659TIP3    H235173   4.656   6.930   7.636  1.7411 -0.1273 -1.1359
 3660TIP3   OH235174   0.445   0.690   1.428 -0.3898 -0.1538 -0.1517
 3660TIP3    H135175   0.396   0.739   1.494 -2.2433 -1.0840 -0.7821
 3660TIP3    H235176   0.425   0.734   1.346  1.3456  0.5621 -0.2406
 3661TIP3   OH235177   6.846   5.349   7.733  0.1619 -0.3072  0.2438
 3661TIP3    H135178   6.908   5.403   7.684  0.0895 -0.8645 -0.4879
 3661TIP3    H235179   6.773   5.408   7.752  0.0604 -0.1494 -0.5841
 3662TIP3   OH235180   1.375   1.662   9.878  0.1943  0.4123  0.1207
 3662TIP3    H135181   1.458   1.669   9.831  0.1525 -0.6052 -0.1335
 3662TIP3    H235182   1.324   1.737   9.847  1.3863  1.6887  1.0994
 3663TIP3   OH235183   2.845   3.723   0.473 -0.2947  0.1765 -0.1435
 3663TIP3    H135184   2.872   3.635   0.449 -2.1859 -0.6071  0.4268
 3663TIP3    H235185   2.799   3.713   0.557 -3.2806  1.1457 -1.5157
 3664TIP3   OH235186   6.681   0.837   8.167  0.5759 -0.1976  0.1987
 3664TIP3    H135187   6.748   0.846   8.099  0.3317  1.4830  0.1334
 3664TIP3    H235188   6.719   0.776   8.230  2.4758  1.1570  0.4684
 3665TIP3   OH235189   0.224   0.151   0.898 -0.2025  0.0343  0.0158
 3665TIP3    H135190   0.143   0.102   0.890 -1.2743  1.7020  0.1366
 3665TIP3    H235191   0.214   0.202   0.979  0.1653  1.5991 -0.8748
 3666TIP3   OH235192   1.940   5.175   0.015 -0.0426 -0.1119  0.3882
 3666TIP3    H135193   1.860   5.228   0.012  0.5484  0.7933 -0.0958
 3666TIP3    H235194   1.986   5.206   0.093  0.9231  1.0643 -0.5999
 3667TIP3   OH235195   4.454   5.327   0.201  0.0943  0.2146  0.7010
 3667TIP3    H135196   4.381   5.267   0.218  0.2904 -0.5093 -0.8921
 3667TIP3    H235197   4.411   5.408   0.174 -0.1398  0.1857  0.9752
 3668TIP3   OH235198   5.481   2.420   9.073 -0.5193  0.2776  0.7902
 3668TIP3    H135199   5.491   2.506   9.113 -1.3350  2.0087 -2.3759
 3668TIP3    H235200   5.388   2.400   9.081 -0.8967  1.1237 -0.9388
 3669TIP3   OH235201   3.084   0.525   7.964 -0.0144 -0.4584 -0.0621
 3669TIP3    H135202   3.105   0.556   8.052 -0.4155  0.8293 -0.3974
 3669TIP3    H235203   3.136   0.445   7.954  1.7461  0.5288  0.5557
 3670TIP3   OH235204   4.868   0.598   7.719  0.2129  0.2546 -0.0163
 3670TIP3    H135205   4.960   0.614   7.741 -0.0775 -0.3618  1.9239
 3670TIP3    H235206   4.869   0.565   7.630  1.9894 -0.5699  0.2701
 3671TIP3   OH235207   3.509   6.683   2.556  0.3782  0.0368 -0.2019
 3671TIP3    H135208   3.423   6.654   2.587  0.3399  0.0681 -0.2786
 3671TIP3    H235209   3.507   6.667   2.462 -0.1091  1.4359 -0.4499
 3672TIP3   OH235210   7.100   1.458   2.186 -0.5606 -0.1485 -0.1277
 3672TIP3    H135211   7.150   1.499   2.117 -0.7869  0.5914  0.1383
 3672TIP3    H235212   7.145   1.482   2.267 -0.4508 -0.7828  0.0087
 3673TIP3   OH235213   0.559   0.248   9.657 -0.1353 -0.4092 -0.4849
 3673TIP3    H135214   0.470   0.214   9.646  0.0091 -0.8374 -0.3453
 3673TIP3    H235215   0.600   0.189   9.720 -0.6222  1.3758  1.6222
 3674TIP3   OH235216   6.244   1.679   8.673  0.0189  1.0180  0.2461
 3674TIP3    H135217   6.299   1.614   8.629 -0.9575  0.8966 -0.8150
 3674TIP3    H235218   6.238   1.751   8.611 -2.4789  0.2956 -0.4659
 3675TIP3   OH235219   7.304   1.899   9.627  0.4550  0.5169 -0.4191
 3675TIP3    H135220   7.399   1.903   9.616  0.7577 -2.7361 -0.0456
 3675TIP3    H235221   7.286   1.960   9.698  2.4188  0.4947  0.1766
 3676TIP3   OH235222   0.891   5.310   2.072  0.1152 -0.6005  0.0230
 3676TIP3    H135223   0.847   5.380   2.024 -0.5273  0.1875  1.6862
 3676TIP3    H235224   0.981   5.340   2.081 -0.7604  1.5959  3.3082
 3677TIP3   OH235225   7.176   3.841   8.035 -0.1428 -0.3653 -0.5237
 3677TIP3    H135226   7.170   3.754   7.994  0.7591 -0.8676  0.3839
 3677TIP3    H235227   7.224   3.826   8.116  0.0427  0.9990 -0.3675
 3678TIP3   OH235228   7.571   4.034   2.015  0.2970 -0.2917 -0.4900
 3678TIP3    H135229   7.583   3.953   2.065  0.9039 -1.0912 -1.8718
 3678TIP3    H235230   7.544   4.099   2.081  0.3530 -1.4642  0.7393
 3679TIP3   OH235231   1.403   0.538   2.107 -0.1788 -0.4425  0.1327
 3679TIP3    H135232   1.425   0.466   2.165  0.1616 -0.5878 -0.1671
 3679TIP3    H235233   1.312   0.522   2.081 -0.0949 -0.7838  0.0443
 3680TIP3   OH235234   6.923   3.026   9.356 -0.4530  0.6689  0.1462
 3680TIP3    H135235   6.873   3.088   9.303 -1.9826 -0.5372  0.0918
 3680TIP3    H235236   7.014   3.036   9.327 -0.6886  2.6972 -0.0077
 3681TIP3   OH235237   0.751   0.396   8.299  0.3768  0.1744 -0.7178
 3681TIP3    H135238   0.687   0.358   8.238  1.7198 -1.0683 -1.3933
 3681TIP3    H235239   0.697   0.439   8.365 -1.3331 -3.4632  0.5114
 3682TIP3   OH235240   5.715   4.266   8.344  0.4514 -1.1124 -0.4198
 3682TIP3    H135241   5.631   4.235   8.310 -0.0873  0.8772 -1.0860
 3682TIP3    H235242   5.752   4.319   8.273  1.1146  0.0228  0.7111
 3683TIP3   OH235243   0.891   3.635   9.436 -0.2473  0.0915  0.2227
 3683TIP3    H135244   0.842   3.690   9.498  1.6192  1.6292  0.4123
 3683TIP3    H235245   0.883   3.546   9.472 -2.9073  0.2125  0.1841
 3684TIP3   OH235246   5.864   0.071   2.530  0.4876  0.5396 -0.7459
 3684TIP3    H135247   5.791   0.034   2.480  0.1343  0.6486 -0.3194
 3684TIP3    H235248   5.833   0.158   2.556  0.6335  0.4504 -0.2649
 3685TIP3   OH235249   0.508   7.284   1.629  0.1828  0.0755  0.1475
 3685TIP3    H135250   0.464   7.283   1.714  1.9780  0.6409  1.1201
 3685TIP3    H235251   0.547   7.197   1.621  0.6002  0.2551  0.2233
 3686TIP3   OH235252   1.567   4.941   2.985  0.2730 -0.3594  0.0506
 3686TIP3    H135253   1.495   4.878   2.984  0.4435 -0.5572 -0.6506
 3686TIP3    H235254   1.634   4.901   3.040  0.8663 -1.3743 -1.3334
 3687TIP3   OH235255   7.262   5.309   1.176 -0.0977  0.0025  0.1796
 3687TIP3    H135256   7.302   5.394   1.198  0.9311 -0.4281  0.0325
 3687TIP3    H235257   7.296   5.249   1.243 -0.6935 -0.3296  0.1865
 3688TIP3   OH235258   6.996   5.016   6.818 -0.6661 -0.3995  0.2772
 3688TIP3    H135259   6.954   4.932   6.836  0.6230 -0.9060  1.1032
 3688TIP3    H235260   7.090   4.996   6.816 -0.3152  1.0589  0.7197
 3689TIP3   OH235261   0.226   5.606   2.140 -0.5845 -0.1996  0.0630
 3689TIP3    H135262   0.305   5.636   2.095  0.0218 -2.6100 -0.6301
 3689TIP3    H235263   0.224   5.658   2.221  0.2534  1.7165 -1.0705
 3690TIP3   OH235264   6.748   1.919   1.388  0.6688 -0.0043 -0.0055
 3690TIP3    H135265   6.761   2.000   1.338 -0.5993  0.0287 -0.3236
 3690TIP3    H235266   6.736   1.948   1.478  0.5374  0.1448 -0.0696
 3691TIP3   OH235267   7.134   2.159   2.033 -0.0198 -0.5576  0.1077
 3691TIP3    H135268   7.227   2.141   2.044  0.5027  2.1781  0.7494
 3691TIP3    H235269   7.127   2.195   1.944 -0.8737 -2.6654 -0.7621
 3692TIP3   OH235270   3.897   2.931   9.656  0.2441  0.3519  0.1143
 3692TIP3    H135271   3.859   2.934   9.568  1.4686  0.1410 -0.4418
 3692TIP3    H235272   3.895   2.838   9.679  1.3792  0.1980 -0.3625
 3693TIP3   OH235273   7.436   0.140   0.722 -0.0408 -0.6598  0.3176
 3693TIP3    H135274   7.428   0.045   0.719  2.5171 -0.9515  0.4624
 3693TIP3    H235275   7.406   0.169   0.635  0.0512 -1.6774 -0.0677
 3694TIP3   OH235276   2.958   7.597   2.181 -0.3052 -0.1182 -0.2771
 3694TIP3    H135277   2.877   7.613   2.231 -0.5587 -2.2779  0.0870
 3694TIP3    H235278   2.934   7.618   2.090 -0.8434  0.6140  0.0225
 3695TIP3   OH235279   3.733   3.664   7.525  0.4277 -0.7131 -0.1753
 3695TIP3    H135280   3.755   3.703   7.609  2.2281 -0.5999 -0.6529
 3695TIP3    H235281   3.700   3.577   7.546  0.5816 -0.5745  0.6633
 3696TIP3   OH235282   2.428   0.907   3.424  0.1155 -0.2987 -0.0091
 3696TIP3    H135283   2.408   0.947   3.340  0.0655  0.5811  0.4148
 3696TIP3    H235284   2.361   0.839   3.435 -0.7953  0.5967  0.0166
 3697TIP3   OH235285   2.204   1.908   2.389  0.0533 -0.0637 -0.4437
 3697TIP3    H135286   2.259   1.985   2.368 -0.5601  0.6648  0.5564
 3697TIP3    H235287   2.218   1.894   2.482 -1.2681 -0.0203 -0.2324
 3698TIP3   OH235288   3.090   1.153   7.874  0.1606 -0.0406  0.2159
 3698TIP3    H135289   3.149   1.210   7.824  1.7842 -1.3884  0.4989
 3698TIP3    H235290   3.055   1.092   7.810  0.0624 -0.0197  0.2505
 3699TIP3   OH235291   6.598   6.266   0.215  0.0221 -0.2031 -0.0059
 3699TIP3    H135292   6.681   6.218   0.217 -1.0341 -2.1292  0.5544
 3699TIP3    H235293   6.565   6.253   0.127  0.0622  0.0902 -0.0636
 3700TIP3   OH235294   7.223   7.526   8.477  0.6695  0.1608  0.2227
 3700TIP3    H135295   7.266   7.494   8.556 -2.6454  0.3967  2.3220
 3700TIP3    H235296   7.131   7.531   8.500 -0.5762 -0.1508 -3.8519
 3701TIP3   OH235297   0.258   0.838   9.799 -0.0623 -0.4070 -0.0487
 3701TIP3    H135298   0.243   0.889   9.720 -0.6956 -1.0353 -0.3443
 3701TIP3    H235299   0.171   0.805   9.824  0.3270 -1.3878  0.0873
 3702TIP3   OH235300   0.182   1.913   2.216  0.2728  0.0804 -0.1461
 3702TIP3    H135301   0.096   1.879   2.242  1.5031 -1.7274  1.9054
 3702TIP3    H235302   0.242   1.841   2.234  2.2143  1.1822 -1.8308
 3703TIP3   OH235303   3.207   7.226   9.668  0.3254 -0.5284  0.3254
 3703TIP3    H135304   3.258   7.303   9.694  0.5196 -0.2921 -0.7111
 3703TIP3    H235305   3.146   7.259   9.602  0.5693 -1.2983 -0.3015
 3704TIP3   OH235306   2.915   1.383   9.034 -0.0608  0.2925 -0.2349
 3704TIP3    H135307   2.840   1.415   9.084  0.0854 -0.7774  0.6919
 3704TIP3    H235308   2.958   1.463   9.002 -0.6287  0.9633  0.6385
 3705TIP3   OH235309   1.678   5.242   2.547  0.3424 -0.3833 -0.1482
 3705TIP3    H135310   1.644   5.178   2.611  3.0705 -1.6421  0.1631
 3705TIP3    H235311   1.695   5.191   2.468  0.6395  0.3854 -0.5960
 3706TIP3   OH235312   7.009   2.898   0.876  0.0329  0.1158 -0.2329
 3706TIP3    H135313   6.930   2.845   0.885  0.3913 -0.1412  1.8629
 3706TIP3    H235314   7.003   2.963   0.946  0.4802  1.7660 -1.6363
 3707TIP3   OH235315   1.904   6.043   2.167 -0.1536  0.7711 -0.3280
 3707TIP3    H135316   1.875   6.101   2.237 -1.4679  0.0031 -0.1863
 3707TIP3    H235317   1.874   6.086   2.087  1.0284  1.4687 -0.4164
 3708TIP3   OH235318   5.462   0.137   0.879 -0.0525 -0.5753  0.1772
 3708TIP3    H135319   5.542   0.137   0.827  0.0899  0.3212  0.3774
 3708TIP3    H235320   5.396   0.098   0.821  0.2174 -0.0368 -0.5054
 3709TIP3   OH235321   2.748   1.814   0.470  0.5462  0.3125 -0.6813
 3709TIP3    H135322   2.664   1.790   0.431  0.3732 -1.4353  0.6539
 3709TIP3    H235323   2.725   1.863   0.549  0.6636 -1.6063  0.6112
 3710TIP3   OH235324   4.649   6.193   1.007 -0.6676 -0.5463  0.2808
 3710TIP3    H135325   4.724   6.246   0.978  1.5660 -2.8061  1.5185
 3710TIP3    H235326   4.635   6.131   0.936  0.7838 -2.1538  1.3413
 3711TIP3   OH235327   4.551   3.368   8.814  0.1545 -0.0197  0.0952
 3711TIP3    H135328   4.610   3.364   8.739 -2.2714 -0.6701 -1.9111
 3711TIP3    H235329   4.537   3.461   8.829 -0.6231  0.1330 -1.4049
 3712TIP3   OH235330   5.220   3.902   7.694  0.1211 -0.4367  0.4457
 3712TIP3    H135331   5.279   3.894   7.620 -0.1260 -1.3492  0.3426
 3712TIP3    H235332   5.272   3.944   7.763  0.5201 -0.1383 -0.0380
 3713TIP3   OH235333   0.496   4.964   9.738  0.0375  0.5653  0.1811
 3713TIP3    H135334   0.449   4.898   9.789  0.3925 -0.1689 -0.4183
 3713TIP3    H235335   0.484   4.936   9.647  0.5966  1.0612 -0.0463
 3714TIP3   OH235336   2.897   3.138   1.624 -0.1627  0.6220  0.1682
 3714TIP3    H135337   2.981   3.092   1.613 -0.5415  0.1860 -1.1448
 3714TIP3    H235338   2.831   3.070   1.612 -0.7305  1.4377 -1.7185
 3715TIP3   OH235339   2.675   0.432   8.314  0.1126  0.4681 -0.5577
 3715TIP3    H135340   2.631   0.510   8.280 -2.8195 -0.7621  0.1241
 3715TIP3    H235341   2.699   0.382   8.236 -0.2319  0.8947 -0.9372
 3716TIP3   OH235342   0.723   2.595   1.705  0.6348 -0.0483 -0.1618
 3716TIP3    H135343   0.694   2.632   1.789 -1.6205  0.8526 -1.2652
 3716TIP3    H235344   0.773   2.517   1.729 -1.7823 -1.0639  1.9959
 3717TIP3   OH235345   6.824   2.837   2.190 -0.0551  0.2617 -0.4034
 3717TIP3    H135346   6.857   2.919   2.152 -0.5731 -0.0489 -1.5722
 3717TIP3    H235347   6.865   2.768   2.137 -0.3537 -0.2018 -0.0381
 3718TIP3   OH235348   0.431   3.830   8.334  0.6107 -0.2218 -0.7849
 3718TIP3    H135349   0.478   3.768   8.389 -1.2005 -1.7041 -0.8103
 3718TIP3    H235350   0.425   3.910   8.386  2.6878 -0.1178 -0.6174
 3719TIP3   OH235351   0.728   3.342   8.033  0.0101  0.6450 -0.0170
 3719TIP3    H135352   0.764   3.285   7.965 -3.8127  0.6160 -2.3276
 3719TIP3    H235353   0.708   3.283   8.106  0.6224 -0.0374 -0.3857
 3720TIP3   OH235354   4.823   5.757   9.149 -0.4945 -0.3407 -0.4610
 3720TIP3    H135355   4.810   5.850   9.131  0.0048 -0.0978  0.3851
 3720TIP3    H235356   4.744   5.731   9.198 -0.5780 -0.3370 -0.5926
 3721TIP3   OH235357   7.273   3.472   2.636 -0.1654 -0.0211 -1.0152
 3721TIP3    H135358   7.241   3.389   2.602 -2.1827  0.0937  0.4687
 3721TIP3    H235359   7.203   3.504   2.692  1.8123  1.2134  0.8978
 3722TIP3   OH235360   5.117   2.104   0.631  0.3704  0.4084  0.1366
 3722TIP3    H135361   5.115   2.192   0.594 -1.9316  0.5630  0.4948
 3722TIP3    H235362   5.209   2.089   0.653  1.1249  1.9340 -1.7151
 3723TIP3   OH235363   1.220   1.815   7.761 -1.0264 -0.0078  0.3643
 3723TIP3    H135364   1.238   1.896   7.809 -0.7615 -0.3210  0.7968
 3723TIP3    H235365   1.134   1.788   7.793 -0.7350 -0.3554  0.8575
 3724TIP3   OH235366   7.317   1.209   1.596  0.3005  0.5979  0.6054
 3724TIP3    H135367   7.347   1.131   1.549 -2.0604  0.2306 -0.4018
 3724TIP3    H235368   7.290   1.176   1.682 -1.5068  0.0962 -0.1178
 3725TIP3   OH235369   1.619   1.888   9.785  0.4118 -0.0032  0.2058
 3725TIP3    H135370   1.558   1.916   9.717  2.7769  0.7035 -1.8023
 3725TIP3    H235371   1.602   1.945   9.859 -3.9158 -2.3551  1.3603
 3726TIP3   OH235372   7.506   0.202   1.566 -0.2106 -0.2347  0.0951
 3726TIP3    H135373   7.536   0.286   1.531 -2.2870  1.2596  1.6592
 3726TIP3    H235374   7.546   0.198   1.654 -0.2983 -0.7930  0.1124
 3727TIP3   OH235375   3.122   4.135   8.507  0.0349 -0.1806 -0.1724
 3727TIP3    H135376   3.059   4.176   8.447 -1.7420 -2.4211  0.0600
 3727TIP3    H235377   3.109   4.041   8.496 -0.2973 -0.7447  3.6090
 3728TIP3   OH235378   2.532   7.019   8.183 -0.7071 -0.1561  0.0216
 3728TIP3    H135379   2.628   7.015   8.187 -0.7044  0.0185  0.1304
 3728TIP3    H235380   2.504   6.936   8.221 -0.5795 -0.8122 -1.2718
 3729TIP3   OH235381   2.320   0.921   0.126 -0.5111 -0.0712 -0.2060
 3729TIP3    H135382   2.340   1.010   0.099 -1.0218 -0.0361 -0.4778
 3729TIP3    H235383   2.400   0.871   0.106 -1.2182 -0.2613 -2.7914
 3730TIP3   OH235384   5.305   7.480   2.494  0.3849  0.9164  0.1303
 3730TIP3    H135385   5.329   7.413   2.430  1.2141  0.5722  0.7866
 3730TIP3    H235386   5.235   7.439   2.545 -1.0809  1.6094 -1.2436
 3731TIP3   OH235387   2.819   1.193   2.934  0.1772  0.6256 -0.0228
 3731TIP3    H135388   2.730   1.224   2.948 -0.4171 -1.3028  0.7904
 3731TIP3    H235389   2.866   1.218   3.014  0.2155  1.1065 -0.1935
 3732TIP3   OH235390   2.721   5.254   0.604 -0.0675  0.2766  0.4858
 3732TIP3    H135391   2.766   5.299   0.675  0.4667 -0.3471  0.5427
 3732TIP3    H235392   2.673   5.324   0.559 -0.5327  0.6580  1.5343
 3733TIP3   OH235393   6.927   0.325   1.666 -0.0385  0.1658 -0.1803
 3733TIP3    H135394   7.005   0.311   1.720  0.3515  0.9284 -0.5243
 3733TIP3    H235395   6.896   0.237   1.645  0.9393 -0.1595 -0.3247
 3734TIP3   OH235396   6.878   1.225   7.257 -0.1451  0.1955 -0.4285
 3734TIP3    H135397   6.881   1.313   7.296  0.4927 -0.4962  1.1539
 3734TIP3    H235398   6.958   1.218   7.205  0.0269  0.3937 -0.1916
 3735TIP3   OH235399   7.065   0.400   9.210  0.5410 -0.0363 -0.1389
 3735TIP3    H135400   7.095   0.477   9.258 -1.6981  1.4942 -1.0533
 3735TIP3    H235401   6.978   0.381   9.247 -0.3836 -0.0257 -2.2001
 3736TIP3   OH235402   5.521   1.035   8.804 -0.4646 -0.2013 -0.1452
 3736TIP3    H135403   5.573   0.966   8.765 -1.9253 -0.6393 -1.4419
 3736TIP3    H235404   5.432   1.000   8.806 -0.8878  0.8618  1.0963
 3737TIP3   OH235405   2.151   7.387   1.472  0.0577  0.3723 -0.2428
 3737TIP3    H135406   2.073   7.354   1.427 -0.1369  0.8497 -0.2528
 3737TIP3    H235407   2.220   7.325   1.448 -0.0214  0.6723 -1.2817
 3738TIP3   OH235408   3.420   2.560   8.659  0.6627  0.4280  0.1305
 3738TIP3    H135409   3.391   2.515   8.739  0.8559  0.0030 -0.0318
 3738TIP3    H235410   3.376   2.645   8.662  0.9972  0.5862  0.9056
 3739TIP3   OH235411   0.562   5.594   1.217 -0.2213 -0.4391  0.0938
 3739TIP3    H135412   0.479   5.587   1.263 -0.0109 -2.0167  0.2918
 3739TIP3    H235413   0.544   5.563   1.129  0.0254 -0.1775 -0.0543
 3740TIP3   OH235414   1.807   4.082   8.612  0.5297 -0.0088  0.5447
 3740TIP3    H135415   1.842   4.167   8.641 -0.2356  0.8045 -0.8169
 3740TIP3    H235416   1.875   4.046   8.555  1.3477 -0.8864  1.9832
 3741TIP3   OH235417   3.138   6.593   9.021 -0.5652  0.3452 -0.2603
 3741TIP3    H135418   3.089   6.527   9.069 -0.6249  0.4477 -0.1809
 3741TIP3    H235419   3.072   6.655   8.991 -0.4639  0.5712 -0.0138
 3742TIP3   OH235420   4.712   6.569   0.973 -0.0908  0.2389 -0.1277
 3742TIP3    H135421   4.781   6.506   0.953 -0.1479  0.5219 -1.2735
 3742TIP3    H235422   4.756   6.636   1.026 -0.0161 -0.7097  1.0442
 3743TIP3   OH235423   2.882   4.220   1.857  0.3894 -0.1542 -0.1963
 3743TIP3    H135424   2.961   4.188   1.813  1.1215  0.4594  0.6410
 3743TIP3    H235425   2.823   4.244   1.786  0.1512 -2.4333 -0.8724
 3744TIP3   OH235426   4.066   0.444   6.911  0.0213 -0.4071  0.7926
 3744TIP3    H135427   3.974   0.419   6.922 -0.5440  0.8936 -0.6078
 3744TIP3    H235428   4.112   0.362   6.894 -0.3545 -1.4549  4.1626
 3745TIP3   OH235429   5.375   3.078   8.009 -0.0572  0.6978  0.4231
 3745TIP3    H135430   5.340   3.068   7.920 -1.8070  0.4153  1.1072
 3745TIP3    H235431   5.388   2.988   8.039 -3.2795  0.5995  1.8420
 3746TIP3   OH235432   0.726   0.076   7.289 -0.0482 -0.0857  0.1259
 3746TIP3    H135433   0.792   0.014   7.321  1.5916  0.9989 -1.0069
 3746TIP3    H235434   0.696   0.038   7.206  1.6629  1.0247 -1.0611
 3747TIP3   OH235435   4.757   5.794   8.824  0.0503 -0.0939  0.2185
 3747TIP3    H135436   4.836   5.746   8.799 -0.1842  0.1680 -1.1423
 3747TIP3    H235437   4.789   5.871   8.870  0.6295  0.2326 -0.7020
 3748TIP3   OH235438   3.978   1.630   1.567  0.3375  0.3166 -0.3030
 3748TIP3    H135439   3.886   1.657   1.565  0.3003  0.1464 -0.8466
 3748TIP3    H235440   4.021   1.686   1.504  0.3562 -0.5205 -1.0571
 3749TIP3   OH235441   4.202   0.781   9.632 -0.0341  0.4824 -0.8528
 3749TIP3    H135442   4.274   0.777   9.695 -0.2939  0.3857 -0.5568
 3749TIP3    H235443   4.124   0.756   9.683 -0.2444  0.3876 -1.2149
 3750TIP3   OH235444   2.801   4.984   0.946  0.4957 -0.1722  0.0098
 3750TIP3    H135445   2.879   4.965   0.998  0.7397 -1.2069 -0.7098
 3750TIP3    H235446   2.820   4.947   0.860 -1.4990 -2.0583  0.3003
 3751TIP3   OH235447   4.671   6.684   9.951  0.4487 -1.0201  0.5844
 3751TIP3    H135448   4.659   6.599   9.992 -1.5870 -1.5581 -0.9629
 3751TIP3    H235449   4.756   6.679   9.907  0.5372 -2.0852  0.8701
 3752TIP3   OH235450   1.569   5.238   3.255  0.0560  0.2164 -0.6127
 3752TIP3    H135451   1.602   5.315   3.302  0.7540  0.0039 -0.7474
 3752TIP3    H235452   1.633   5.169   3.273 -1.1514 -0.6680  0.4224
 3753TIP3   OH235453   7.524   6.728   0.012 -0.3881  0.5071  0.1327
 3753TIP3    H135454   7.597   6.741  -0.049  0.2282  1.1657  0.9637
 3753TIP3    H235455   7.483   6.646  -0.015 -0.5276  1.0943 -1.5330
 3754TIP3   OH235456   2.672   7.443   9.009  0.0991  0.0506  0.0828
 3754TIP3    H135457   2.666   7.515   8.946  0.8595  0.2380  0.2121
 3754TIP3    H235458   2.598   7.387   8.988 -1.4319  1.6439  0.9521
 3755TIP3   OH235459   4.676   6.790   9.640 -0.1031 -0.2929  0.2949
 3755TIP3    H135460   4.585   6.771   9.663 -0.1762  1.7177  1.9187
 3755TIP3    H235461   4.727   6.759   9.715  0.1258  2.0411  1.1808
 3756TIP3   OH235462   2.137   0.461   7.639 -0.2293  0.5604  0.1863
 3756TIP3    H135463   2.191   0.415   7.704 -0.4646 -1.6868 -1.1171
 3756TIP3    H235464   2.182   0.545   7.627  2.7618 -0.9835 -0.4640
 3757TIP3   OH235465   4.428   6.882   8.392 -0.7659 -0.0055  0.2062
 3757TIP3    H135466   4.390   6.968   8.411 -0.5062 -0.1228  1.3326
 3757TIP3    H235467   4.384   6.853   8.312  0.2567  1.8534 -1.1207
 3758TIP3   OH235468   6.386   7.315   0.712 -0.2555 -0.1350 -0.1752
 3758TIP3    H135469   6.459   7.253   0.715 -0.6831 -0.6646 -0.6131
 3758TIP3    H235470   6.394   7.365   0.794 -1.2606 -2.3389  1.3709
 3759TIP3   OH235471   6.437   0.614   9.796  0.2361 -0.0201  0.4403
 3759TIP3    H135472   6.531   0.616   9.777  0.2463 -1.1988  0.2606
 3759TIP3    H235473   6.421   0.524   9.827 -1.1160 -0.3612 -1.1138
 3760TIP3   OH235474   2.103   6.679   2.248  0.2727  0.0233 -0.2768
 3760TIP3    H135475   2.014   6.645   2.240  0.2811 -1.0131  2.6896
 3760TIP3    H235476   2.150   6.639   2.175 -1.4580 -0.1219 -1.3731
 3761TIP3   OH235477   1.348   3.550   9.075  0.0166  0.1720  0.3755
 3761TIP3    H135478   1.347   3.464   9.031  0.6234  0.8108 -0.9477
 3761TIP3    H235479   1.258   3.582   9.066 -0.2365 -0.3578  0.9606
 3762TIP3   OH235480   4.410   1.097   8.528 -0.4417 -0.4326  0.5088
 3762TIP3    H135481   4.317   1.119   8.529  0.1934  2.8800 -0.6378
 3762TIP3    H235482   4.447   1.147   8.602  0.5855 -0.6890  0.1807
 3763TIP3   OH235483   0.810   2.615   0.357  0.1681 -0.6895 -0.2490
 3763TIP3    H135484   0.815   2.629   0.451 -1.7469 -0.6427 -0.1127
 3763TIP3    H235485   0.863   2.537   0.341  0.7212 -0.5484  0.8203
 3764TIP3   OH235486   6.256   1.646   0.756 -0.1573 -0.4315  0.1003
 3764TIP3    H135487   6.305   1.646   0.674 -1.4869 -1.6130 -0.7426
 3764TIP3    H235488   6.167   1.670   0.731 -0.1816  1.1313  1.5120
 3765TIP3   OH235489   5.093   0.439   1.489  0.2320  0.1792  0.6295
 3765TIP3    H135490   5.119   0.492   1.414  2.3359 -0.1140  1.0838
 3765TIP3    H235491   5.039   0.498   1.542  1.2614  1.4021  0.3713
 3766TIP3   OH235492   4.038   1.179   9.020  0.2710  0.1816  0.1714
 3766TIP3    H135493   4.010   1.268   9.001 -0.3055 -0.2812 -1.2754
 3766TIP3    H235494   3.987   1.154   9.097 -0.8287  0.5184 -0.4299
 3767TIP3   OH235495   5.404   2.216   1.022 -0.6025 -0.0716  0.1639
 3767TIP3    H135496   5.442   2.128   1.026  0.1570  0.2553  0.4521
 3767TIP3    H235497   5.421   2.253   1.109 -0.4452  0.5411 -0.1213
 3768TIP3   OH235498   5.870   6.263   7.502 -0.1981  0.3666  0.8577
 3768TIP3    H135499   5.917   6.241   7.421 -0.1551  0.7001  0.7940
 3768TIP3    H235500   5.937   6.263   7.570  0.1549  2.1737  0.5558
 3769TIP3   OH235501   2.825   2.876   1.319 -0.2992  0.1101 -0.5951
 3769TIP3    H135502   2.859   2.790   1.295  1.7554  0.3353  1.1880
 3769TIP3    H235503   2.900   2.935   1.314 -0.8784  1.1208  1.2920
 3770TIP3   OH235504   3.979   0.339   9.561  0.1780  0.0967 -0.1340
 3770TIP3    H135505   3.924   0.284   9.505 -0.0732  0.2869 -0.0791
 3770TIP3    H235506   4.049   0.369   9.504  0.7981 -0.9496  0.0385
 3771TIP3   OH235507   3.538   0.224   0.101  0.2812  0.0414 -0.3928
 3771TIP3    H135508   3.631   0.203   0.111  0.4166  1.4875  1.9181
 3771TIP3    H235509   3.498   0.195   0.182 -1.2089 -0.0220 -1.1256
 3772TIP3   OH235510   7.036   0.314   2.066 -0.0070 -0.1936 -0.3456
 3772TIP3    H135511   7.045   0.267   1.983 -0.5471 -0.6837 -0.1259
 3772TIP3    H235512   7.066   0.253   2.132 -0.6169 -0.2018 -0.0706
 3773TIP3   OH235513   2.014   1.453   0.611 -0.7279  0.2009 -0.3909
 3773TIP3    H135514   2.089   1.450   0.669  0.1269  0.0072 -1.4840
 3773TIP3    H235515   2.032   1.388   0.544 -1.3254  0.9530 -1.3069
 3774TIP3   OH235516   5.608   1.462   0.180  0.2931 -0.1053  0.3922
 3774TIP3    H135517   5.604   1.371   0.209 -0.3241 -0.3344 -0.3703
 3774TIP3    H235518   5.546   1.467   0.107  0.8613  0.7515 -0.0565
 3775TIP3   OH235519   1.233   1.372   2.214 -0.6563 -0.2582 -0.0094
 3775TIP3    H135520   1.236   1.285   2.255 -1.2215 -0.2497  0.0591
 3775TIP3    H235521   1.175   1.423   2.270  0.3107  0.4191  0.4198
 3776TIP3   OH235522   4.301   1.327   2.482  0.1910  0.5049  0.5342
 3776TIP3    H135523   4.259   1.247   2.513  1.7894 -0.8761 -0.6942
 3776TIP3    H235524   4.302   1.317   2.386  0.3208  2.0645  0.3483
 3777TIP3   OH235525   2.364   4.370   0.298 -0.2350  1.1132 -0.0593
 3777TIP3    H135526   2.312   4.445   0.328 -0.5035  1.6597 -1.7827
 3777TIP3    H235527   2.383   4.389   0.206  1.7943  0.2217  0.1182
 3778TIP3   OH235528   4.830   7.472   2.285 -0.1337  0.8754  0.8199
 3778TIP3    H135529   4.774   7.521   2.225 -0.7243 -0.4297  0.2659
 3778TIP3    H235530   4.912   7.521   2.288 -0.0715  0.9406 -1.1142
 3779TIP3   OH235531   6.434   6.211   7.188 -0.5331 -0.2416 -0.4889
 3779TIP3    H135532   6.497   6.192   7.118 -0.0868  1.8406 -0.7196
 3779TIP3    H235533   6.349   6.202   7.146 -0.3453 -1.2269 -0.6812
 3780TIP3   OH235534   0.779   1.074   0.403  0.6230 -0.1716  0.5551
 3780TIP3    H135535   0.735   1.154   0.375  0.5281 -0.4479 -0.0950
 3780TIP3    H235536   0.723   1.039   0.472 -0.1231 -0.4527 -0.1815
 3781TIP3   OH235537   0.939   3.008   7.416  0.4678  0.4176 -0.0151
 3781TIP3    H135538   0.996   2.984   7.490 -0.8069  0.1917  0.9206
 3781TIP3    H235539   0.989   2.982   7.338  1.2145 -0.7165  0.8140
 3782TIP3   OH235540   1.699   0.338   9.689 -0.7588 -0.2791  0.2698
 3782TIP3    H135541   1.684   0.327   9.783  0.2599 -0.2013  0.4448
 3782TIP3    H235542   1.733   0.427   9.680 -0.3299 -0.4797 -0.1125
 3783TIP3   OH235543   0.924   1.779   8.936 -0.1933  0.0302 -0.3154
 3783TIP3    H135544   0.993   1.766   9.001 -0.8428 -1.5911  0.1002
 3783TIP3    H235545   0.845   1.793   8.987 -0.5383 -0.2205 -0.7723
 3784TIP3   OH235546   5.298   6.460   8.976  0.1956 -0.0748 -0.4814
 3784TIP3    H135547   5.226   6.439   8.917  0.0504 -0.7772 -0.0608
 3784TIP3    H235548   5.326   6.376   9.011  0.6464  0.2768  0.0282
 3785TIP3   OH235549   4.268   1.471   8.480 -0.2867 -0.3161 -0.5205
 3785TIP3    H135550   4.194   1.417   8.510 -1.8437  2.1074  0.3421
 3785TIP3    H235551   4.340   1.448   8.539 -0.7588 -1.7712 -0.4917
 3786TIP3   OH235552   7.501   7.227   7.896  0.4123  0.7043  0.2095
 3786TIP3    H135553   7.508   7.135   7.868  0.9397  0.3473  1.4053
 3786TIP3    H235554   7.459   7.272   7.823  0.9890 -0.3116 -0.7885
 3787TIP3   OH235555   3.179   3.156   1.344 -0.5272 -0.3974  0.4250
 3787TIP3    H135556   3.195   3.110   1.426 -3.0867 -0.7553  0.8156
 3787TIP3    H235557   3.125   3.096   1.293 -1.2071  0.8486 -0.3820
 3788TIP3   OH235558   1.204   6.954   8.576  0.3301 -0.2716  0.5057
 3788TIP3    H135559   1.258   6.883   8.541 -1.9536 -1.5752 -0.6390
 3788TIP3    H235560   1.204   7.020   8.506 -0.0690 -0.5799  0.2058
 3789TIP3   OH235561   1.531   6.283   8.016  0.3896 -0.2740  0.1059
 3789TIP3    H135562   1.488   6.198   8.023  0.7093 -0.4282  0.2376
 3789TIP3    H235563   1.600   6.280   8.082  1.8844 -0.8060 -1.4068
 3790TIP3   OH235564   4.163   6.714   7.367 -0.2703  0.2589  0.0001
 3790TIP3    H135565   4.091   6.686   7.424  0.1451  1.3713  1.1266
 3790TIP3    H235566   4.231   6.648   7.381 -0.7081 -0.2686 -0.3291
 3791TIP3   OH235567   0.101   2.311   0.282  0.6354  0.4185  0.5515
 3791TIP3    H135568   0.146   2.358   0.212  2.3215  1.0866  1.9853
 3791TIP3    H235569   0.172   2.274   0.335 -0.5291  0.4736  2.2480
 3792TIP3   OH235570   0.032   5.317   0.794  0.1029  0.0720  0.0994
 3792TIP3    H135571  -0.053   5.274   0.799 -0.8326  1.9366  1.0407
 3792TIP3    H235572   0.086   5.271   0.858 -0.1283 -1.2032 -0.5889
 3793TIP3   OH235573   7.100   3.313   7.632  0.2350  0.2762 -0.4196
 3793TIP3    H135574   7.024   3.268   7.669  0.3289 -0.9116 -1.5955
 3793TIP3    H235575   7.149   3.344   7.708 -0.4729 -0.5675  0.4064
 3794TIP3   OH235576   5.514   3.686   9.019 -0.0135  0.6573  0.1109
 3794TIP3    H135577   5.532   3.596   9.045 -1.2021  0.3114 -0.2381
 3794TIP3    H235578   5.508   3.734   9.102  0.5544  0.4221  0.2991
 3795TIP3   OH235579   0.801   0.738   8.804 -0.5921  0.1775  0.1914
 3795TIP3    H135580   0.807   0.790   8.883 -0.6883 -1.8457  1.6178
 3795TIP3    H235581   0.710   0.749   8.775 -0.9184 -0.0285  1.0977
 3796TIP3   OH235582   4.644   3.560   0.157 -0.2368  0.1366 -0.4026
 3796TIP3    H135583   4.640   3.630   0.091  0.6931 -0.1023 -0.7339
 3796TIP3    H235584   4.557   3.521   0.156 -1.6364  2.8393  1.5427
 3797TIP3   OH235585   2.661   1.941   8.519 -0.3136 -0.3784  0.8293
 3797TIP3    H135586   2.695   1.904   8.438 -1.7518  2.0150 -1.0122
 3797TIP3    H235587   2.569   1.916   8.521 -0.0578 -1.3611  2.3840
 3798TIP3   OH235588   5.066   6.168   7.703 -0.1638 -0.3421 -0.2335
 3798TIP3    H135589   5.132   6.108   7.668 -0.2206 -0.9245  0.6213
 3798TIP3    H235590   5.116   6.237   7.746 -0.1056 -0.4080 -0.1953
 3799TIP3   OH235591   4.739   0.155   1.564  0.0406 -0.4250  0.1755
 3799TIP3    H135592   4.713   0.247   1.564 -1.1319 -0.7172 -1.4353
 3799TIP3    H235593   4.830   0.155   1.534  0.0915  0.2134  0.3307
 3800TIP3   OH235594   2.887   3.163   9.973 -0.4725 -0.2024 -0.4348
 3800TIP3    H135595   2.901   3.074   9.938  0.5501  0.3311 -1.4587
 3800TIP3    H235596   2.793   3.175   9.969 -0.9019 -2.0930  1.9187
 3801TIP3   OH235597   4.642   2.201   8.929  0.0906 -0.0971 -0.2672
 3801TIP3    H135598   4.658   2.147   8.852  1.1868  0.7157 -0.6336
 3801TIP3    H235599   4.589   2.274   8.897 -2.8416 -1.7206  0.5473
 3802TIP3   OH235600   1.250   1.182   7.053  0.0405 -0.3591  0.1456
 3802TIP3    H135601   1.208   1.267   7.064 -3.2210 -1.9620  1.1826
 3802TIP3    H235602   1.258   1.171   6.958 -1.1155  0.3613 -0.0475
 3803TIP3   OH235603   0.736   5.936   7.831  0.3146 -0.5836 -0.1708
 3803TIP3    H135604   0.667   5.886   7.788 -2.3143  2.5717  0.0057
 3803TIP3    H235605   0.709   5.939   7.923  0.0435  1.5285 -0.2711
 3804TIP3   OH235606   2.635   2.058   1.974  0.4536 -0.2593  0.0213
 3804TIP3    H135607   2.627   1.970   2.012 -0.8391 -1.0142 -1.7979
 3804TIP3    H235608   2.562   2.063   1.912  2.2806  0.9104 -2.1755
 3805TIP3   OH235609   2.461   4.473   1.904 -0.5757 -0.2571 -0.8805
 3805TIP3    H135610   2.368   4.480   1.923 -0.2524  0.4842  0.6653
 3805TIP3    H235611   2.476   4.534   1.832 -1.4493 -1.2192 -1.9111
 3806TIP3   OH235612   6.980   4.082   9.498  0.2799  0.1816  0.7486
 3806TIP3    H135613   6.972   4.064   9.404  3.3657 -0.1321  0.4431
 3806TIP3    H235614   7.031   4.163   9.503 -0.0150  0.3043  2.1616
 3807TIP3   OH235615   6.637   6.280   8.531  0.0842  0.9399 -0.2857
 3807TIP3    H135616   6.712   6.274   8.472  0.0480  0.2806 -0.2720
 3807TIP3    H235617   6.570   6.225   8.491  0.1670  0.2293  0.5302
 3808TIP3   OH235618   6.331   1.357   7.051 -1.0884  0.0327  0.0916
 3808TIP3    H135619   6.250   1.305   7.055 -0.6441 -0.6728  0.1109
 3808TIP3    H235620   6.315   1.420   6.981 -0.8523 -1.5293 -1.4323
 3809TIP3   OH235621   3.051   0.892   2.333 -0.0310 -0.3732 -0.4770
 3809TIP3    H135622   2.998   0.901   2.412  0.3162 -1.0419 -0.1576
 3809TIP3    H235623   3.123   0.835   2.359  1.5328  1.4783 -0.5659
 3810TIP3   OH235624   7.576   1.082   9.489 -0.8445  0.7828  0.0135
 3810TIP3    H135625   7.571   1.165   9.536 -1.0566  1.4422 -1.1190
 3810TIP3    H235626   7.531   1.099   9.406 -1.5411 -0.6907  0.0665
 3811TIP3   OH235627   1.872   4.932   8.075 -0.0072 -0.0565 -0.1450
 3811TIP3    H135628   1.878   5.027   8.081 -2.3204  0.1738 -0.3221
 3811TIP3    H235629   1.783   4.912   8.106  0.7255 -2.2531  0.7065
 3812TIP3   OH235630   5.759   1.579   2.204  0.1436  0.1143  0.8317
 3812TIP3    H135631   5.710   1.497   2.193  0.3933 -0.0254  0.7552
 3812TIP3    H235632   5.716   1.640   2.145  0.5872 -0.2430  0.1190
 3813TIP3   OH235633   1.002   2.415   7.771  0.2206  0.0532  0.2577
 3813TIP3    H135634   1.080   2.421   7.826  1.6501  1.4416 -1.7863
 3813TIP3    H235635   0.964   2.330   7.793  2.7139 -1.0079  0.7921
 3814TIP3   OH235636   6.322   1.158   2.803 -0.2947 -0.3362 -0.1741
 3814TIP3    H135637   6.400   1.143   2.856 -0.6152 -0.0861  0.3773
 3814TIP3    H235638   6.252   1.173   2.867 -0.6250  0.2781 -0.6705
 3815TIP3   OH235639   5.158   5.827   9.109 -0.2812  0.2006 -0.0309
 3815TIP3    H135640   5.123   5.915   9.098  0.5724  0.4774 -0.6359
 3815TIP3    H235641   5.171   5.795   9.020 -0.1453 -0.3528  0.1840
 3816TIP3   OH235642   6.812   2.709   0.855 -0.6071 -0.0174  0.7516
 3816TIP3    H135643   6.809   2.632   0.798  0.5665 -0.3896  1.1579
 3816TIP3    H235644   6.770   2.778   0.804  1.0120 -0.1479 -0.8918
 3817TIP3   OH235645   3.928   1.903   7.808 -0.3140 -0.0738 -0.2645
 3817TIP3    H135646   3.954   1.896   7.716  2.9461 -0.4975  0.5702
 3817TIP3    H235647   3.975   1.833   7.852 -2.0938 -0.1203  1.7252
 3818TIP3   OH235648   1.058   2.324   8.608  0.0988 -0.7589  0.1233
 3818TIP3    H135649   1.143   2.289   8.634 -0.2200 -1.0544  0.7881
 3818TIP3    H235650   1.000   2.247   8.608 -0.0202 -0.6820 -0.9920
 3819TIP3   OH235651   3.396   1.871   8.911  0.0226 -0.0703 -0.2175
 3819TIP3    H135652   3.303   1.860   8.891 -0.0314  0.5590 -0.3348
 3819TIP3    H235653   3.398   1.936   8.981  0.4276  0.7572 -0.9843
 3820TIP3   OH235654   3.284   1.232   0.307 -0.3340  0.0661  0.0979
 3820TIP3    H135655   3.297   1.161   0.369  2.7458  1.3319  1.0593
 3820TIP3    H235656   3.228   1.294   0.353 -2.6986 -1.4092 -0.5954
 3821TIP3   OH235657   1.496   3.680   9.725  0.2082  0.2710  0.2266
 3821TIP3    H135658   1.434   3.705   9.656 -0.8621 -0.5978  0.8382
 3821TIP3    H235659   1.577   3.725   9.702 -0.6790  1.5561 -0.5292
 3822TIP3   OH235660   4.470   6.356   8.315 -0.1992  0.3503  0.0663
 3822TIP3    H135661   4.385   6.314   8.301  0.6902 -1.1127 -1.1677
 3822TIP3    H235662   4.467   6.386   8.406 -1.5818 -0.7551  0.4113
 3823TIP3   OH235663   2.410   1.559   0.856 -0.0816 -0.2533  0.2789
 3823TIP3    H135664   2.454   1.476   0.874 -1.7723 -0.7703  2.5572
 3823TIP3    H235665   2.368   1.582   0.939 -2.2849  1.2522 -1.1518
 3824TIP3   OH235666   5.057   0.806   9.113 -0.2649 -0.1610  0.2319
 3824TIP3    H135667   5.023   0.878   9.060 -0.9621  0.0851  0.9979
 3824TIP3    H235668   5.089   0.847   9.193  1.6640 -0.4171 -0.3573
 3825TIP3   OH235669   0.954   5.869   8.828 -0.6544 -0.1166 -0.1720
 3825TIP3    H135670   0.973   5.842   8.917  0.5623  1.3356  0.0448
 3825TIP3    H235671   0.858   5.873   8.824 -0.7177  0.3426  1.2504
 3826TIP3   OH235672   3.111   4.480   9.956 -0.0130 -0.1531  0.2157
 3826TIP3    H135673   3.150   4.461  10.041 -0.2288  0.7354  0.5300
 3826TIP3    H235674   3.103   4.576   9.954  0.7398 -0.0927 -1.1498
 3827TIP3   OH235675   3.654   3.968   7.596 -0.4924  0.3322  0.1148
 3827TIP3    H135676   3.718   3.904   7.630  0.8560  1.9146  0.7055
 3827TIP3    H235677   3.575   3.917   7.582  0.8526 -1.7134 -0.5289
 3828TIP3   OH235678   2.695   4.685   2.827  0.3553  0.1458 -0.3788
 3828TIP3    H135679   2.640   4.720   2.897 -0.5951 -0.3457 -0.8480
 3828TIP3    H235680   2.744   4.761   2.795 -1.1232  0.9426 -0.8802
 3829TIP3   OH235681   7.077   2.254   1.786  0.0109 -0.1717 -0.3181
 3829TIP3    H135682   7.148   2.287   1.732  0.3598 -2.6763 -1.4858
 3829TIP3    H235683   6.997   2.277   1.738  0.1097  0.6715 -0.1048
 3830TIP3   OH235684   0.864   4.475   9.419  0.0570  0.0120  0.3801
 3830TIP3    H135685   0.906   4.392   9.393  0.3602 -0.8327  3.2686
 3830TIP3    H235686   0.933   4.524   9.464 -0.7813  0.7276  0.9250
 3831TIP3   OH235687   3.680   2.191   2.267 -0.3424  0.3886 -0.5833
 3831TIP3    H135688   3.743   2.151   2.327 -0.3560  1.2544  0.0306
 3831TIP3    H235689   3.608   2.128   2.261 -1.6131  1.4002  2.4656
 3832TIP3   OH235690   4.229   0.017   9.677 -0.2719 -0.7305  0.0229
 3832TIP3    H135691   4.315  -0.023   9.662 -1.2747 -2.4699 -1.4225
 3832TIP3    H235692   4.191   0.023   9.589 -2.4490 -1.9508  0.8281
 3833TIP3   OH235693   3.432   6.418   7.970 -0.4698  0.6166 -0.1354
 3833TIP3    H135694   3.415   6.324   7.966 -0.9059  0.7079 -0.4119
 3833TIP3    H235695   3.518   6.427   7.929 -1.2943  0.5645 -2.0056
 3834TIP3   OH235696   4.974   7.364   7.428 -0.0265  0.4491 -0.4696
 3834TIP3    H135697   4.907   7.297   7.439  1.1190 -0.5224  1.0760
 3834TIP3    H235698   5.023   7.336   7.350 -0.1833  0.0402 -0.4240
 3835TIP3   OH235699   3.550   2.714   1.083 -0.0080 -0.2137 -0.7156
 3835TIP3    H135700   3.463   2.752   1.071 -0.0110 -0.0083 -0.1086
 3835TIP3    H235701   3.548   2.632   1.034 -1.2286 -1.2078  0.9133
 3836TIP3   OH235702   2.232   3.810   0.141 -0.4028  0.0662  0.1857
 3836TIP3    H135703   2.290   3.829   0.215  0.6923  0.8409 -0.8313
 3836TIP3    H235704   2.291   3.798   0.067 -1.4620 -1.0273 -0.5142
 3837TIP3   OH235705   4.610   1.827   1.381 -0.1423 -0.1251 -0.1948
 3837TIP3    H135706   4.604   1.732   1.374 -0.5625 -0.1164  0.0129
 3837TIP3    H235707   4.611   1.858   1.290 -1.7501 -0.2320 -0.2825
 3838TIP3   OH235708   1.291   5.991   0.602  0.3286  0.2918  0.3162
 3838TIP3    H135709   1.323   6.078   0.626  0.8359  0.3803 -0.6064
 3838TIP3    H235710   1.304   5.987   0.507  1.2710 -1.1581  0.4673
 3839TIP3   OH235711   5.219   1.892   8.517 -0.3711 -0.3600 -0.1549
 3839TIP3    H135712   5.295   1.948   8.504  0.8419 -0.9566  3.4042
 3839TIP3    H235713   5.153   1.949   8.555 -1.5888  0.0127 -2.6559
 3840TIP3   OH235714   7.374   1.826   9.115 -0.5582 -1.0410  0.5503
 3840TIP3    H135715   7.313   1.899   9.118  1.5085  0.7940  0.1800
 3840TIP3    H235716   7.391   1.806   9.207 -0.8245 -0.8029  0.6539
 3841TIP3   OH235717   0.073   6.826   7.802  0.2137 -0.2202  0.1449
 3841TIP3    H135718   0.167   6.818   7.788  0.4718  2.4409 -0.1424
 3841TIP3    H235719   0.034   6.821   7.715  0.0421 -1.5424  0.2837
 3842TIP3   OH235720   1.611   5.563   0.562 -0.5181  0.0565  0.3803
 3842TIP3    H135721   1.614   5.493   0.627  0.0537  0.4052  0.7401
 3842TIP3    H235722   1.525   5.604   0.576 -0.4340  0.0777  0.8707
 3843TIP3   OH235723   5.799   4.885   9.140 -0.6296  0.0853 -0.4749
 3843TIP3    H135724   5.882   4.852   9.106 -1.6531 -0.2229 -2.9052
 3843TIP3    H235725   5.824   4.952   9.204  1.4786  0.1420 -1.2853
 3844TIP3   OH235726   0.813   1.363   8.643 -0.2532 -0.0942  0.3190
 3844TIP3    H135727   0.722   1.380   8.622  0.2177  1.7104 -0.5401
 3844TIP3    H235728   0.828   1.411   8.725 -1.1204 -4.0285  3.0365
 3845TIP3   OH235729   0.258   5.611   9.336  0.4964 -0.0389 -0.0374
 3845TIP3    H135730   0.200   5.543   9.368  2.0639  0.0402  3.3576
 3845TIP3    H235731   0.205   5.691   9.337 -0.6794 -0.7294 -1.8429
 3846TIP3   OH235732   6.352   5.821   7.673 -0.2491 -0.2663 -0.1394
 3846TIP3    H135733   6.260   5.837   7.653 -0.3950  0.0858  0.7761
 3846TIP3    H235734   6.391   5.796   7.589 -1.4341 -1.6214 -0.3140
 3847TIP3   OH235735   1.826   3.435   9.642  0.5460  0.0143 -0.1917
 3847TIP3    H135736   1.840   3.408   9.551 -0.2319  1.1390 -0.6562
 3847TIP3    H235737   1.813   3.352   9.689 -0.3541 -0.5227 -1.3316
 3848TIP3   OH235738   3.144   4.942   8.192 -0.2729 -0.0649  0.1266
 3848TIP3    H135739   3.146   4.925   8.286 -0.7635 -1.2954 -0.0635
 3848TIP3    H235740   3.064   4.991   8.178 -1.1558 -1.4518  0.1385
 3849TIP3   OH235741   0.360   3.962   1.605  0.6046 -0.0199  0.0792
 3849TIP3    H135742   0.282   4.017   1.615  2.5320  2.6631  1.8164
 3849TIP3    H235743   0.344   3.911   1.526 -3.3297 -0.4658  0.9715
 3850TIP3   OH235744   1.149   2.674   0.010  0.6041 -0.4902 -0.2851
 3850TIP3    H135745   1.074   2.676   0.069 -0.2008  0.3479 -1.3047
 3850TIP3    H235746   1.125   2.732  -0.062  2.2671 -0.1405 -0.5998
 3851TIP3   OH235747   6.548   3.968   8.214  0.3124  0.5089  0.0621
 3851TIP3    H135748   6.561   3.950   8.307 -1.2311 -0.9976  0.0166
 3851TIP3    H235749   6.454   3.982   8.204  0.5693  1.6682 -1.1308
 3852TIP3   OH235750   7.167   2.635   0.211 -0.3434  0.5710  0.6372
 3852TIP3    H135751   7.100   2.568   0.201 -1.5003  1.5945  1.3084
 3852TIP3    H235752   7.215   2.634   0.128  0.5663 -1.9867  1.0991
 3853TIP3   OH235753   3.562   1.868   9.286 -0.1251  0.1708 -0.5321
 3853TIP3    H135754   3.499   1.796   9.280 -1.1230  1.0737 -1.2506
 3853TIP3    H235755   3.582   1.875   9.379 -0.3452 -0.7438 -0.4046
 3854TIP3   OH235756   7.361   4.686   0.276 -0.0761 -0.2967  0.4602
 3854TIP3    H135757   7.267   4.666   0.282 -0.1580 -0.6005 -1.3723
 3854TIP3    H235758   7.367   4.757   0.213  0.9644 -0.5391  0.2729
 3855TIP3   OH235759   1.810   6.336   1.383  0.2988  0.1785 -0.2720
 3855TIP3    H135760   1.753   6.281   1.437  1.5100 -0.2552  0.6143
 3855TIP3    H235761   1.845   6.276   1.317  0.2416  0.2940 -0.4076
 3856TIP3   OH235762   3.101   7.166   1.953 -0.0770 -0.3673  0.1027
 3856TIP3    H135763   3.089   7.175   1.859  0.7439 -2.7122 -0.2890
 3856TIP3    H235764   3.152   7.244   1.978  1.6219 -0.7891 -1.8078
 3857TIP3   OH235765   4.013   2.080   9.162  0.3828  0.2111 -0.4426
 3857TIP3    H135766   4.043   2.116   9.245 -0.5706  0.9150 -0.3858
 3857TIP3    H235767   3.921   2.057   9.178 -0.2395  1.6624 -1.6702
 3858TIP3   OH235768   2.042   2.549   0.614 -0.3922  0.7673 -0.0925
 3858TIP3    H135769   2.089   2.478   0.569 -1.0619 -0.1528  0.6429
 3858TIP3    H235770   2.105   2.582   0.678  0.1087  1.2168 -0.7944
 3859TIP3   OH235771   3.735   6.702   1.774  0.3910 -0.4925  0.3413
 3859TIP3    H135772   3.825   6.730   1.754  0.7874 -1.5935  0.5408
 3859TIP3    H235773   3.680   6.770   1.735  1.3200  0.4600  0.6382
 3860TIP3   OH235774   4.710   3.290   6.562  0.5445  0.5216  0.5264
 3860TIP3    H135775   4.661   3.290   6.644  0.3154  0.5539  0.3901
 3860TIP3    H235776   4.730   3.198   6.546  1.8552  0.6266  1.3647
 3861TIP3   OH235777   4.321   7.139   8.383 -0.3011  0.6505  0.4804
 3861TIP3    H135778   4.357   7.156   8.296  0.3516  1.9733  0.9753
 3861TIP3    H235779   4.227   7.128   8.369  0.0548 -1.4696 -0.6584
 3862TIP3   OH235780   6.080   1.709   9.337  0.9520  0.5059 -0.5550
 3862TIP3    H135781   6.086   1.789   9.389  1.9995  0.8784 -1.2219
 3862TIP3    H235782   5.986   1.698   9.321  0.5732  0.2349  1.5841
 3863TIP3   OH235783   1.842   3.129   0.103  0.4964 -0.1707 -0.4343
 3863TIP3    H135784   1.821   3.163   0.190  0.8928 -0.4370 -0.2340
 3863TIP3    H235785   1.885   3.203   0.059 -0.5119  0.2594 -0.7250
 3864TIP3   OH235786   1.136   0.722   1.536 -0.2157 -0.5015  0.0564
 3864TIP3    H135787   1.056   0.688   1.575  0.3541  0.5122  2.2911
 3864TIP3    H235788   1.126   0.817   1.539  0.7535 -0.3732 -0.3145
 3865TIP3   OH235789   5.419   2.068   0.030  0.3714  0.2527 -0.4235
 3865TIP3    H135790   5.423   1.976   0.057 -1.4415 -0.4568 -2.2964
 3865TIP3    H235791   5.506   2.103   0.050  2.2288 -2.7213 -2.5357
 3866TIP3   OH235792   0.919   5.773   7.712  0.4141 -0.2630 -0.3063
 3866TIP3    H135793   0.878   5.841   7.765  0.9868  0.7664 -1.1290
 3866TIP3    H235794   1.013   5.791   7.718  0.7841 -2.3473  1.2431
 3867TIP3   OH235795   0.027   1.136   9.950 -0.3790 -0.4086  0.0744
 3867TIP3    H135796  -0.019   1.218   9.969 -2.5290 -1.5220 -0.0224
 3867TIP3    H235797   0.092   1.160   9.883 -2.2888  0.8873 -1.4509
 3868TIP3   OH235798   1.664   1.358   8.048 -0.4164  0.4059 -0.2292
 3868TIP3    H135799   1.572   1.347   8.073 -0.7790  1.4223 -1.0417
 3868TIP3    H235800   1.713   1.338   8.128 -1.2965 -0.7513  0.0506
 3869TIP3   OH235801   1.480   4.802   7.567  0.0688 -0.1639  0.3407
 3869TIP3    H135802   1.398   4.779   7.525  0.5881 -1.2913 -0.0965
 3869TIP3    H235803   1.519   4.868   7.510 -0.0102 -0.4618 -0.0606
 3870TIP3   OH235804   6.065   6.506   7.310 -0.3653  0.5962 -0.8249
 3870TIP3    H135805   6.158   6.521   7.291 -0.2489  2.3221  0.7585
 3870TIP3    H235806   6.052   6.413   7.294  1.7454  0.2260 -0.7187
 3871TIP3   OH235807   5.274   1.990   1.236 -0.3204 -0.1575  0.4801
 3871TIP3    H135808   5.300   2.073   1.277  0.7787 -1.0792  1.7099
 3871TIP3    H235809   5.326   1.986   1.156  0.0261  0.0938  0.6887
 3872TIP3   OH235810   2.752   6.099   1.241 -0.4561  0.2149 -0.5338
 3872TIP3    H135811   2.771   6.014   1.202  3.0372  0.5394  0.1897
 3872TIP3    H235812   2.742   6.081   1.334  0.2701  0.5705 -0.3808
 3873TIP3   OH235813   7.078   3.390   1.044  0.4129  0.2190 -0.1575
 3873TIP3    H135814   7.028   3.425   0.970  1.9167  0.0607 -1.2806
 3873TIP3    H235815   7.158   3.442   1.046  0.4295  0.1964  1.3691
 3874TIP3   OH235816   6.568   6.744   0.119 -0.4135 -0.0720 -0.7241
 3874TIP3    H135817   6.579   6.763   0.026  1.9576 -0.1360 -0.5142
 3874TIP3    H235818   6.642   6.687   0.141 -0.5347  0.4901  1.3377
 3875TIP3   OH235819   4.424   5.000   9.521 -0.0005  0.2222 -0.3999
 3875TIP3    H135820   4.417   4.923   9.465 -0.1838  1.0295 -1.5142
 3875TIP3    H235821   4.450   5.071   9.462  2.6381  0.5497  0.9886
 3876TIP3   OH235822   6.579   1.959   9.272  0.0081  0.4510 -0.1624
 3876TIP3    H135823   6.542   1.909   9.199  0.5074  0.9114 -0.7369
 3876TIP3    H235824   6.567   1.902   9.348 -0.5460 -0.0221 -0.5918
 3877TIP3   OH235825   6.659   7.669   7.878 -0.2073 -0.5130  0.0674
 3877TIP3    H135826   6.627   7.748   7.922  0.1257 -0.6539  0.5719
 3877TIP3    H235827   6.600   7.658   7.803 -0.7744 -0.2616  0.4671
 3878TIP3   OH235828   1.431   0.888   3.725 -0.1465  0.2799  0.1208
 3878TIP3    H135829   1.490   0.960   3.747 -0.7324  0.5871  0.6890
 3878TIP3    H235830   1.348   0.929   3.705 -0.3395 -0.2032 -0.0918
 3879TIP3   OH235831   7.123   1.829   1.292  0.1821 -0.0857 -0.1500
 3879TIP3    H135832   7.213   1.849   1.318  0.0042 -0.0375  0.4453
 3879TIP3    H235833   7.097   1.904   1.239  0.0029  0.6168  0.8936
 3880TIP3   OH235834   4.528   7.354   7.433  0.4508 -0.3899 -0.3725
 3880TIP3    H135835   4.481   7.428   7.394 -1.5427 -1.3502  0.0780
 3880TIP3    H235836   4.460   7.303   7.477  1.6792 -2.7042 -0.9899
 3881TIP3   OH235837   0.951   4.167   8.987 -0.1435  0.6041 -0.2361
 3881TIP3    H135838   1.004   4.117   9.050 -0.3729 -0.4402 -0.8412
 3881TIP3    H235839   0.993   4.253   8.983  1.4187 -0.1291 -0.5628
 3882TIP3   OH235840   3.563   6.671   0.499 -0.6931 -0.3511  0.2912
 3882TIP3    H135841   3.475   6.693   0.468  0.0432  1.7020 -0.5054
 3882TIP3    H235842   3.555   6.670   0.595 -2.0158 -2.3454  0.2104
 3883TIP3   OH235843   3.357   2.010   9.132  0.3474 -0.1428  0.5091
 3883TIP3    H135844   3.360   1.927   9.179  1.9126 -0.7607 -0.5958
 3883TIP3    H235845   3.417   2.067   9.180  0.2496 -0.0593  0.5330
 3884TIP3   OH235846   2.207   6.753   1.869  0.1406  0.0961 -0.2880
 3884TIP3    H135847   2.188   6.693   1.942  0.0000  1.5354  0.9138
 3884TIP3    H235848   2.198   6.699   1.791 -0.0977 -1.4162  0.7361
 3885TIP3   OH235849   2.740   3.254   8.438  0.2829  0.0187 -0.1626
 3885TIP3    H135850   2.740   3.158   8.432 -0.1297  0.0777 -1.2356
 3885TIP3    H235851   2.727   3.271   8.531  0.9777 -0.9706  0.1346
 3886TIP3   OH235852   0.941   4.323   2.623  0.1351 -0.2042 -0.2674
 3886TIP3    H135853   0.930   4.263   2.550 -2.0058  0.2777 -0.4151
 3886TIP3    H235854   0.945   4.410   2.583 -0.3745  0.0068  0.1157
 3887TIP3   OH235855   1.959   5.286   2.303  0.9681  0.3198  0.2648
 3887TIP3    H135856   1.900   5.211   2.311  2.3173 -1.0661 -1.5119
 3887TIP3    H235857   2.035   5.262   2.356  1.3365  0.5037 -0.1747
 3888TIP3   OH235858   3.632   0.925   0.604 -0.7823  0.3583 -0.4110
 3888TIP3    H135859   3.676   0.966   0.529 -0.6264 -0.6880 -0.9046
 3888TIP3    H235860   3.700   0.921   0.671 -0.4905 -0.0438 -0.7229
 3889TIP3   OH235861   1.875   2.467   3.085  0.0153  0.4323  0.1021
 3889TIP3    H135862   1.888   2.407   3.012 -1.4090 -0.0987  0.2485
 3889TIP3    H235863   1.860   2.410   3.160 -0.6293  0.9641  0.3864
 3890TIP3   OH235864   2.383   3.781   2.175  0.0425  0.1870  0.5049
 3890TIP3    H135865   2.429   3.837   2.238  1.8807  1.8172 -2.0409
 3890TIP3    H235866   2.333   3.842   2.121 -0.8227 -1.0510 -0.1495
 3891TIP3   OH235867   1.649   7.498   0.173 -0.0156  0.2593  0.0795
 3891TIP3    H135868   1.639   7.578   0.121  1.1697 -0.4681 -1.3704
 3891TIP3    H235869   1.561   7.477   0.203 -0.6023  1.2025 -0.9240
 3892TIP3   OH235870   3.129   5.383   0.044 -0.0272  0.0273  0.4012
 3892TIP3    H135871   3.109   5.442  -0.029  0.0482 -2.7252 -1.9942
 3892TIP3    H235872   3.058   5.399   0.107 -1.6394  0.6514 -1.4616
 3893TIP3   OH235873   2.488   6.392   2.273 -0.4861 -0.6485 -0.2977
 3893TIP3    H135874   2.453   6.442   2.199  0.5864 -0.7990 -0.9309
 3893TIP3    H235875   2.520   6.458   2.334  1.1184 -0.5125 -1.2266
 3894TIP3   OH235876   3.733   5.901   7.449 -0.0894 -0.2127  0.3408
 3894TIP3    H135877   3.675   5.834   7.486 -1.0935 -0.0815 -0.9050
 3894TIP3    H235878   3.724   5.891   7.355  2.2142 -0.3900  0.0829
 3895TIP3   OH235879   6.719   7.587   8.693  0.4987  0.0852  0.2080
 3895TIP3    H135880   6.655   7.656   8.707  0.8927  0.5560 -0.2477
 3895TIP3    H235881   6.708   7.562   8.601  0.8569  0.0648  0.1668
 3896TIP3   OH235882   7.541   7.674   2.245 -0.1285 -0.3197  0.1992
 3896TIP3    H135883   7.455   7.652   2.278  0.2678  0.5208  1.9020
 3896TIP3    H235884   7.530   7.758   2.201 -0.1887 -0.2369  0.3736
 3897TIP3   OH235885   1.985   4.212   7.725  0.1031 -0.1086  0.2053
 3897TIP3    H135886   2.050   4.278   7.701 -1.9867  1.0232 -2.9866
 3897TIP3    H235887   1.922   4.258   7.780 -0.4320  0.1292 -0.5865
 3898TIP3   OH235888   2.828   2.147   8.617 -0.2565 -0.1261  0.0522
 3898TIP3    H135889   2.895   2.135   8.549  1.0488  0.2687  1.2370
 3898TIP3    H235890   2.762   2.081   8.596 -0.3439  0.5795 -2.1275
 3899TIP3   OH235891   3.770   2.835   0.899  0.6496 -0.7057 -0.0795
 3899TIP3    H135892   3.703   2.864   0.837  0.4382 -0.5995  0.1923
 3899TIP3    H235893   3.720   2.795   0.970  0.8573 -0.3839  0.2539
 3900TIP3   OH235894   4.743   7.129   7.836 -0.0914 -0.0069 -0.0771
 3900TIP3    H135895   4.837   7.123   7.854 -0.1191 -0.4589 -0.0716
 3900TIP3    H235896   4.704   7.148   7.921 -0.0885 -0.7585  0.1047
 3901TIP3   OH235897   6.015   7.338   1.310 -0.5063  0.4054  0.1847
 3901TIP3    H135898   5.999   7.251   1.272 -1.5875  0.9654 -0.7034
 3901TIP3    H235899   6.090   7.325   1.368 -1.3289 -1.3730  0.9487
 3902TIP3   OH235900   2.027   2.472   7.979  0.1467  0.8447 -0.4344
 3902TIP3    H135901   2.042   2.521   7.898  1.0340 -0.2808 -0.9920
 3902TIP3    H235902   2.044   2.381   7.954  2.1404  0.6445  1.4243
 3903TIP3   OH235903   5.011   1.345   8.259  0.2693  0.1082  0.7089
 3903TIP3    H135904   4.936   1.298   8.296 -0.5422  0.1762 -0.7557
 3903TIP3    H235905   4.972   1.416   8.208  1.4247  1.4738  1.6446
 3904TIP3   OH235906   2.267   6.182   8.303  0.2667 -0.3967  0.2230
 3904TIP3    H135907   2.350   6.202   8.345 -0.0816 -1.6383  1.5677
 3904TIP3    H235908   2.201   6.217   8.363 -0.2186 -1.4748  0.3446
 3905TIP3   OH235909   4.119   2.782   8.989  0.1682 -0.2829 -0.0743
 3905TIP3    H135910   4.036   2.815   8.955  0.5662 -0.9599 -1.8292
 3905TIP3    H235911   4.156   2.854   9.039 -1.2702  0.1654  0.3955
 3906TIP3   OH235912   2.678   0.274   1.532  0.5325 -0.1718 -0.0434
 3906TIP3    H135913   2.743   0.337   1.501  0.5167  0.0408  0.3439
 3906TIP3    H235914   2.666   0.213   1.459  0.5763  0.2506 -0.4038
 3907TIP3   OH235915   1.409   0.777   0.323 -0.4422  0.2552 -0.1567
 3907TIP3    H135916   1.392   0.746   0.235 -1.2554  0.5702 -0.1232
 3907TIP3    H235917   1.498   0.812   0.320  1.3680 -3.7513  0.2972
 3908TIP3   OH235918   6.987   2.339   7.463  0.2496  0.4930 -0.3939
 3908TIP3    H135919   6.944   2.340   7.548 -0.4735 -1.0506 -0.7079
 3908TIP3    H235920   7.060   2.400   7.472 -0.5529  1.2941  0.9257
 3909TIP3   OH235921   3.493   3.649   1.903 -0.0246  0.1626 -0.3248
 3909TIP3    H135922   3.435   3.645   1.828  0.8021 -1.9724 -0.9311
 3909TIP3    H235923   3.574   3.606   1.874  1.2569  1.5405  1.0071
 3910TIP3   OH235924   2.245   2.229   8.115 -0.5333 -0.1940  0.3342
 3910TIP3    H135925   2.284   2.317   8.122 -1.2347  0.1811 -0.2887
 3910TIP3    H235926   2.231   2.217   8.021  0.6778 -1.4928  0.2960
 3911TIP3   OH235927   3.425   1.616   7.687  0.4555 -0.1337 -0.0543
 3911TIP3    H135928   3.508   1.651   7.718 -0.2249 -0.3474  2.1753
 3911TIP3    H235929   3.361   1.684   7.706 -0.1702 -0.7363  0.0192
 3912TIP3   OH235930   1.666   5.666   2.035 -0.1005 -0.0990  0.0115
 3912TIP3    H135931   1.653   5.576   2.064 -0.1228 -0.4814 -1.1578
 3912TIP3    H235932   1.754   5.689   2.066  0.1125 -0.7035 -0.1416
 3913TIP3   OH235933   0.080   5.343   6.849 -0.4056 -0.5718 -0.1738
 3913TIP3    H135934   0.168   5.333   6.813 -0.4779  1.4798 -1.0980
 3913TIP3    H235935   0.038   5.406   6.790 -2.3214 -1.1029  0.5540
 3914TIP3   OH235936   3.172   3.156   7.829 -0.0351  0.2530  0.3283
 3914TIP3    H135937   3.166   3.068   7.791 -1.5819  0.6873 -0.5377
 3914TIP3    H235938   3.265   3.176   7.830  0.4893 -1.9661  1.9453
 3915TIP3   OH235939   4.829   7.118   9.153  0.5546  0.0079 -0.3411
 3915TIP3    H135940   4.791   7.048   9.206 -2.5311  1.5694 -0.2690
 3915TIP3    H235941   4.895   7.075   9.099 -1.4056 -3.0343 -0.5269
 3916TIP3   OH235942   0.994   0.462   9.372 -0.2059  0.0280 -0.1156
 3916TIP3    H135943   1.049   0.406   9.318  1.4553 -0.2790  1.7804
 3916TIP3    H235944   0.940   0.402   9.423  2.8344 -0.2226  3.2650
 3917TIP3   OH235945   4.650   0.220   9.319  0.1341  0.2869  0.3762
 3917TIP3    H135946   4.617   0.155   9.381  0.5051  0.0045  0.2819
 3917TIP3    H235947   4.597   0.298   9.335 -0.9769 -0.3306 -0.1669
 3918TIP3   OH235948   7.467   1.822   1.221  0.3947  0.3181  0.3647
 3918TIP3    H135949   7.445   1.916   1.222  1.0828  0.4952  2.3973
 3918TIP3    H235950   7.512   1.810   1.137 -0.3356  1.6284 -0.2585
 3919TIP3   OH235951   6.175   1.417   8.045  0.6883  0.1838 -0.2325
 3919TIP3    H135952   6.121   1.343   8.018  0.0636  0.4835  0.1611
 3919TIP3    H235953   6.247   1.378   8.094 -0.6804 -0.0644  1.6743
 3920TIP3   OH235954   4.392   1.692   9.279  0.2253  0.0937  0.3085
 3920TIP3    H135955   4.480   1.727   9.264  0.9925 -2.0053 -0.4169
 3920TIP3    H235956   4.338   1.769   9.297  2.5428  1.3274  2.6184
 3921TIP3   OH235957   3.138   3.021   1.878  0.2159  0.0540 -0.1792
 3921TIP3    H135958   3.153   3.038   1.971  1.6665 -1.4687 -0.0850
 3921TIP3    H235959   3.162   3.103   1.835  1.2554  0.2236  0.6653
 3922TIP3   OH235960   0.507   1.856   0.790 -0.0443 -0.1974 -0.0531
 3922TIP3    H135961   0.538   1.946   0.783 -2.3805  0.7106  0.3508
 3922TIP3    H235962   0.412   1.864   0.799 -0.1330 -2.5950  2.1823
 3923TIP3   OH235963   6.668   2.127   0.570  0.0152  0.4098 -0.3718
 3923TIP3    H135964   6.762   2.139   0.558 -0.1742 -0.0435 -2.7231
 3923TIP3    H235965   6.649   2.042   0.530 -1.2651  0.0607  0.9007
 3924TIP3   OH235966   1.072   4.258   9.824  0.2790  0.0464 -0.1639
 3924TIP3    H135967   1.000   4.217   9.871 -1.1110  1.7177 -0.7286
 3924TIP3    H235968   1.093   4.198   9.753 -1.9953  0.4545 -1.2527
 3925TIP3   OH235969   3.347   5.459   9.195 -0.1141  0.2282 -0.0468
 3925TIP3    H135970   3.302   5.464   9.280  1.3323  0.8216  0.7093
 3925TIP3    H235971   3.427   5.509   9.207  0.4207 -0.2052 -1.5944
 3926TIP3   OH235972   7.584   6.565   1.855 -0.0453 -0.0531 -0.7111
 3926TIP3    H135973   7.502   6.558   1.807  0.3003  1.6950 -1.6586
 3926TIP3    H235974   7.649   6.522   1.799  0.0770  0.6372 -1.1229
 3927TIP3   OH235975   1.227   3.829   9.651  0.0896 -0.1701  0.6601
 3927TIP3    H135976   1.144   3.833   9.699 -0.8605 -0.8713 -0.8551
 3927TIP3    H235977   1.208   3.773   9.576  1.7656  0.2227 -0.0869
 3928TIP3   OH235978   3.007   3.333   1.444  0.0145 -0.0920  0.2110
 3928TIP3    H135979   2.984   3.266   1.508  2.7059 -0.2883  1.0691
 3928TIP3    H235980   3.071   3.291   1.387  0.9195  1.3804  0.0835
 3929TIP3   OH235981   4.039   5.093   9.438  0.3946  0.3053  0.0569
 3929TIP3    H135982   4.127   5.062   9.415 -0.2904 -0.4268 -1.7649
 3929TIP3    H235983   3.999   5.018   9.483  0.6552  0.6223  0.8432
 3930TIP3   OH235984   1.614   0.999   8.853 -0.2665  0.1987  0.1232
 3930TIP3    H135985   1.651   0.953   8.778 -0.5166  0.4130 -0.1317
 3930TIP3    H235986   1.652   0.954   8.929 -1.1616 -0.9806 -0.0975
 3931TIP3   OH235987   1.695   2.124   8.921  0.3329  0.6996  0.6357
 3931TIP3    H135988   1.733   2.073   8.993 -0.0461  0.9972  1.0486
 3931TIP3    H235989   1.606   2.089   8.912  0.7289 -0.0973 -0.4250
 3932TIP3   OH235990   4.544   6.888   1.032  0.4846  0.2502  0.1061
 3932TIP3    H135991   4.573   6.979   1.040  1.1464  0.1482 -0.9293
 3932TIP3    H235992   4.607   6.838   1.082  0.0041  0.3726  0.8446
 3933TIP3   OH235993   0.196   6.001   0.117  0.0626  0.5475 -0.2670
 3933TIP3    H135994   0.146   5.928   0.080 -0.2883  0.8907 -0.4745
 3933TIP3    H235995   0.277   6.003   0.066  1.1838 -1.2512  1.3451
 3934TIP3   OH235996   4.099   2.182   0.141  0.2592 -0.6424 -0.4944
 3934TIP3    H135997   4.016   2.205   0.183  0.5021  0.1024 -0.4107
 3934TIP3    H235998   4.147   2.133   0.207  0.4636  0.1550 -0.0351
 3935TIP3   OH235999   6.625   4.352   8.018  0.2963 -0.5037 -0.9260
 3935TIP3    H136000   6.537   4.328   8.046  0.4072  0.4810  0.3656
 3935TIP3    H236001   6.661   4.403   8.091  1.3345  0.5155 -2.0999
 3936TIP3   OH236002   5.539   5.440   9.726  0.1489 -0.3161 -0.2548
 3936TIP3    H136003   5.611   5.458   9.787  0.7800 -0.1297 -1.0438
 3936TIP3    H236004   5.510   5.526   9.696  0.8346 -0.4480 -1.3486
 3937TIP3   OH236005   5.118   6.677   8.955  0.3211  0.4266 -0.5459
 3937TIP3    H136006   5.100   6.637   8.870  0.5753 -0.0752 -0.3696
 3937TIP3    H236007   5.182   6.618   8.996  0.2044  0.6674 -0.0123
 3938TIP3   OH236008   0.914   6.922   8.325 -0.4315  0.2165 -0.0375
 3938TIP3    H136009   0.996   6.875   8.308 -0.4031 -0.3872  1.6532
 3938TIP3    H236010   0.858   6.859   8.370 -0.5184  1.6341  1.9841
 3939TIP3   OH236011   0.517   2.850   0.756 -0.7690 -0.2848  0.0574
 3939TIP3    H136012   0.508   2.757   0.734 -0.6894 -0.2436 -0.1521
 3939TIP3    H236013   0.553   2.850   0.845 -2.4448 -0.4501  0.7599
 3940TIP3   OH236014   3.244   5.143   8.478 -0.4125 -0.3613  0.6562
 3940TIP3    H136015   3.244   5.232   8.513 -0.8411  0.6172 -1.6498
 3940TIP3    H236016   3.332   5.131   8.442 -0.6436 -0.5221  0.1393
 3941TIP3   OH236017   6.764   1.405   0.824  0.4805  0.2132 -0.4767
 3941TIP3    H136018   6.805   1.328   0.864  0.3303  0.4825  0.1996
 3941TIP3    H236019   6.696   1.431   0.886 -0.6482 -0.1525 -1.5126
 3942TIP3   OH236020   7.390   0.066   0.434 -0.0929 -0.5212 -0.0850
 3942TIP3    H136021   7.379  -0.018   0.390  0.5258 -0.0143 -1.2484
 3942TIP3    H236022   7.320   0.121   0.399  1.0873  0.2311 -1.3418
 3943TIP3   OH236023   0.383   2.228   1.055  0.0497 -0.1823 -0.4273
 3943TIP3    H136024   0.307   2.212   1.112  0.0100 -1.9774 -0.9462
 3943TIP3    H236025   0.459   2.215   1.111 -0.0127 -0.2579 -0.3602
 3944TIP3   OH236026   5.327   7.430   0.260  0.1799 -0.1282  0.0075
 3944TIP3    H136027   5.311   7.365   0.192 -1.9731  0.2976  0.0193
 3944TIP3    H236028   5.422   7.430   0.272  1.0869  1.5957 -4.8363
 3945TIP3   OH236029   6.216   6.855   8.440 -0.0393 -0.1922 -0.0571
 3945TIP3    H136030   6.254   6.937   8.406 -0.6654  0.1309  0.0091
 3945TIP3    H236031   6.291   6.797   8.451  0.4018  0.3369 -0.2144
 3946TIP3   OH236032   2.207   6.542   2.054 -0.0124 -0.1298 -0.0295
 3946TIP3    H136033   2.297   6.571   2.043 -0.6618  1.4478 -1.5532
 3946TIP3    H236034   2.212   6.446   2.050  1.7016 -0.1320  1.1172
 3947TIP3   OH236035   5.696   7.477   0.710 -0.2145 -0.1833  0.4202
 3947TIP3    H136036   5.767   7.416   0.731  0.7122  0.4642 -0.7137
 3947TIP3    H236037   5.725   7.560   0.748 -0.3394  0.0905 -0.0729
 3948TIP3   OH236038   4.353   4.122   0.349 -0.2344 -0.4465 -0.7120
 3948TIP3    H136039   4.355   4.142   0.443 -2.1583 -1.0959 -0.4837
 3948TIP3    H236040   4.328   4.204   0.307 -3.4880 -1.0313 -0.2062
 3949TIP3   OH236041   1.768   4.183   0.623 -0.2753 -0.2839  0.1014
 3949TIP3    H136042   1.788   4.265   0.578  0.3176  0.9071  2.3924
 3949TIP3    H236043   1.849   4.131   0.615 -0.2510 -0.1805 -0.3619
 3950TIP3   OH236044   1.123   2.575   0.413  0.0825 -0.5068  0.0782
 3950TIP3    H136045   1.107   2.668   0.396  2.4326  0.0976  0.7588
 3950TIP3    H236046   1.219   2.568   0.420 -0.1309 -2.5387  2.4934
 3951TIP3   OH236047   1.445   0.386   9.118  0.2023  0.1284  0.1569
 3951TIP3    H136048   1.460   0.476   9.149 -2.5918  0.5463  0.4937
 3951TIP3    H236049   1.527   0.341   9.138  1.3676  2.3534  0.8246
 3952TIP3   OH236050   3.192   1.705   9.211  0.0234 -0.2077  0.2461
 3952TIP3    H136051   3.191   1.766   9.285  0.4139 -0.1822  0.2326
 3952TIP3    H236052   3.270   1.652   9.226  1.0148  0.8444 -1.0138
 3953TIP3   OH236053   1.396   7.402   0.242  0.2515 -0.0746 -0.5003
 3953TIP3    H136054   1.356   7.315   0.234  0.9274 -0.2690 -2.2822
 3953TIP3    H236055   1.368   7.449   0.164  0.9949  0.8455 -0.2299
 3954TIP3   OH236056   5.153   2.928   9.775 -0.0275  0.0675 -0.1206
 3954TIP3    H136057   5.202   2.884   9.845  0.8581  0.3714 -0.5248
 3954TIP3    H236058   5.155   3.020   9.798 -0.3272  0.0941 -0.1972
 3955TIP3   OH236059   0.440   2.016   7.459 -0.1366 -0.4122  0.3612
 3955TIP3    H136060   0.384   2.039   7.385  2.1196  0.6009 -1.1615
 3955TIP3    H236061   0.405   1.934   7.492 -3.4845  0.9738  0.6021
 3956TIP3   OH236062   0.438   4.018   2.242  0.1279  0.0099 -0.4087
 3956TIP3    H136063   0.358   3.971   2.217 -0.0816  1.3691 -2.5298
 3956TIP3    H236064   0.436   4.019   2.338 -1.1125 -2.0872 -0.3384
 3957TIP3   OH236065   4.677   1.526   2.580  0.0496  0.2961  0.3503
 3957TIP3    H136066   4.616   1.539   2.507 -0.4314 -1.2382  0.4376
 3957TIP3    H236067   4.681   1.611   2.623 -1.4613  0.6351 -0.1016
 3958TIP3   OH236068   6.203   5.998   8.008 -0.5773 -0.5771  0.1360
 3958TIP3    H136069   6.253   6.041   7.939  0.7860  2.0042  2.5060
 3958TIP3    H236070   6.128   6.056   8.023 -2.3786 -2.4977 -0.8627
 3959TIP3   OH236071   3.995   0.829   0.024 -0.3073  0.0148  0.1170
 3959TIP3    H136072   4.025   0.776   0.098 -1.4041  0.7467  1.1029
 3959TIP3    H236073   3.983   0.917   0.060 -0.2347  0.5417 -1.0897
 3960TIP3   OH236074   0.598   3.383   2.807 -0.2133 -0.6344 -0.1169
 3960TIP3    H136075   0.565   3.473   2.809 -0.3091 -0.6747  1.7975
 3960TIP3    H236076   0.601   3.356   2.899  1.4936 -1.9908 -0.5156
 3961TIP3   OH236077   5.349   7.068   0.766 -0.1376  0.1014  0.6015
 3961TIP3    H136078   5.304   6.986   0.786  1.4096 -1.5032 -1.9028
 3961TIP3    H236079   5.415   7.076   0.836 -0.5033 -0.6438  1.0436
 3962TIP3   OH236080   0.293   0.248   9.905  0.3773 -0.5473  0.2689
 3962TIP3    H136081   0.354   0.283   9.969  0.6423  0.3140 -0.4203
 3962TIP3    H236082   0.220   0.214   9.957  0.5884  0.1177  1.0273
 3963TIP3   OH236083   6.642   5.448   8.228  0.6651  0.5559 -0.3811
 3963TIP3    H136084   6.716   5.474   8.282  2.0037  1.3310 -2.4746
 3963TIP3    H236085   6.632   5.354   8.245  0.9264  0.8040  1.2890
 3964TIP3   OH236086   5.213   1.138   9.177 -0.6867 -0.1060  0.4504
 3964TIP3    H136087   5.243   1.205   9.116 -0.7770 -0.3028  0.1888
 3964TIP3    H236088   5.266   1.152   9.256  0.1315 -0.4836 -0.0177
 3965TIP3   OH236089   0.773   6.374   1.200 -0.2711  0.4198  0.1056
 3965TIP3    H136090   0.846   6.434   1.189 -0.4659  0.7564  0.5930
 3965TIP3    H236091   0.728   6.374   1.116 -0.8179  1.6859  0.3801
 3966TIP3   OH236092   0.226   0.320   9.625 -0.1055  0.5939 -0.3440
 3966TIP3    H136093   0.198   0.410   9.643  0.7194  0.5909  1.1801
 3966TIP3    H236094   0.236   0.281   9.712  0.0745 -0.8117 -0.9669
 3967TIP3   OH236095   1.949   1.469   1.352 -0.3677  0.4388 -0.3059
 3967TIP3    H136096   1.878   1.503   1.298  0.6525 -0.8151 -2.5689
 3967TIP3    H236097   1.956   1.377   1.328  2.6420  0.7268 -0.9560
 3968TIP3   OH236098   6.819   6.403   2.769  0.3551 -0.9917 -0.1620
 3968TIP3    H136099   6.776   6.411   2.855  0.9372 -0.5026  0.0888
 3968TIP3    H236100   6.879   6.329   2.779  1.3728 -0.1387  0.2775
 3969TIP3   OH236101   3.125   3.306   9.290 -0.7478  0.2559 -0.0640
 3969TIP3    H136102   3.067   3.232   9.272 -1.1964  0.1391  1.7099
 3969TIP3    H236103   3.105   3.370   9.221 -0.8614 -0.9541 -1.1998
 3970TIP3   OH236104   2.879   7.426   9.523 -0.2979  0.4273  0.6692
 3970TIP3    H136105   2.821   7.443   9.448 -1.4108 -0.4036  1.3100
 3970TIP3    H236106   2.821   7.392   9.591  0.8946 -0.0633  1.4768
 3971TIP3   OH236107   0.312   4.646   9.393 -0.2485  0.2103 -0.3702
 3971TIP3    H136108   0.324   4.551   9.395  1.4689  0.3458 -1.6484
 3971TIP3    H236109   0.240   4.660   9.332 -2.3763 -0.3202  1.8337
 3972TIP3   OH236110   2.026   7.043   1.785  0.5233 -0.2525  0.2968
 3972TIP3    H136111   1.983   7.034   1.701 -0.8720 -0.0292  0.9591
 3972TIP3    H236112   2.117   7.065   1.764  0.4738 -1.3262 -1.1378
 3973TIP3   OH236113   4.851   2.228   8.465  0.2135 -0.2433 -0.0993
 3973TIP3    H136114   4.768   2.271   8.484  1.1742  0.4874  2.9888
 3973TIP3    H236115   4.906   2.297   8.428 -0.7204 -0.9739 -3.2289
 3974TIP3   OH236116   7.012   3.026   2.121  0.3532 -0.0214  0.3448
 3974TIP3    H136117   7.026   3.055   2.031 -0.5978 -0.8096 -0.0760
 3974TIP3    H236118   7.039   3.100   2.175  0.9949  0.4334 -0.5826
 3975TIP3   OH236119   2.174   3.641   0.469 -0.1367  0.0127  0.2447
 3975TIP3    H136120   2.183   3.581   0.396 -0.1595 -0.1365  0.3647
 3975TIP3    H236121   2.248   3.701   0.460 -0.3080  0.1752 -0.0690
 3976TIP3   OH236122   5.487   6.996   9.383  0.6100  0.2458  0.9087
 3976TIP3    H136123   5.502   6.942   9.306 -1.7016 -0.2650  0.7460
 3976TIP3    H236124   5.486   7.086   9.349  2.8518  0.3268  0.9251
 3977TIP3   OH236125   6.971   5.991   0.479 -0.3084  0.3262  0.1040
 3977TIP3    H136126   7.025   6.068   0.461  0.2439  1.1503  4.2230
 3977TIP3    H236127   6.887   6.027   0.507 -0.3366 -0.5558  1.2165
 3978TIP3   OH236128   1.291   3.226   2.016 -0.0733  0.3347  0.0760
 3978TIP3    H136129   1.258   3.158   1.956 -2.6206  1.5335 -0.0013
 3978TIP3    H236130   1.296   3.305   1.962 -0.7372  1.0497  1.0343
 3979TIP3   OH236131   4.879   1.935   2.366 -0.2940 -0.4161  0.1654
 3979TIP3    H136132   4.887   2.029   2.380 -0.6879 -0.3492 -0.0611
 3979TIP3    H236133   4.966   1.908   2.334 -0.2251 -0.1081  0.0961
 3980TIP3   OH236134   1.652   2.951   1.820  0.3798 -0.5702 -0.2984
 3980TIP3    H136135   1.562   2.981   1.808 -0.0831 -1.1023  1.4574
 3980TIP3    H236136   1.699   2.982   1.743 -0.8627  1.4554 -0.3065
 3981TIP3   OH236137   1.612   4.333   8.895 -0.0449  0.5311  0.3396
 3981TIP3    H136138   1.619   4.386   8.974  0.2162  0.7901  0.1463
 3981TIP3    H236139   1.600   4.244   8.927  1.5705  0.4057  0.6974
 3982TIP3   OH236140   4.671   3.976   8.609  0.2109 -0.3767  0.0816
 3982TIP3    H136141   4.621   3.956   8.688 -0.3496  0.0747 -0.1525
 3982TIP3    H236142   4.736   4.040   8.637 -1.3913  1.4854 -0.2399
 3983TIP3   OH236143   2.781   5.347   0.867 -0.5211 -0.3090 -0.0914
 3983TIP3    H136144   2.840   5.277   0.894  0.0376  0.3887  0.5385
 3983TIP3    H236145   2.739   5.376   0.948 -3.0997 -1.9598 -0.7283
 3984TIP3   OH236146   1.189   6.522   8.436  0.1974 -0.4939  0.3657
 3984TIP3    H136147   1.245   6.549   8.509  1.6733 -1.5942 -0.3183
 3984TIP3    H236148   1.104   6.506   8.477  0.4102  0.9338  1.4766
 3985TIP3   OH236149   4.788   0.447   1.530  0.6175 -0.0968  0.1121
 3985TIP3    H136150   4.714   0.483   1.482  0.2141 -2.4157 -1.1726
 3985TIP3    H236151   4.768   0.463   1.622 -1.1265 -0.0132 -0.2512
 3986TIP3   OH236152   3.241   5.994   0.653  0.8775 -0.2066  0.7096
 3986TIP3    H136153   3.150   6.022   0.647  1.4802  1.7568 -0.5581
 3986TIP3    H236154   3.278   6.046   0.724  1.1610 -0.5209  0.7952
 3987TIP3   OH236155   1.461   7.563   7.928 -0.2673 -0.1943  0.0991
 3987TIP3    H136156   1.430   7.639   7.977  0.3956  0.0573  0.1340
 3987TIP3    H236157   1.459   7.591   7.836  1.3383  0.3876  0.2041
 3988TIP3   OH236158   0.934   2.562   9.536 -0.2892  0.0489 -0.0004
 3988TIP3    H136159   0.954   2.638   9.591 -0.3661  0.7674 -0.9526
 3988TIP3    H236160   1.007   2.555   9.476 -0.5740 -0.2599 -0.3163
 3989TIP3   OH236161   5.945   6.441   8.081  0.0955  0.2851  0.8011
 3989TIP3    H136162   6.019   6.488   8.043  1.8187  1.3423  4.9768
 3989TIP3    H236163   5.869   6.496   8.060  0.8285  0.6557 -1.1330
 3990TIP3   OH236164   1.431   0.141   8.720  0.5162 -0.2738 -0.5027
 3990TIP3    H136165   1.367   0.143   8.791  0.5881 -0.1165 -0.4393
 3990TIP3    H236166   1.499   0.080   8.750  1.1247  0.6604  0.0836
 3991TIP3   OH236167   2.412   6.261   0.866 -0.3913  0.3664  0.2460
 3991TIP3    H136168   2.360   6.236   0.789 -0.0805 -0.0483  0.1746
 3991TIP3    H236169   2.406   6.357   0.867  0.0201  0.4139 -0.5888
 3992TIP3   OH236170   3.451   1.259   1.954  0.0312 -0.1302  0.2518
 3992TIP3    H136171   3.443   1.320   1.881 -0.4203  1.6268  1.7167
 3992TIP3    H236172   3.381   1.284   2.014  0.0567 -1.8736  1.0789
 3993TIP3   OH236173   7.572   5.807   0.620  0.2592 -0.8281  0.4150
 3993TIP3    H136174   7.644   5.840   0.673  1.5894 -1.6672 -0.7878
 3993TIP3    H236175   7.517   5.884   0.603  0.4816 -0.3041  1.9006
 3994TIP3   OH236176   6.715   2.132   8.791 -0.1071 -0.1184  0.3140
 3994TIP3    H136177   6.697   2.111   8.882  0.3230 -0.0770  0.4134
 3994TIP3    H236178   6.809   2.154   8.790 -0.3633  1.0226  0.0767
 3995TIP3   OH236179   0.646   3.554   1.293  0.2002  0.1145  0.0347
 3995TIP3    H136180   0.651   3.534   1.200  0.9462  1.1562 -0.1647
 3995TIP3    H236181   0.686   3.479   1.336 -2.7519 -1.7901 -0.2525
 3996TIP3   OH236182   1.828   3.052   1.567  0.1297 -0.3682 -0.0420
 3996TIP3    H136183   1.812   2.959   1.551  2.4688 -0.9529  0.5895
 3996TIP3    H236184   1.900   3.053   1.631  0.7819  1.8684 -0.7202
 3997TIP3   OH236185   7.020   5.043   0.065  0.2290 -0.1166  0.2086
 3997TIP3    H136186   7.110   5.049   0.034  0.9674 -2.2216  1.7257
 3997TIP3    H236187   7.002   4.949   0.066 -1.6173  0.2104  0.9642
 3998TIP3   OH236188   1.334   0.656   0.083 -0.5105 -0.1713  0.0798
 3998TIP3    H136189   1.363   0.569   0.057 -0.2405  0.3200 -1.3632
 3998TIP3    H236190   1.255   0.671   0.032  0.0958  0.8771 -0.5824
 3999TIP3   OH236191   1.633   6.824   2.134  0.4037 -0.0116 -0.5913
 3999TIP3    H136192   1.687   6.880   2.078  0.4160  2.2175  1.4864
 3999TIP3    H236193   1.554   6.875   2.150  0.1377 -0.8331  0.8937
 4000TIP3   OH236194   2.878   2.753   7.287  0.0096 -0.0129 -0.1861
 4000TIP3    H136195   2.885   2.663   7.255 -0.3006 -0.5279  1.1138
 4000TIP3    H236196   2.805   2.791   7.239 -0.9833 -1.0310  0.4754
 4001TIP3   OH236197   6.762   2.981   8.974 -0.3950  0.2555  0.0687
 4001TIP3    H136198   6.738   2.900   8.928  0.1553 -0.8717  1.7056
 4001TIP3    H236199   6.851   2.966   9.005 -1.0202  0.6680  2.1797
 4002TIP3   OH236200   3.124   0.198   9.918  0.4742 -0.2023  0.0181
 4002TIP3    H136201   3.156   0.288   9.925  1.2302 -0.5751  2.2766
 4002TIP3    H236202   3.090   0.178  10.006 -0.8716 -1.7063 -0.7850
 4003TIP3   OH236203   6.021   6.804   1.200  0.1022 -0.2634 -0.1532
 4003TIP3    H136204   5.937   6.848   1.204 -0.0148 -0.5598  1.0124
 4003TIP3    H236205   6.077   6.863   1.151  0.1597  1.5643  1.9527
 4004TIP3   OH236206   1.797   2.788   9.657 -0.2807  0.1855 -0.6515
 4004TIP3    H136207   1.842   2.847   9.717  0.0061  0.7666 -1.4124
 4004TIP3    H236208   1.726   2.841   9.620  0.1470  0.1682 -1.5463
 4005TIP3   OH236209   0.565   5.377   0.280  0.1858 -0.7242 -0.0459
 4005TIP3    H136210   0.494   5.315   0.266  2.1149 -3.1029  0.0315
 4005TIP3    H236211   0.563   5.397   0.373 -0.9282  0.0156 -0.2083
 4006TIP3   OH236212   0.459   0.897   1.233 -0.3232 -0.5732 -0.5692
 4006TIP3    H136213   0.408   0.845   1.170 -1.8345  0.7738 -0.5342
 4006TIP3    H236214   0.415   0.983   1.234  2.0913  0.7451 -0.6662
 4007TIP3   OH236215   0.258   5.158   9.682 -0.0406  0.0985  0.1065
 4007TIP3    H136216   0.309   5.081   9.706  0.5626  0.8953  1.4646
 4007TIP3    H236217   0.323   5.224   9.659 -0.5318  0.4426 -0.3137
 4008TIP3   OH236218   5.365   4.781   7.776  0.7526  0.1056 -0.2263
 4008TIP3    H136219   5.308   4.706   7.761 -1.4528  1.1508  2.0744
 4008TIP3    H236220   5.352   4.838   7.700  0.2435 -0.5897 -0.6633
 4009TIP3   OH236221   0.096   3.337   8.601  0.4727 -0.4409 -0.5551
 4009TIP3    H136222   0.170   3.277   8.615  1.9629  1.9107  3.0522
 4009TIP3    H236223   0.052   3.342   8.686 -1.3530  1.3745 -1.5127
 4010TIP3   OH236224   2.763   3.558   1.684  0.1048 -0.4693  0.0745
 4010TIP3    H136225   2.700   3.519   1.745 -1.0174  0.0444 -0.7259
 4010TIP3    H236226   2.849   3.534   1.720 -0.5231 -2.5563  0.3334
 4011TIP3   OH236227   0.798   3.495   8.697  0.3788 -0.0137 -0.2052
 4011TIP3    H136228   0.749   3.566   8.737 -0.8339 -0.6100 -0.5920
 4011TIP3    H236229   0.811   3.523   8.607 -0.6722 -0.5466 -0.5356
 4012TIP3   OH236230   1.720   2.400   1.972 -0.2644 -0.1038 -0.1651
 4012TIP3    H136231   1.788   2.430   1.912  1.0873 -0.7686  0.9577
 4012TIP3    H236232   1.738   2.307   1.984 -0.4707  0.0183  1.2732
 4013TIP3   OH236233   6.263   2.873   8.757 -0.2548 -0.1259  0.2568
 4013TIP3    H136234   6.270   2.964   8.729 -0.5312 -0.0789  0.3328
 4013TIP3    H236235   6.195   2.874   8.825 -0.9815 -0.5447 -0.4434
 4014TIP3   OH236236   2.422   1.139   0.937 -0.3656  0.5673  0.4530
 4014TIP3    H136237   2.392   1.208   0.997 -0.9231 -0.2893  1.1851
 4014TIP3    H236238   2.350   1.077   0.933  0.1536 -0.0159 -0.1444
 4015TIP3   OH236239   2.749   5.522   8.376 -0.0356 -0.1073  0.4123
 4015TIP3    H136240   2.739   5.429   8.358 -1.9048  0.4289 -1.9931
 4015TIP3    H236241   2.820   5.551   8.318 -0.4341  0.1968  0.0679
 4016TIP3   OH236242   3.360   0.003   2.753 -0.0586  0.0772  0.2881
 4016TIP3    H136243   3.430  -0.057   2.777 -0.6707 -1.3266 -1.2051
 4016TIP3    H236244   3.405   0.078   2.713  0.6439 -0.1836  0.5754
 4017TIP3   OH236245   3.707   6.458   1.597  0.5740 -0.3127 -0.0491
 4017TIP3    H136246   3.728   6.544   1.634  2.1944 -0.0676 -1.4267
 4017TIP3    H236247   3.709   6.398   1.672  0.8288  0.6144  0.7044
 4018TIP3   OH236248   2.551   6.946   1.871  0.0294  0.0664 -0.0810
 4018TIP3    H136249   2.534   6.902   1.788  0.4661  0.5532 -0.4324
 4018TIP3    H236250   2.528   6.881   1.938  0.3154 -0.5606 -0.5862
 4019TIP3   OH236251   7.595   5.459   7.693 -0.0127  0.0630 -0.1207
 4019TIP3    H136252   7.538   5.500   7.759  0.8419 -0.6601  1.1182
 4019TIP3    H236253   7.611   5.371   7.727  2.9662  0.6895  0.3305
 4020TIP3   OH236254   3.891   4.409   9.223  0.2410  0.3535  0.6173
 4020TIP3    H136255   3.950   4.425   9.150  0.6583 -0.7147  0.6878
 4020TIP3    H236256   3.838   4.334   9.195 -0.8815  1.1115  0.6773
 4021TIP3   OH236257   3.828   4.937   7.408  0.2027 -0.2538 -0.0314
 4021TIP3    H136258   3.806   4.928   7.500 -1.1644  0.1680 -0.2919
 4021TIP3    H236259   3.877   4.858   7.386  0.2254 -0.5214  0.9642
 4022TIP3   OH236260   0.407   2.785   8.295 -0.3024 -0.1080  0.2022
 4022TIP3    H136261   0.397   2.873   8.257 -0.3404 -1.0788 -2.2542
 4022TIP3    H236262   0.496   2.759   8.270 -0.3724 -0.8622  0.7140
 4023TIP3   OH236263   3.077   5.500   9.787 -0.3102 -0.0116  0.3179
 4023TIP3    H136264   3.139   5.439   9.747  1.0047  1.1634  0.4855
 4023TIP3    H236265   3.111   5.587   9.765 -2.3219  0.6913 -0.2130
 4024TIP3   OH236266   0.607   1.928   1.802  0.1429  0.1668  0.0066
 4024TIP3    H136267   0.665   1.860   1.770  0.3885  0.4481 -0.1463
 4024TIP3    H236268   0.602   1.992   1.731 -0.7708 -0.1111 -0.1902
 4025TIP3   OH236269   0.247   1.191   6.982 -0.3052 -0.3410  0.1851
 4025TIP3    H136270   0.211   1.191   6.893  0.1228  0.3366  0.0086
 4025TIP3    H236271   0.341   1.200   6.971 -0.2861  0.2305  0.7133
 4026TIP3   OH236272   7.129   6.763   7.487  0.1846 -0.3723  0.2359
 4026TIP3    H136273   7.205   6.713   7.516  0.1181 -1.3220 -1.1527
 4026TIP3    H236274   7.167   6.842   7.448  0.6072 -1.5203 -1.8102
 4027TIP3   OH236275   3.285   2.646   2.089 -0.0119  0.0655  0.7673
 4027TIP3    H136276   3.190   2.658   2.097  0.0220 -0.4324  2.0974
 4027TIP3    H236277   3.302   2.562   2.132  0.9935 -0.0140  0.2314
 4028TIP3   OH236278   6.278   2.719   7.258  0.6765  0.0859  0.2379
 4028TIP3    H136279   6.270   2.693   7.166  1.1172  0.2442  0.1535
 4028TIP3    H236280   6.304   2.811   7.254  3.2096 -0.5506  0.4761
 4029TIP3   OH236281   0.392   6.369   0.127  0.0220  0.0772 -0.3435
 4029TIP3    H136282   0.430   6.288   0.092 -0.4713 -0.1741 -0.2998
 4029TIP3    H236283   0.344   6.342   0.205  1.2663  0.6635  0.6619
 4030TIP3   OH236284   6.994   0.477   8.760 -0.0460 -0.7169 -0.2767
 4030TIP3    H136285   7.048   0.556   8.771 -0.5185 -0.4384  0.0683
 4030TIP3    H236286   6.941   0.473   8.839  1.2599 -2.4085  0.5931
 4031TIP3   OH236287   6.247   1.632   0.037 -0.2027 -0.0587  0.3552
 4031TIP3    H136288   6.302   1.711   0.043  1.3175 -0.9660 -0.7942
 4031TIP3    H236289   6.187   1.639   0.110  1.6482  0.8763  1.8767
 4032TIP3   OH236290   1.289   6.379   8.243 -0.5269  0.0955  0.2380
 4032TIP3    H136291   1.246   6.424   8.316  0.0757 -0.0982  0.7227
 4032TIP3    H236292   1.290   6.287   8.269  0.5170  0.1423  0.4219
 4033TIP3   OH236293   2.712   4.701   7.069  0.4129 -0.3288 -0.2546
 4033TIP3    H136294   2.758   4.783   7.054 -0.9909  1.0534  2.2835
 4033TIP3    H236295   2.771   4.650   7.124  0.3138  0.0053  0.1640
 4034TIP3   OH236296   3.314   7.547   9.024 -0.5500 -0.4842 -0.5570
 4034TIP3    H136297   3.339   7.461   9.059  0.9124 -0.3615 -1.1963
 4034TIP3    H236298   3.249   7.580   9.085 -2.3472 -2.7032 -1.1308
 4035TIP3   OH236299   1.553   1.161   7.340 -0.0089  0.2012  0.1026
 4035TIP3    H136300   1.549   1.251   7.307 -0.0620  0.2708  0.2982
 4035TIP3    H236301   1.507   1.109   7.275 -0.5270  0.4046  0.3005
 4036TIP3   OH236302   4.001   0.687   8.369  0.4070  0.1131  0.5159
 4036TIP3    H136303   3.951   0.680   8.451 -0.2189  1.8792  0.3252
 4036TIP3    H236304   4.041   0.774   8.373  0.2278  0.3014 -1.1262
 4037TIP3   OH236305   6.089   2.839   8.458  0.1067  0.2904  1.3067
 4037TIP3    H136306   6.086   2.929   8.493  0.9316  1.1352 -0.6807
 4037TIP3    H236307   6.085   2.850   8.363 -0.4012 -1.8341  1.0492
 4038TIP3   OH236308   4.879   7.182   1.990 -0.0112 -0.5775  0.3288
 4038TIP3    H136309   4.878   7.184   2.086 -0.2057  3.1552  0.4022
 4038TIP3    H236310   4.790   7.204   1.964  0.5666  0.8664 -0.5869
 4039TIP3   OH236311   0.581   7.602   0.483  0.2366 -0.0146  0.0770
 4039TIP3    H136312   0.576   7.582   0.576  0.2543  1.6767  0.4661
 4039TIP3    H236313   0.674   7.590   0.461  0.9693  2.9350  1.1365
 4040TIP3   OH236314   1.115   1.875   1.816 -0.1448  0.6667  0.0476
 4040TIP3    H136315   1.096   1.824   1.737  2.2293 -0.6878  0.2604
 4040TIP3    H236316   1.062   1.833   1.884 -0.3321  0.2600 -0.3366
 4041TIP3   OH236317   3.458   7.143   0.194 -0.1620 -0.0851 -0.0808
 4041TIP3    H136318   3.420   7.218   0.239  0.5737 -0.5418  1.3441
 4041TIP3    H236319   3.456   7.168   0.101 -2.1276  0.6830  0.1107
 4042TIP3   OH236320   4.665   6.240   9.276  0.4448 -0.0436 -0.6609
 4042TIP3    H136321   4.594   6.176   9.284  1.5838 -1.1497  1.4334
 4042TIP3    H236322   4.623   6.325   9.290 -0.5731 -0.6167 -0.1249
 4043TIP3   OH236323   5.073   4.034   8.386 -0.3140 -0.1884  0.5360
 4043TIP3    H136324   5.113   3.976   8.452 -0.3586 -2.3640 -1.2097
 4043TIP3    H236325   5.147   4.070   8.338 -0.2099  2.4237  2.4287
 4044TIP3   OH236326   7.541   5.542   0.905 -0.3373 -0.2780 -0.1169
 4044TIP3    H136327   7.568   5.502   0.823  1.4027 -0.5510  0.5634
 4044TIP3    H236328   7.621   5.577   0.944 -1.2437  0.6071  1.0773
 4045TIP3   OH236329   4.725   4.270   7.611  0.3597 -0.3715 -1.1098
 4045TIP3    H136330   4.801   4.216   7.632  0.4484  0.7181  1.9534
 4045TIP3    H236331   4.650   4.214   7.630  0.4562  0.2495  1.6028
 4046TIP3   OH236332   6.779   1.082   8.506  0.3467 -0.1232 -0.8379
 4046TIP3    H136333   6.819   1.071   8.419  2.2260 -0.0885 -0.0295
 4046TIP3    H236334   6.834   1.147   8.549 -0.2594 -0.5106  0.5520
 4047TIP3   OH236335   6.947   4.279   7.762 -0.7200 -0.4069  0.0605
 4047TIP3    H136336   6.858   4.312   7.749 -1.1835 -2.0882 -1.4817
 4047TIP3    H236337   6.945   4.191   7.726  1.8479 -0.1380 -0.9400
 4048TIP3   OH236338   2.756   7.348   0.445  0.4649  0.6847  0.7017
 4048TIP3    H136339   2.712   7.389   0.519 -0.2989  2.4436 -0.6707
 4048TIP3    H236340   2.827   7.408   0.422 -0.5860  1.2753 -1.2517
 4049TIP3   OH236341   1.687   0.280   7.606  0.3255 -0.1364 -0.4398
 4049TIP3    H136342   1.782   0.272   7.601  0.3492 -0.6280  0.5469
 4049TIP3    H236343   1.655   0.230   7.531  0.7227 -4.0476  1.7555
 4050TIP3   OH236344   4.769   7.551   7.447  0.5036  0.1017  0.2558
 4050TIP3    H136345   4.850   7.503   7.433  0.2968  0.1069 -1.0724
 4050TIP3    H236346   4.700   7.494   7.413 -0.0395  0.1735  1.2000
 4051TIP3   OH236347   4.053   6.963   1.533 -0.1452  0.5414 -0.3008
 4051TIP3    H136348   4.085   7.051   1.553  0.7812  0.2245 -0.3485
 4051TIP3    H236349   4.132   6.911   1.521 -0.6801 -0.4370  0.2905
 4052TIP3   OH236350   7.096   4.432   8.890 -0.1897 -0.6028  0.8930
 4052TIP3    H136351   7.084   4.436   8.985  0.9054 -1.0081  1.0666
 4052TIP3    H236352   7.190   4.439   8.878 -0.3988  0.4630 -0.2418
 4053TIP3   OH236353   4.215   3.590   8.287  0.2360  0.1582  0.1117
 4053TIP3    H136354   4.241   3.499   8.300 -0.3413  0.0021  0.2182
 4053TIP3    H236355   4.143   3.586   8.224 -1.8399  0.2343  2.3575
 4054TIP3   OH236356   1.228   4.340   0.440  0.5182 -0.5928  0.1089
 4054TIP3    H136357   1.247   4.381   0.525 -0.2053  3.4822 -1.4696
 4054TIP3    H236358   1.137   4.312   0.447  0.5969 -0.7099  0.7913
 4055TIP3   OH236359   4.426   0.340   7.319 -0.1600 -0.2932  0.1544
 4055TIP3    H136360   4.357   0.300   7.267 -0.4791  0.1010  0.2715
 4055TIP3    H236361   4.497   0.357   7.257  0.4550 -2.1069  0.3071
 4056TIP3   OH236362   2.100   4.427   1.235 -0.1021  0.6218 -0.4214
 4056TIP3    H136363   2.137   4.387   1.156 -1.4317  0.7120 -1.1180
 4056TIP3    H236364   2.083   4.518   1.210 -0.6254  0.6251 -0.0657
 4057TIP3   OH236365   7.427   6.847   7.283  0.0680  0.0298  0.0937
 4057TIP3    H136366   7.410   6.789   7.210 -0.3519  1.5291 -1.0485
 4057TIP3    H236367   7.506   6.895   7.258  0.5019 -0.1380  1.0775
 4058TIP3   OH236368   7.077   2.182   9.304  0.1635 -0.0423 -0.7175
 4058TIP3    H136369   7.092   2.221   9.390  0.6555 -2.3039  0.2957
 4058TIP3    H236370   6.983   2.165   9.301 -0.0245  0.9700 -1.0915
 4059TIP3   OH236371   4.409   6.010   7.163  0.3416  0.4130 -0.3825
 4059TIP3    H136372   4.430   6.085   7.217  0.1933  1.7888 -2.1400
 4059TIP3    H236373   4.313   6.010   7.158  0.3316 -0.0006 -0.2551
 4060TIP3   OH236374   7.497   2.570   0.215 -0.4682  0.3191 -0.2699
 4060TIP3    H136375   7.450   2.583   0.133 -0.4147  0.3941 -0.2879
 4060TIP3    H236376   7.558   2.499   0.197 -1.2575 -0.4625  0.0282
 4061TIP3   OH236377   3.955   5.769   8.987  1.2049 -0.6373 -0.3772
 4061TIP3    H136378   3.978   5.846   8.935  1.8687  0.5102  1.5520
 4061TIP3    H236379   4.025   5.706   8.968  0.9716 -0.5886 -1.5077
 4062TIP3   OH236380   3.579   0.852   2.685  0.0876  0.6685  0.0184
 4062TIP3    H136381   3.577   0.774   2.740  1.5441 -0.5301 -1.5164
 4062TIP3    H236382   3.576   0.925   2.746  0.2965 -0.5811  1.5841
 4063TIP3   OH236383   6.309   0.518   1.811 -0.5532 -0.0933  0.1163
 4063TIP3    H136384   6.318   0.453   1.741 -0.7759  0.3161 -0.3069
 4063TIP3    H236385   6.373   0.492   1.877 -0.6297 -0.7296 -0.0529
 4064TIP3   OH236386   7.394   3.072   0.156  0.2499 -0.0090 -0.3762
 4064TIP3    H136387   7.361   2.993   0.197  0.2905 -0.5847 -1.4176
 4064TIP3    H236388   7.374   3.061   0.063  0.6378  1.0083 -0.5926
 4065TIP3   OH236389   2.443   4.310   0.040 -0.2781 -0.6811 -0.0675
 4065TIP3    H136390   2.491   4.364  -0.024  1.5705 -1.8832  0.2469
 4065TIP3    H236391   2.407   4.238  -0.012 -0.8236 -0.3884 -0.1103
 4066TIP3   OH236392   0.586   0.549   0.462  0.6658  0.3096  0.1212
 4066TIP3    H136393   0.506   0.499   0.477  1.8867 -1.9648 -0.4614
 4066TIP3    H236394   0.621   0.564   0.550  0.4578 -0.1637  0.2883
 4067TIP3   OH236395   1.099   1.673   7.324  0.5914  0.1577 -0.0557
 4067TIP3    H136396   1.181   1.702   7.365  0.3200 -0.8752  1.3029
 4067TIP3    H236397   1.104   1.577   7.328 -0.0459  0.0624 -1.2989
 4068TIP3   OH236398   1.830   7.306   8.450  0.1876 -0.6632  0.3847
 4068TIP3    H136399   1.796   7.353   8.374 -1.6885 -2.1040  0.2679
 4068TIP3    H236400   1.925   7.310   8.440 -0.0037 -1.0667 -2.2166
 4069TIP3   OH236401   7.366   7.482   9.510  0.8508  0.2046  0.1297
 4069TIP3    H136402   7.392   7.398   9.473  0.4099 -1.0286  2.4448
 4069TIP3    H236403   7.431   7.499   9.579 -0.8281  0.1478  1.8139
 4070TIP3   OH236404   7.663   4.314   8.236  0.1370 -0.2480  0.0850
 4070TIP3    H136405   7.613   4.233   8.250 -1.0039 -0.0003 -2.0983
 4070TIP3    H236406   7.624   4.376   8.298  0.1320 -0.9878  0.8548
 4071TIP3   OH236407   3.330   0.963   2.187 -0.1222  0.4931  0.0182
 4071TIP3    H136408   3.322   1.048   2.231 -0.4411  0.4985 -0.0498
 4071TIP3    H236409   3.281   0.903   2.243 -0.7517  0.5486 -0.4640
 4072TIP3   OH236410   2.637   2.090   7.938 -0.2021  0.9156  0.0333
 4072TIP3    H136411   2.655   2.011   7.887  0.6056  1.1615 -0.0905
 4072TIP3    H236412   2.661   2.067   8.027 -1.1453  0.6400  0.2204
 4073TIP3   OH236413   5.998   2.974   8.894 -0.8154 -0.1435  0.1346
 4073TIP3    H136414   6.009   2.932   8.979  2.9836  0.1674 -0.0322
 4073TIP3    H236415   5.972   3.064   8.914 -1.2115 -0.4168  0.8816
 4074TIP3   OH236416   0.935   7.549   0.960 -0.2733 -0.1455  0.1708
 4074TIP3    H136417   0.912   7.457   0.974  0.3241 -0.1817  1.0070
 4074TIP3    H236418   0.987   7.573   1.037  1.7757  0.1663 -1.2295
 4075TIP3   OH236419   2.915   3.936   8.911 -0.7265  0.6072  0.4497
 4075TIP3    H136420   2.840   3.995   8.914 -2.3578 -1.2700 -1.3163
 4075TIP3    H236421   2.878   3.849   8.898  1.6813 -0.6562  1.2961
 4076TIP3   OH236422   4.162   2.030   7.808  0.3673  0.2703  0.0720
 4076TIP3    H136423   4.076   1.995   7.833  0.6134  0.6446  1.5275
 4076TIP3    H236424   4.152   2.051   7.715 -1.4280  1.1425  0.3997
 4077TIP3   OH236425   1.485   1.414   0.915 -0.2423 -0.5362 -0.0771
 4077TIP3    H136426   1.554   1.382   0.858  0.5538 -1.3675  1.3093
 4077TIP3    H236427   1.510   1.505   0.935  0.5955 -0.9032  0.5993
 4078TIP3   OH236428   6.843   6.288   9.894  0.8591  0.2702  0.2678
 4078TIP3    H136429   6.891   6.366   9.920 -1.0494  1.3996  0.5911
 4078TIP3    H236430   6.758   6.321   9.862  0.3060 -1.6076 -0.3599
 4079TIP3   OH236431   1.185   0.671   1.271 -0.5619  0.8210  0.2689
 4079TIP3    H136432   1.097   0.639   1.249 -0.0103 -0.6474  0.0572
 4079TIP3    H236433   1.204   0.632   1.356  1.6263 -2.8637 -1.6321
 4080TIP3   OH236434   3.927   7.165   3.295  0.0266 -0.7204  0.4752
 4080TIP3    H136435   3.968   7.171   3.382 -0.0943 -2.5532  0.7040
 4080TIP3    H236436   3.898   7.074   3.289 -1.7855 -0.1206 -0.6911
 4081TIP3   OH236437   1.100   7.471   9.654  0.4791  0.1120 -0.2814
 4081TIP3    H136438   1.077   7.520   9.575  1.2168 -0.5259 -0.9054
 4081TIP3    H236439   1.187   7.503   9.677 -0.0424  0.8433  0.7219
 4082TIP3   OH236440   3.780   6.925   9.432  0.1849 -0.2270 -0.3299
 4082TIP3    H136441   3.790   6.955   9.342  0.9825  0.2171 -0.1007
 4082TIP3    H236442   3.741   6.838   9.424  0.2173 -0.1799 -1.0975
 4083TIP3   OH236443   6.268   6.189   2.658 -0.3376 -0.5771  0.3426
 4083TIP3    H136444   6.178   6.218   2.672  0.3514  1.0497  1.8434
 4083TIP3    H236445   6.290   6.221   2.571 -1.1860 -0.9816 -0.0344
 4084TIP3   OH236446   7.340   5.764   9.728  0.2527  0.8495 -0.0207
 4084TIP3    H136447   7.254   5.728   9.747 -0.8071  2.1598 -1.9659
 4084TIP3    H236448   7.367   5.807   9.809 -0.7913  0.1781  0.6939
 4085TIP3   OH236449   1.512   1.417   8.751  0.4788 -0.0788 -0.2075
 4085TIP3    H136450   1.423   1.380   8.751  0.4903 -0.1227 -1.1119
 4085TIP3    H236451   1.564   1.353   8.799  0.1572 -0.4062 -0.2863
 4086TIP3   OH236452   6.231   0.430   1.045 -0.1604 -0.2398 -0.5355
 4086TIP3    H136453   6.156   0.490   1.041  0.4377  0.7140  1.4282
 4086TIP3    H236454   6.253   0.425   1.138  1.2819 -1.7042 -0.9127
 4087TIP3   OH236455   7.428   1.114   0.206 -0.2010  0.0424 -0.4017
 4087TIP3    H136456   7.344   1.110   0.251 -0.2717  1.4645 -0.3619
 4087TIP3    H236457   7.437   1.028   0.165  0.3341 -1.7079  3.0472
 4088TIP3   OH236458   3.826   7.250   1.699 -0.3846 -0.5636  0.1533
 4088TIP3    H136459   3.887   7.248   1.625  0.0805  0.6856  0.4739
 4088TIP3    H236460   3.880   7.228   1.775 -0.0581  1.5419  0.5833
 4089TIP3   OH236461   0.739   6.372   1.659  0.6273 -0.0176 -0.3637
 4089TIP3    H136462   0.737   6.278   1.680  1.2809  0.0834  0.1877
 4089TIP3    H236463   0.699   6.414   1.734  4.6624  0.5009  1.8066
 4090TIP3   OH236464   2.261   4.997   8.977 -0.3175  0.2759  0.4400
 4090TIP3    H136465   2.322   4.925   8.962 -0.5199  0.2103 -0.0967
 4090TIP3    H236466   2.252   5.039   8.891 -0.5007  0.7002  0.6629
 4091TIP3   OH236467   6.306   0.056   7.828 -0.2509  0.5019  0.1887
 4091TIP3    H136468   6.211   0.066   7.817 -0.3725  1.5271  1.7783
 4091TIP3    H236469   6.341   0.143   7.807  0.5119 -0.1559 -1.5124
 4092TIP3   OH236470   3.060   2.368   0.314 -0.2775 -0.1087 -0.4169
 4092TIP3    H136471   3.009   2.303   0.267 -1.8623  0.3943  0.5234
 4092TIP3    H236472   2.996   2.432   0.344  0.7096 -0.0500  1.8303
 4093TIP3   OH236473   6.266   2.143   6.898  0.2348  0.2699 -0.0878
 4093TIP3    H136474   6.335   2.167   6.959 -1.7279  1.5025  1.7869
 4093TIP3    H236475   6.198   2.105   6.952 -1.4141  0.9805 -1.5489
 4094TIP3   OH236476   1.162   4.047   8.778  0.0746 -0.0993 -0.2498
 4094TIP3    H136477   1.232   4.057   8.714  1.7380  1.7576  1.7000
 4094TIP3    H236478   1.145   4.136   8.809 -0.6807 -0.8930  1.8236
 4095TIP3   OH236479   1.868   7.363   7.113 -0.0374  0.0580  0.0257
 4095TIP3    H136480   1.925   7.360   7.035  0.1688 -0.7381  0.1996
 4095TIP3    H236481   1.826   7.277   7.115 -0.7612  0.4127  0.2742
 4096TIP3   OH236482   2.627   4.976   1.433 -0.1793  0.1938  0.8175
 4096TIP3    H136483   2.545   4.940   1.399  0.9988 -1.7588 -0.0633
 4096TIP3    H236484   2.627   5.067   1.404 -0.5164 -0.6461 -2.0725
 4097TIP3   OH236485   3.690   0.884   0.330 -0.2293  0.5387  0.8945
 4097TIP3    H136486   3.609   0.871   0.281 -0.4865  2.0848  0.8750
 4097TIP3    H236487   3.732   0.798   0.329  0.2258  0.6618 -2.8258
 4098TIP3   OH236488   2.281   7.406   7.097 -0.2428  0.8500 -0.0511
 4098TIP3    H136489   2.364   7.378   7.058 -0.3984  1.1236 -0.5805
 4098TIP3    H236490   2.271   7.497   7.070 -0.6330  0.8705  0.1562
 4099TIP3   OH236491   6.328   7.510   0.886 -0.3146  0.4150 -0.1721
 4099TIP3    H136492   6.321   7.593   0.838  0.5465  0.5801 -0.0468
 4099TIP3    H236493   6.402   7.524   0.946 -0.1279 -0.4603 -0.1818
 4100TIP3   OH236494   3.260   2.319   9.123  0.1619  0.4418  0.6901
 4100TIP3    H136495   3.330   2.268   9.166 -1.3900 -0.9889  1.6603
 4100TIP3    H236496   3.192   2.325   9.190 -1.8272 -0.7467 -1.1124
 4101TIP3   OH236497   5.095   2.228   9.492 -0.0323  0.4128  0.1351
 4101TIP3    H136498   5.165   2.280   9.452  1.0510 -0.4000  0.8849
 4101TIP3    H236499   5.130   2.203   9.577 -0.9480 -0.6471  0.2208
 4102TIP3   OH236500   7.476   1.556   9.671  0.1622 -0.4537  0.3528
 4102TIP3    H136501   7.534   1.579   9.744 -0.2136  2.5894 -0.1894
 4102TIP3    H236502   7.388   1.563   9.708 -0.0012  0.3122 -0.1647
 4103TIP3   OH236503   0.713   1.384   9.748 -0.3322 -0.2547  0.4472
 4103TIP3    H136504   0.727   1.304   9.799 -0.0694  0.0202  0.8069
 4103TIP3    H236505   0.767   1.450   9.791  1.6153 -0.5126 -1.4394
 4104TIP3   OH236506   5.233   1.290   2.846  0.2228  0.2439  0.2773
 4104TIP3    H136507   5.163   1.353   2.830  0.7257  0.5154 -1.0186
 4104TIP3    H236508   5.300   1.312   2.781 -0.2544 -2.6010 -1.3450
 4105TIP3   OH236509   4.037   3.132   9.289 -0.4770  0.1915  0.3351
 4105TIP3    H136510   4.118   3.092   9.321 -0.9716 -0.4791  0.7732
 4105TIP3    H236511   4.035   3.218   9.330  1.2651  1.2923 -1.6482
 4106TIP3   OH236512   1.868   6.885   8.878  0.0423  0.5962 -0.1575
 4106TIP3    H136513   1.772   6.883   8.875  0.0746 -0.8904 -0.6120
 4106TIP3    H236514   1.888   6.964   8.929 -1.3741  1.9214 -1.5412
 4107TIP3   OH236515   6.980   0.207   1.364  0.4465  0.2759 -0.2262
 4107TIP3    H136516   6.964   0.179   1.273  0.0184  0.3621 -0.1785
 4107TIP3    H236517   6.892   0.216   1.402  0.6324  0.0414  0.2574
 4108TIP3   OH236518   4.417   6.293   0.859 -0.0713 -0.2575 -0.5207
 4108TIP3    H136519   4.484   6.254   0.915 -0.3064 -0.8594 -0.6431
 4108TIP3    H236520   4.411   6.384   0.887  0.0194 -0.4820  0.2317
 4109TIP3   OH236521   3.863   3.790   9.631  0.1758  0.3402 -0.3662
 4109TIP3    H136522   3.869   3.736   9.552 -0.3457  1.1347 -0.9720
 4109TIP3    H236523   3.862   3.728   9.703  0.7110 -0.3990 -0.9867
 4110TIP3   OH236524   2.114   7.218   2.193 -0.1256  0.0713  0.2959
 4110TIP3    H136525   2.050   7.147   2.186 -0.5688  0.3584  1.1781
 4110TIP3    H236526   2.085   7.283   2.129  1.2367 -1.2037 -1.7357
 4111TIP3   OH236527   2.525   6.790   8.900 -0.1618  0.1377 -0.1122
 4111TIP3    H136528   2.562   6.820   8.983  1.0382 -2.3836  0.3458
 4111TIP3    H236529   2.445   6.743   8.924  1.5262 -2.9189  0.0565
 4112TIP3   OH236530   2.097   1.877   9.923 -0.6252 -0.0240 -0.2349
 4112TIP3    H136531   2.013   1.893   9.965 -0.0887  0.1700  0.7929
 4112TIP3    H236532   2.087   1.912   9.835 -1.6675 -0.1490 -0.1776
 4113TIP3   OH236533   3.491   0.861   8.509  0.1818  0.4166  0.2094
 4113TIP3    H136534   3.481   0.851   8.414 -2.3198  0.8011  0.3606
 4113TIP3    H236535   3.541   0.942   8.519  2.8731 -1.0066 -0.7350
 4114TIP3   OH236536   3.520   2.731   1.762 -0.4802 -0.2673  1.0466
 4114TIP3    H136537   3.580   2.673   1.715 -1.8335 -0.7651 -0.1449
 4114TIP3    H236538   3.538   2.714   1.854  0.5318 -1.1074  0.7214
 4115TIP3   OH236539   5.392   0.405   2.663  0.1410  0.0460  0.0047
 4115TIP3    H136540   5.408   0.444   2.749 -0.1014  1.3306 -0.5073
 4115TIP3    H236541   5.371   0.479   2.607 -1.7522 -0.9549 -0.7063
 4116TIP3   OH236542   0.112   2.312   0.910  0.1281 -0.0885 -0.0177
 4116TIP3    H136543   0.190   2.332   0.962 -0.2895  1.0866  0.1848
 4116TIP3    H236544   0.146   2.276   0.828  0.7970 -2.0239  1.0554
 4117TIP3   OH236545   5.203   0.139   6.608 -0.4457 -0.3327 -0.3565
 4117TIP3    H136546   5.144   0.069   6.579 -0.6694 -0.4995  0.4719
 4117TIP3    H236547   5.145   0.207   6.642 -0.2542  0.4917 -1.6249
 4118TIP3   OH236548   1.326   2.879   1.069  0.1295 -0.2359  0.2946
 4118TIP3    H136549   1.304   2.787   1.086  0.8104 -0.5150 -0.2769
 4118TIP3    H236550   1.390   2.875   0.998 -1.0869  0.7709 -0.9018
 4119TIP3   OH236551   3.999   6.838   2.819  0.0447 -0.0303  0.0197
 4119TIP3    H136552   4.058   6.912   2.806  0.2604 -0.4877 -2.0270
 4119TIP3    H236553   3.913   6.878   2.834  0.2357  0.6613 -0.6532
 4120TIP3   OH236554   1.521   6.006   8.093 -0.2240 -0.1437  0.2040
 4120TIP3    H136555   1.543   5.944   8.163  1.2384 -1.5043 -1.3541
 4120TIP3    H236556   1.563   5.969   8.015 -1.8424  1.2701 -1.4200
 4121TIP3   OH236557   3.245   5.541   7.970  0.2763  0.7152  0.3176
 4121TIP3    H136558   3.158   5.504   7.953 -0.5804  1.9522  1.7645
 4121TIP3    H236559   3.304   5.466   7.961 -1.2114 -0.7253  1.6478
 4122TIP3   OH236560   0.633   6.183   7.685  0.3018  0.1219 -0.6235
 4122TIP3    H136561   0.669   6.099   7.713  1.2047  0.8583  0.5474
 4122TIP3    H236562   0.552   6.161   7.639 -0.2090 -1.3039  0.8597
 4123TIP3   OH236563   4.109   3.472   8.671 -0.6833  0.2826  0.1561
 4123TIP3    H136564   4.105   3.420   8.751 -0.9433  3.8951  2.7330
 4123TIP3    H236565   4.027   3.453   8.626  0.1359 -2.9887 -0.2116
 4124TIP3   OH236566   5.496   0.207   6.570 -0.6408  0.1985 -0.0812
 4124TIP3    H136567   5.401   0.204   6.561 -0.8503  2.4144  0.8133
 4124TIP3    H236568   5.511   0.215   6.664  0.2411  2.6437 -0.3604
 4125TIP3   OH236569   0.406   5.743   9.685 -0.2841 -0.1606 -0.2322
 4125TIP3    H136570   0.491   5.766   9.647  0.1457  0.2723  0.9517
 4125TIP3    H236571   0.419   5.654   9.718 -0.5692 -0.4280 -0.8265
 4126TIP3   OH236572   2.987   3.325   0.169 -0.1394  0.4336 -0.5354
 4126TIP3    H136573   3.070   3.367   0.147 -0.8085  1.8088 -0.5741
 4126TIP3    H236574   2.984   3.247   0.115  0.0960  1.5945 -2.3120
 4127TIP3   OH236575   2.520   0.699   8.470 -0.8373  0.0028  0.2333
 4127TIP3    H136576   2.581   0.637   8.511  1.0188  1.5633 -0.0250
 4127TIP3    H236577   2.496   0.657   8.387 -0.5921 -0.9045  0.6056
 4128TIP3   OH236578   0.429   2.067   2.677 -0.0346 -0.2118 -0.2277
 4128TIP3    H136579   0.350   2.024   2.643  1.1691 -0.6114 -2.7505
 4128TIP3    H236580   0.468   2.002   2.735 -2.3870  0.6516  2.5349
 4129TIP3   OH236581   5.740   5.527   7.688  0.2851 -0.0727 -0.2433
 4129TIP3    H136582   5.651   5.518   7.723 -0.0232 -0.3313 -1.0670
 4129TIP3    H236583   5.760   5.620   7.697  0.1630 -0.1081  0.4808
 4130TIP3   OH236584   7.627   7.476   1.911 -0.4502 -0.3249  0.2902
 4130TIP3    H136585   7.611   7.520   1.828 -1.8769  0.3256  0.8666
 4130TIP3    H236586   7.540   7.460   1.947  0.0225 -3.1324  0.4051
 4131TIP3   OH236587   6.003   1.867   2.028  0.1607 -0.1705 -0.3533
 4131TIP3    H136588   6.057   1.946   2.024 -2.0999  1.4861 -0.0239
 4131TIP3    H236589   5.964   1.868   2.116 -0.4413 -1.2813 -0.5782
 4132TIP3   OH236590   2.401   0.104   9.222  0.0826 -0.0157  0.3995
 4132TIP3    H136591   2.406   0.050   9.301  1.4561 -0.8428 -0.2163
 4132TIP3    H236592   2.424   0.192   9.253 -1.4931  0.1292  1.2793
 4133TIP3   OH236593   3.398   1.122   8.897  0.0053  0.3570  0.5768
 4133TIP3    H136594   3.363   1.070   8.970 -1.4538 -1.0235 -0.9930
 4133TIP3    H236595   3.322   1.135   8.839  1.2872  0.6216 -1.1210
 4134TIP3   OH236596   1.661   3.207   8.627 -0.1603 -0.5771  0.1752
 4134TIP3    H136597   1.734   3.262   8.657 -0.2632 -0.1759 -0.2992
 4134TIP3    H236598   1.647   3.233   8.536 -1.4753  0.0023  0.5200
 4135TIP3   OH236599   5.854   0.062   1.119 -0.1275 -0.3011  0.4079
 4135TIP3    H136600   5.830   0.137   1.174  1.2694 -0.3351  1.0873
 4135TIP3    H236601   5.897   0.001   1.178  1.4608 -0.3157 -0.7032
 4136TIP3   OH236602   3.168   5.399   0.728 -0.1791 -0.1946 -0.0761
 4136TIP3    H136603   3.211   5.465   0.673  1.0364 -0.2339  0.7717
 4136TIP3    H236604   3.164   5.321   0.673 -2.5156  0.8045 -1.4350
 4137TIP3   OH236605   3.248   0.307   7.936  0.1130 -0.6603 -0.3709
 4137TIP3    H136606   3.271   0.280   7.847 -1.1421 -0.6936 -0.7115
 4137TIP3    H236607   3.331   0.332   7.976  0.6533 -0.2367 -1.6900
 4138TIP3   OH236608   2.804   3.059   2.266 -0.0311 -0.8745  0.5328
 4138TIP3    H136609   2.810   2.966   2.290  0.8207 -1.4224 -1.6301
 4138TIP3    H236610   2.770   3.101   2.345 -0.5078 -3.0207  1.5562
 4139TIP3   OH236611   7.170   1.186   8.268 -0.2531 -0.0675  0.3297
 4139TIP3    H136612   7.125   1.259   8.311 -1.1048  0.5008 -1.4334
 4139TIP3    H236613   7.110   1.112   8.277  0.0078 -0.2134  0.9358
 4140TIP3   OH236614   0.718   1.374   0.366 -0.2293 -0.4250  0.5201
 4140TIP3    H136615   0.722   1.448   0.306 -0.0250 -0.1937  0.8182
 4140TIP3    H236616   0.629   1.376   0.402 -0.3167 -0.4994  0.3100
 4141TIP3   OH236617   1.497   2.611   8.602  0.1926 -0.1009 -0.5357
 4141TIP3    H136618   1.488   2.636   8.510  0.2815 -0.2494 -0.5867
 4141TIP3    H236619   1.410   2.578   8.627 -0.2711  1.3962 -0.1071
 4142TIP3   OH236620   1.101   5.302   8.945 -0.2705 -0.7388 -0.2285
 4142TIP3    H136621   1.078   5.288   9.037  0.3778  1.4049  0.3197
 4142TIP3    H236622   1.091   5.396   8.931  0.4223 -0.8931 -2.1330
 4143TIP3   OH236623   3.263   0.930   7.981 -0.3382 -0.4031 -0.0353
 4143TIP3    H136624   3.340   0.959   7.932  0.4046 -0.4758  1.0500
 4143TIP3    H236625   3.211   1.010   7.994 -0.4909 -0.3680 -0.8388
 4144TIP3   OH236626   5.131   2.551   7.375 -0.0523 -0.2517  0.1885
 4144TIP3    H136627   5.113   2.464   7.339  0.4186 -0.1306 -0.3639
 4144TIP3    H236628   5.079   2.611   7.321  2.3316  0.1686 -1.8573
 4145TIP3   OH236629   7.216   4.081   7.900  0.0788 -0.2160 -0.1326
 4145TIP3    H136630   7.200   3.993   7.936  0.2033 -1.0553 -2.0064
 4145TIP3    H236631   7.195   4.140   7.972 -3.0028 -1.6196  0.3052
 4146TIP3   OH236632   2.139   5.980   0.966  0.2442  0.3405  0.1533
 4146TIP3    H136633   2.157   5.954   0.875  0.8864  1.9454 -0.2202
 4146TIP3    H236634   2.055   5.940   0.986 -0.3272  0.6558 -1.4557
 4147TIP3   OH236635   0.109   6.878   9.380 -0.3692 -0.4498 -0.5471
 4147TIP3    H136636   0.122   6.937   9.454 -1.1508  0.0095 -0.7621
 4147TIP3    H236637   0.036   6.823   9.405  1.1063 -2.1879  0.1557
 4148TIP3   OH236638   3.432   3.164   8.934 -0.2456 -0.5023 -0.9266
 4148TIP3    H136639   3.416   3.101   9.004 -0.0344  0.1577 -0.2625
 4148TIP3    H236640   3.408   3.118   8.853 -1.7921 -0.8251 -0.3122
 4149TIP3   OH236641   2.156   0.620   8.188 -0.5488  0.0504 -0.2926
 4149TIP3    H136642   2.133   0.533   8.218  0.0902 -0.1040 -0.2368
 4149TIP3    H236643   2.079   0.650   8.140 -1.5543  0.2596  1.3765
 4150TIP3   OH236644   4.158   5.366   8.614 -0.4142 -0.4183  0.2772
 4150TIP3    H136645   4.070   5.330   8.604 -0.2396 -0.6153 -0.7403
 4150TIP3    H236646   4.146   5.444   8.668 -1.2092 -0.4611  0.1800
 4151TIP3   OH236647   0.379   2.562   8.683  0.2784 -0.4640 -0.2988
 4151TIP3    H136648   0.385   2.596   8.772 -0.6546 -0.8829 -0.0680
 4151TIP3    H236649   0.391   2.638   8.627  0.7994 -0.1885  0.1865
 4152TIP3   OH236650   1.199   1.378   0.158 -0.0401 -0.3971  0.1231
 4152TIP3    H136651   1.120   1.339   0.197 -1.5759  2.1368 -0.2316
 4152TIP3    H236652   1.202   1.340   0.070  0.0289 -1.6414  0.6331
 4153TIP3   OH236653   0.973   0.721   7.370  0.1290 -0.1211  0.1192
 4153TIP3    H136654   0.947   0.723   7.278  0.4209  1.7218  0.0422
 4153TIP3    H236655   0.976   0.628   7.392 -1.8099 -0.5436 -1.1893
 4154TIP3   OH236656   1.976   4.487   0.915  0.5362  0.0449  0.6499
 4154TIP3    H136657   1.995   4.415   0.855 -0.4791 -0.0486  0.4205
 4154TIP3    H236658   1.921   4.447   0.983  1.0665  0.3154  1.2392
 4155TIP3   OH236659   2.339   4.134   2.500 -0.5338  0.1644 -0.7795
 4155TIP3    H136660   2.289   4.099   2.574  0.0294  1.2267  0.1230
 4155TIP3    H236661   2.296   4.217   2.480  0.1727  0.5387 -0.7438
 4156TIP3   OH236662   1.273   1.661   0.998  0.3329 -0.6253 -0.1088
 4156TIP3    H136663   1.366   1.677   0.986  0.0504  1.8448  0.3712
 4156TIP3    H236664   1.263   1.650   1.093  0.1418 -1.1179 -0.1811
 4157TIP3   OH236665   1.627   3.523   7.019 -0.2703 -0.1312 -0.9310
 4157TIP3    H136666   1.636   3.614   6.989  0.8569  0.6157  1.4332
 4157TIP3    H236667   1.711   3.482   6.996 -0.5371 -0.4123 -1.4221
 4158TIP3   OH236668   2.954   2.910   9.874  0.4778  0.0385 -0.3254
 4158TIP3    H136669   3.033   2.858   9.860  0.4828 -0.2379  0.6764
 4158TIP3    H236670   2.885   2.861   9.828  0.3950 -1.1132  0.9568
 4159TIP3   OH236671   6.995   2.264   8.961  0.0027  0.0408  0.3740
 4159TIP3    H136672   7.067   2.325   8.980 -0.7755  0.8609  0.7340
 4159TIP3    H236673   6.916   2.315   8.975 -0.6582 -0.8031 -0.2153
 4160TIP3   OH236674   4.176   1.904   9.042 -0.6429 -0.0640  0.1657
 4160TIP3    H136675   4.105   1.956   9.081 -0.3824 -0.1208  0.7286
 4160TIP3    H236676   4.131   1.829   9.004 -0.8159 -0.5663  1.3084
 4161TIP3   OH236677   4.192   6.357   7.719 -0.1978 -0.1480  0.1953
 4161TIP3    H136678   4.157   6.356   7.808 -2.0044  2.2607 -0.3717
 4161TIP3    H236679   4.256   6.428   7.719 -0.5529  0.1776 -0.5330
 4162TIP3   OH236680   7.379   1.344   7.859  0.1466  0.1000 -0.3258
 4162TIP3    H136681   7.350   1.433   7.839  0.3644 -0.2521 -2.3723
 4162TIP3    H236682   7.392   1.303   7.774  0.2629 -1.8386  0.5784
 4163TIP3   OH236683   5.171   1.537   0.040  0.1728 -0.3564 -0.3834
 4163TIP3    H136684   5.154   1.614   0.094  1.3838 -1.3049  1.4511
 4163TIP3    H236685   5.094   1.481   0.053 -0.4549  0.2796 -1.2769
 4164TIP3   OH236686   1.355   6.892   9.235  0.4217 -0.4601  0.2083
 4164TIP3    H136687   1.294   6.830   9.195 -1.3272  2.0498 -1.3237
 4164TIP3    H236688   1.322   6.904   9.324 -0.9561  0.3210 -0.3793
 4165TIP3   OH236689   5.325   3.215   9.967  0.7057  0.0911 -0.0053
 4165TIP3    H136690   5.359   3.254   9.887 -1.2423  2.4446  0.1725
 4165TIP3    H236691   5.231   3.202   9.950  0.1239  1.1551  2.0008
 4166TIP3   OH236692   5.529   7.392   8.485 -0.0363  1.0285 -0.3307
 4166TIP3    H136693   5.525   7.303   8.448 -0.7168  0.3670  1.2467
 4166TIP3    H236694   5.511   7.449   8.410 -1.7392 -0.2692 -0.9960
 4167TIP3   OH236695   4.977   7.246   9.629 -0.0456 -0.4862  0.1037
 4167TIP3    H136696   4.899   7.202   9.663 -1.2226  0.1503 -1.6238
 4167TIP3    H236697   5.028   7.178   9.586 -0.0860 -0.7499  0.4722
 4168TIP3   OH236698   2.869   1.412   2.438 -0.3328  0.0120 -0.2565
 4168TIP3    H136699   2.916   1.332   2.414  0.2066  0.1334  0.3520
 4168TIP3    H236700   2.872   1.466   2.359  3.1440  1.2331  0.5182
 4169TIP3   OH236701   3.569   0.142   7.938 -0.7080  0.2514  0.0126
 4169TIP3    H136702   3.599   0.232   7.924  0.9314 -0.2215  0.2695
 4169TIP3    H236703   3.525   0.143   8.023 -0.2693  0.7117  0.2360
 4170TIP3   OH236704   4.105   4.103   8.250 -0.0055  0.0800  0.5670
 4170TIP3    H136705   4.135   4.184   8.290 -1.3452  1.2007 -0.6071
 4170TIP3    H236706   4.157   4.034   8.293  2.2245  1.6570  0.5311
 4171TIP3   OH236707   1.099   6.290   8.670  0.1835  0.5688  0.0100
 4171TIP3    H136708   1.085   6.245   8.586  1.2716  0.3953 -0.0993
 4171TIP3    H236709   1.062   6.378   8.656 -0.0345  0.4037 -0.5015
 4172TIP3   OH236710   3.905   7.487   7.595 -0.7231 -0.1115 -0.6030
 4172TIP3    H136711   3.998   7.509   7.600 -0.5608 -0.9883  0.7897
 4172TIP3    H236712   3.903   7.392   7.601 -1.7735 -0.0197  1.2963
 4173TIP3   OH236713   3.525   2.279   9.532 -0.4820  0.4444  0.6243
 4173TIP3    H136714   3.575   2.217   9.586  0.4862  0.7565  0.1046
 4173TIP3    H236715   3.504   2.351   9.592  1.4533  1.2605  0.3708
 4174TIP3   OH236716   6.322   0.311   0.475  0.1190 -0.0837 -0.1023
 4174TIP3    H136717   6.239   0.267   0.458 -0.3841  0.9413 -0.3655
 4174TIP3    H236718   6.304   0.370   0.548  0.2554  1.0685 -0.9539
 4175TIP3   OH236719   1.765   2.539   1.005 -0.0019 -0.4256 -0.1682
 4175TIP3    H136720   1.701   2.574   0.943  0.4961 -2.4503 -1.9360
 4175TIP3    H236721   1.713   2.494   1.071 -0.4722  0.1475 -0.1398
 4176TIP3   OH236722   5.144   2.342   0.939 -0.3408 -0.3019  0.1923
 4176TIP3    H136723   5.228   2.332   0.985  0.4536  0.5662 -0.9883
 4176TIP3    H236724   5.153   2.287   0.862  0.0174  1.3793 -1.0274
 4177TIP3   OH236725   1.619   1.138   7.871 -0.0334  0.2967  0.3882
 4177TIP3    H136726   1.661   1.208   7.920 -0.3822  1.7323 -1.2589
 4177TIP3    H236727   1.525   1.158   7.875 -0.4203 -1.4986  1.9550
 4178TIP3   OH236728   2.724   1.840   9.041 -0.3373  0.1289 -0.1023
 4178TIP3    H136729   2.631   1.818   9.043 -0.5344  0.8209 -0.9729
 4178TIP3    H236730   2.731   1.909   8.975  0.6547  0.7354  0.6083
 4179TIP3   OH236731   3.471   3.559   0.040  0.0815 -0.0454  0.4277
 4179TIP3    H136732   3.397   3.524  -0.010  0.6884 -2.5061  1.1162
 4179TIP3    H236733   3.435   3.635   0.085 -1.9241 -0.8944  0.3782
 4180TIP3   OH236734   6.092   1.366   9.574 -0.0967  0.1586  0.1100
 4180TIP3    H136735   6.150   1.441   9.589 -1.7748  1.1522  2.1716
 4180TIP3    H236736   6.075   1.332   9.661  1.6328 -3.5704 -0.8093
 4181TIP3   OH236737   2.439   0.054   7.108 -0.2344  0.0170 -0.0794
 4181TIP3    H136738   2.392   0.083   7.186 -0.7310  1.6590 -0.9311
 4181TIP3    H236739   2.374   0.058   7.038  0.0555 -1.9351 -0.5237
 4182TIP3   OH236740   4.454   2.377   8.855 -0.0531  0.3303  0.3668
 4182TIP3    H136741   4.399   2.403   8.928  0.9870  3.3508  0.1935
 4182TIP3    H236742   4.404   2.401   8.777 -0.1083 -0.5847  0.1010
 4183TIP3   OH236743   0.634   3.281   8.660 -0.4265  0.3646  0.2299
 4183TIP3    H136744   0.709   3.229   8.631 -0.0214  0.4380  1.0916
 4183TIP3    H236745   0.671   3.367   8.679 -1.1058  1.0129 -1.2456
 4184TIP3   OH236746   0.614   5.369   8.412 -0.2368  0.4326 -0.2711
 4184TIP3    H136747   0.531   5.325   8.425  0.7240 -1.4995 -0.2735
 4184TIP3    H236748   0.653   5.374   8.499 -1.4880  3.9839  0.2681
 4185TIP3   OH236749   6.686   5.239   0.223  0.5094  0.5960 -0.7073
 4185TIP3    H136750   6.664   5.316   0.276 -2.1134 -0.6943  0.2401
 4185TIP3    H236751   6.723   5.177   0.285  0.2283  0.1615 -0.9687
 4186TIP3   OH236752   6.255   1.437   9.843  0.1140  0.2517  0.0608
 4186TIP3    H136753   6.341   1.395   9.843 -0.5307 -1.1571 -0.7067
 4186TIP3    H236754   6.263   1.509   9.905  0.5436 -2.5479  3.5610
 4187TIP3   OH236755   4.716   1.044   0.718 -0.1137 -0.2112 -0.0619
 4187TIP3    H136756   4.784   1.012   0.777 -1.3101 -1.4825  0.6619
 4187TIP3    H236757   4.751   1.126   0.684  1.1892 -0.1490  1.3455
 4188TIP3   OH236758   6.346   2.213   0.832  0.7105  0.2166  0.0117
 4188TIP3    H136759   6.417   2.149   0.839  0.3166 -0.2346 -0.0263
 4188TIP3    H236760   6.350   2.244   0.742 -0.0340 -0.8821 -0.4240
 4189TIP3   OH236761   7.202   6.121   8.053 -0.2392 -0.2953 -0.4359
 4189TIP3    H136762   7.240   6.186   7.994 -1.4983 -0.4055 -1.4122
 4189TIP3    H236763   7.113   6.153   8.069  1.1603  2.1978  4.9835
 4190TIP3   OH236764   5.714   6.650   9.490  0.2797 -0.0740 -1.0779
 4190TIP3    H136765   5.775   6.724   9.496 -1.4013  1.3431 -0.8868
 4190TIP3    H236766   5.765   6.581   9.447  3.4659 -0.5358  2.8408
 4191TIP3   OH236767   1.331   7.394   8.675  0.0405  0.2514  0.1346
 4191TIP3    H136768   1.393   7.384   8.602  0.2070  0.5207  0.2371
 4191TIP3    H236769   1.293   7.481   8.662  1.0494  0.8615  1.1137
 4192TIP3   OH236770   6.227   7.419   9.883 -0.1935  0.3579  0.6190
 4192TIP3    H136771   6.187   7.375   9.808  1.1106 -2.2395  1.3363
 4192TIP3    H236772   6.155   7.434   9.944 -1.0540  1.3951 -0.5948
 4193TIP3   OH236773   2.827   2.154   2.710  0.3874 -0.1033  0.0672
 4193TIP3    H136774   2.867   2.163   2.797 -2.8483 -2.1301  1.9699
 4193TIP3    H236775   2.838   2.062   2.688  1.2289  0.3985 -1.7955
 4194TIP3   OH236776   3.518   1.048   2.849 -0.3831  0.1637 -0.3256
 4194TIP3    H136777   3.436   1.098   2.856 -0.8087 -0.2956 -1.5713
 4194TIP3    H236778   3.582   1.100   2.898 -1.4828  0.3604  0.9767
 4195TIP3   OH236779   7.088   6.697   2.865  0.2054 -0.8967 -0.4755
 4195TIP3    H136780   7.174   6.739   2.864  0.3540 -1.1583  0.3033
 4195TIP3    H236781   7.029   6.764   2.903  0.1422 -0.8514 -0.6545
 4196TIP3   OH236782   5.260   7.215   8.360 -0.3948 -0.0232 -0.2692
 4196TIP3    H136783   5.332   7.153   8.361 -1.6182 -1.6747 -2.6854
 4196TIP3    H236784   5.200   7.184   8.428 -0.0339 -0.2248 -0.0416
 4197TIP3   OH236785   7.101   6.972   9.933 -0.1156  0.6381  0.0296
 4197TIP3    H136786   7.097   7.028   9.856 -0.4915  2.2079  1.1273
 4197TIP3    H236787   7.190   6.982   9.966  0.0210  0.0324 -0.1306
 4198TIP3   OH236788   5.684   2.396   8.432 -0.2210  0.2648 -0.0324
 4198TIP3    H136789   5.604   2.411   8.382 -1.1927 -1.5740  0.8859
 4198TIP3    H236790   5.728   2.481   8.433 -1.3810  0.9458 -1.8583
 4199TIP3   OH236791   4.781   6.011   2.841  0.2176 -0.0375 -0.1716
 4199TIP3    H136792   4.733   6.014   2.924  1.7398 -1.9839  0.8730
 4199TIP3    H236793   4.813   5.921   2.835  0.3639  0.0899 -2.7983
 4200TIP3   OH236794   0.107   4.081   1.646 -0.0464 -0.0811  0.0326
 4200TIP3    H136795   0.032   4.111   1.698  0.1117  0.2429  0.0767
 4200TIP3    H236796   0.071   4.012   1.590 -0.5278  0.4901 -0.3848
 4201TIP3   OH236797   2.781   0.716   1.229  0.2733 -0.5497 -0.3449
 4201TIP3    H136798   2.744   0.628   1.216 -4.1906  0.9968  0.5311
 4201TIP3    H236799   2.775   0.731   1.323  0.4542  0.9095 -0.5547
 4202TIP3   OH236800   5.330   0.840   8.950 -0.3881  0.0621  0.5958
 4202TIP3    H136801   5.312   0.777   8.880 -0.6365 -3.1199  3.2562
 4202TIP3    H236802   5.243   0.863   8.984 -0.2146  0.7061  0.6164
 4203TIP3   OH236803   4.020   5.971   9.740  0.4655 -0.3712 -0.3514
 4203TIP3    H136804   3.989   5.888   9.703 -0.3901  0.0389 -0.5682
 4203TIP3    H236805   4.112   5.975   9.716  0.6252 -1.4597  0.0171
 4204TIP3   OH236806   2.407   5.679   2.001  0.3454 -0.1273  0.2387
 4204TIP3    H136807   2.379   5.591   1.977  0.3394  0.2893 -1.4364
 4204TIP3    H236808   2.377   5.691   2.091  0.2092 -1.7624  0.4385
 4205TIP3   OH236809   1.287   0.945   7.774  0.3708 -0.0782  0.2025
 4205TIP3    H136810   1.312   0.993   7.695 -0.2275 -1.1784 -0.6847
 4205TIP3    H236811   1.267   1.013   7.838  1.5132  0.8380 -0.3615
 4206TIP3   OH236812   6.319   7.234   0.438  0.1852 -0.2210  0.4719
 4206TIP3    H136813   6.300   7.218   0.530  0.1040  0.3566  0.5627
 4206TIP3    H236814   6.262   7.307   0.414  1.0365  0.4126  0.2871
 4207TIP3   OH236815   1.334   5.184   0.981  0.0330  0.3304 -0.7078
 4207TIP3    H136816   1.387   5.141   0.915  1.5688 -0.9656  1.2694
 4207TIP3    H236817   1.244   5.169   0.953  0.5829 -2.0300 -1.4020
 4208TIP3   OH236818   7.391   5.973   0.535 -0.7035 -0.1562  0.0415
 4208TIP3    H136819   7.343   6.056   0.536 -1.0603 -0.3628  1.0599
 4208TIP3    H236820   7.328   5.910   0.500 -0.2991  0.0623 -1.1282
 4209TIP3   OH236821   5.639   1.456   1.755  0.6809  0.4257 -0.3474
 4209TIP3    H136822   5.726   1.440   1.718  0.2655  0.3655 -1.3450
 4209TIP3    H236823   5.624   1.381   1.813  0.0186 -1.3577 -2.6280
 4210TIP3   OH236824   2.596   6.644   1.247  0.3752 -0.4274 -0.4847
 4210TIP3    H136825   2.658   6.580   1.281  1.3319  1.2715  1.1180
 4210TIP3    H236826   2.643   6.727   1.250 -1.8670  0.8959  0.5605
 4211TIP3   OH236827   3.712   3.599   0.787 -0.0320  0.2467 -0.0480
 4211TIP3    H136828   3.750   3.557   0.864  0.5859  2.1014  0.7189
 4211TIP3    H236829   3.755   3.557   0.713 -1.6436 -2.5603  0.4741
 4212TIP3   OH236830   4.415   2.825   2.514  0.1331  0.4658  0.1298
 4212TIP3    H136831   4.347   2.888   2.491  1.0859  1.1102 -1.0064
 4212TIP3    H236832   4.421   2.830   2.609  0.0599  1.9641  0.0754
 4213TIP3   OH236833   0.234   1.479   6.833 -0.0490 -0.1519  0.3094
 4213TIP3    H136834   0.173   1.522   6.893 -0.2298 -0.4078  0.3089
 4213TIP3    H236835   0.178   1.429   6.774  0.0986  0.4463 -0.3564
 4214TIP3   OH236836   7.603   5.541   2.383  0.1368 -0.0099  0.6217
 4214TIP3    H136837   7.619   5.514   2.473  1.0879 -0.4554  0.3324
 4214TIP3    H236838   7.628   5.634   2.382 -0.5357  0.1789  0.9744
 4215TIP3   OH236839   1.542   1.654   0.607  0.2472  0.1327 -0.1045
 4215TIP3    H136840   1.482   1.718   0.568 -0.8804 -0.6153  0.3861
 4215TIP3    H236841   1.599   1.629   0.534  0.8103  1.7686 -0.2875
 4216TIP3   OH236842   1.744   5.086   8.627 -0.4663  0.0412  0.5330
 4216TIP3    H136843   1.760   5.111   8.536 -0.1186 -0.7382  0.3713
 4216TIP3    H236844   1.821   5.036   8.652  0.5597  2.2516  2.0461
 4217TIP3   OH236845   2.696   7.605   8.779 -0.2802 -0.5192  0.1508
 4217TIP3    H136846   2.634   7.563   8.720 -1.3350  1.3551 -0.1639
 4217TIP3    H236847   2.781   7.594   8.737 -0.7330 -0.9626 -0.6772
 4218TIP3   OH236848   4.030   6.490   0.208 -0.1320  0.2170 -0.3688
 4218TIP3    H136849   3.990   6.447   0.132 -0.2921  0.3508 -0.3603
 4218TIP3    H236850   3.989   6.448   0.283 -0.1567  0.2589 -0.3589
 4219TIP3   OH236851   7.564   5.129   1.102 -0.3622 -0.6984  0.2606
 4219TIP3    H136852   7.524   5.151   1.186  0.0542 -1.1295  0.5763
 4219TIP3    H236853   7.657   5.151   1.114 -0.4101 -0.1632 -0.2998
 4220TIP3   OH236854   1.749   0.966   8.261 -0.4698  0.6269  0.0943
 4220TIP3    H136855   1.670   0.956   8.208  0.1309 -1.0774 -0.5687
 4220TIP3    H236856   1.821   0.953   8.200  0.3009  0.8837  0.9233
 4221TIP3   OH236857   6.943   3.856   0.707 -0.2204 -0.1627 -0.2928
 4221TIP3    H136858   6.915   3.880   0.796 -0.9945 -0.4120 -0.4593
 4221TIP3    H236859   7.030   3.895   0.698  0.2634 -0.8700  0.8990
 4222TIP3   OH236860   6.409   7.112   8.356  0.3589  0.1239  0.0308
 4222TIP3    H136861   6.482   7.067   8.314 -0.2186  0.6656 -1.6590
 4222TIP3    H236862   6.424   7.204   8.337  0.9378  0.5893  2.4897
 4223TIP3   OH236863   7.330   6.801   2.788  0.2893 -0.0126  0.5607
 4223TIP3    H136864   7.391   6.741   2.744  0.8302  0.6046  0.4471
 4223TIP3    H236865   7.387   6.867   2.829 -0.2574 -0.0440  1.3850
 4224TIP3   OH236866   1.841   1.212   0.062  0.1495 -0.0257 -0.2830
 4224TIP3    H136867   1.756   1.209   0.017  0.3873  0.6685 -0.7980
 4224TIP3    H236868   1.826   1.272   0.135  0.7184  1.7507 -1.5583
 4225TIP3   OH236869   6.893   2.644   1.119 -0.4527 -0.0401  0.9500
 4225TIP3    H136870   6.865   2.666   1.031  2.1125  0.3157  0.1569
 4225TIP3    H236871   6.982   2.679   1.127 -0.0757 -1.2539  3.1904
 4226TIP3   OH236872   0.748   7.115   1.585  0.2897 -0.1629  0.2858
 4226TIP3    H136873   0.752   7.063   1.505  0.0516  0.4028 -0.0985
 4226TIP3    H236874   0.818   7.180   1.576 -0.6900  0.8734 -0.1706
 4227TIP3   OH236875   1.305   5.355   7.518  0.0636  0.7865  0.7968
 4227TIP3    H136876   1.379   5.294   7.519  0.7475  1.5894  0.3987
 4227TIP3    H236877   1.345   5.442   7.526 -0.7078  1.3540 -0.9733
 4228TIP3   OH236878   5.122   2.360   8.380  1.4928  0.1335 -0.4495
 4228TIP3    H136879   5.122   2.422   8.306  2.3172  0.9523  0.2100
 4228TIP3    H236880   5.109   2.416   8.457  1.5970 -0.6028  0.1085
 4229TIP3   OH236881   0.530   0.784   2.540  0.1170  0.1947 -0.0465
 4229TIP3    H136882   0.459   0.725   2.514  1.0498 -1.2403  0.5343
 4229TIP3    H236883   0.486   0.851   2.594 -0.8223 -0.6024  0.2220
 4230TIP3   OH236884   0.329   3.155   9.264 -0.6095 -0.3754  0.0489
 4230TIP3    H136885   0.314   3.229   9.323 -0.2531 -1.4505  1.5622
 4230TIP3    H236886   0.420   3.130   9.279 -1.1451 -2.0518  0.7208
 4231TIP3   OH236887   1.460   4.717   2.768 -0.0601  0.3606  0.4596
 4231TIP3    H136888   1.553   4.692   2.774 -0.0108  0.6462  0.9180
 4231TIP3    H236889   1.436   4.741   2.857  0.0339  2.4646 -0.0434
 4232TIP3   OH236890   6.100   4.600   8.684 -0.5692 -0.4900 -0.0963
 4232TIP3    H136891   6.082   4.508   8.667 -2.0289 -0.2267 -0.1531
 4232TIP3    H236892   6.175   4.600   8.743  0.0448 -1.6690 -0.8489
 4233TIP3   OH236893   2.128   0.608   9.237  0.0743 -0.0558 -0.4026
 4233TIP3    H136894   2.140   0.703   9.243  2.0616 -0.2769 -0.2811
 4233TIP3    H236895   2.190   0.572   9.301 -0.3175 -1.4592 -0.7856
 4234TIP3   OH236896   2.717   3.707   9.553 -0.5507  0.3532 -0.0407
 4234TIP3    H136897   2.792   3.734   9.605 -0.7276 -0.7930  0.8520
 4234TIP3    H236898   2.747   3.628   9.507 -1.0799  0.0879  0.0586
 4235TIP3   OH236899   0.431   3.726   9.056 -0.1054 -0.1977 -0.5395
 4235TIP3    H136900   0.343   3.734   9.018 -0.4561 -0.0571  0.2803
 4235TIP3    H236901   0.431   3.788   9.129  0.8915  0.2581 -0.9116
 4236TIP3   OH236902   5.690   3.923   8.457 -0.4340  0.2173 -0.1411
 4236TIP3    H136903   5.699   3.994   8.520  2.3885  0.4507 -0.6545
 4236TIP3    H236904   5.683   3.844   8.510  0.6488  0.5276  0.4944
 4237TIP3   OH236905   0.866   2.761   1.523  0.5669 -0.4082 -0.4775
 4237TIP3    H136906   0.805   2.832   1.540  1.6884  0.6378 -0.6854
 4237TIP3    H236907   0.845   2.695   1.590  0.8686  1.0066  1.0834
 4238TIP3   OH236908   2.084   3.327   2.046  0.4395 -0.2912 -0.2535
 4238TIP3    H136909   2.087   3.401   2.107  0.9209 -0.2610 -0.3179
 4238TIP3    H236910   2.105   3.364   1.961  0.9808 -0.5551 -0.2363
 4239TIP3   OH236911   3.203   7.519   0.456 -0.1637 -0.0655 -0.2103
 4239TIP3    H136912   3.157   7.449   0.503  2.1673 -1.9413 -0.5266
 4239TIP3    H236913   3.273   7.545   0.515 -0.9655  2.0626 -0.1241
 4240TIP3   OH236914   6.231   6.183   7.015 -0.1654  0.6102  0.1875
 4240TIP3    H136915   6.136   6.190   7.009 -0.5163 -0.9834  2.3309
 4240TIP3    H236916   6.261   6.165   6.926 -2.1004 -0.7694 -0.2339
 4241TIP3   OH236917   3.211   3.608   2.876  0.6763  0.0416  0.5161
 4241TIP3    H136918   3.151   3.642   2.943  1.2165 -2.2357  2.2912
 4241TIP3    H236919   3.294   3.597   2.922  1.1629 -1.2666 -0.6000
 4242TIP3   OH236920   3.589   4.489   7.910 -0.1336  0.4994 -0.6415
 4242TIP3    H136921   3.657   4.515   7.972  0.8596 -0.4211 -1.3182
 4242TIP3    H236922   3.513   4.541   7.935 -0.6292 -1.6689  3.0599
 4243TIP3   OH236923   6.666   1.721   1.018 -0.5229  0.1128 -0.3155
 4243TIP3    H136924   6.671   1.759   0.930 -1.4543 -0.6290 -0.7036
 4243TIP3    H236925   6.640   1.630   1.004  1.9744 -0.8365  0.5644
 4244TIP3   OH236926   0.852   0.228   8.518 -0.2110  0.3174  0.0131
 4244TIP3    H136927   0.822   0.259   8.432  0.9708  1.4910 -0.0244
 4244TIP3    H236928   0.786   0.259   8.579 -1.4712 -1.1977 -0.5230
 4245TIP3   OH236929   1.046   5.089   0.955 -0.4757 -0.3988 -0.0263
 4245TIP3    H136930   0.970   5.104   1.012  0.7371 -0.6220  1.7327
 4245TIP3    H236931   1.009   5.051   0.875 -2.2754  0.1649  0.4801
 4246TIP3   OH236932   6.409   6.917   0.554  1.0126 -0.3249  0.0634
 4246TIP3    H136933   6.486   6.972   0.543  0.9903 -0.3167 -0.0537
 4246TIP3    H236934   6.364   6.921   0.470  1.2279 -0.8547 -0.0791
 4247TIP3   OH236935   2.281   4.049   2.762 -0.2561 -0.0660  0.3977
 4247TIP3    H136936   2.238   3.978   2.810  2.3197 -1.7230  0.4828
 4247TIP3    H236937   2.305   4.112   2.829 -0.2773 -0.3838  0.7082
 4248TIP3   OH236938   6.236   2.150   9.902 -0.2292 -0.3522 -0.3680
 4248TIP3    H136939   6.146   2.119   9.908 -0.8727  1.4296 -0.2914
 4248TIP3    H236940   6.252   2.193   9.986  0.8364 -0.9974 -0.2277
 4249TIP3   OH236941   1.758   5.855   7.953  0.0402  0.1176  0.0446
 4249TIP3    H136942   1.775   5.766   7.983 -1.5165 -0.2212  0.0232
 4249TIP3    H236943   1.816   5.910   8.006  1.7218 -0.9499 -0.5947
 4250TIP3   OH236944   4.707   3.501   9.377 -0.3272 -0.5914 -0.9470
 4250TIP3    H136945   4.612   3.494   9.390 -0.2230 -1.0657 -0.4200
 4250TIP3    H236946   4.743   3.425   9.422  0.3364 -0.1753 -0.7635
 4251TIP3   OH236947   4.321   0.679   8.176  0.2977  0.1668  0.8755
 4251TIP3    H136948   4.364   0.762   8.155 -0.1643  0.6374  1.7534
 4251TIP3    H236949   4.264   0.699   8.250 -1.7988 -0.3290 -0.5089
 4252TIP3   OH236950   6.951   1.955   1.941  0.2324 -0.3569 -0.4336
 4252TIP3    H136951   7.019   1.887   1.932 -0.3231 -1.0239  0.2377
 4252TIP3    H236952   6.997   2.029   1.981  0.7762 -0.4523 -0.8649
 4253TIP3   OH236953   3.530   6.172   8.569 -0.3627 -0.7970  0.0327
 4253TIP3    H136954   3.534   6.122   8.651 -2.0796 -1.5642 -0.3029
 4253TIP3    H236955   3.517   6.262   8.597 -1.4281 -1.1145  0.6409
 4254TIP3   OH236956   1.515   3.532   1.834 -0.6160 -0.3452  0.2438
 4254TIP3    H136957   1.420   3.536   1.841 -0.5147 -0.3876  1.9598
 4254TIP3    H236958   1.541   3.621   1.811 -0.9950  0.0050  1.1087
 4255TIP3   OH236959   5.426   0.370   1.582 -0.3294  0.1749  0.2281
 4255TIP3    H136960   5.513   0.384   1.620 -0.2299 -0.0611  0.0918
 4255TIP3    H236961   5.376   0.447   1.607  0.1627  0.7053 -0.3758
 4256TIP3   OH236962   2.505   3.348   1.207  0.1412  0.0109 -0.5238
 4256TIP3    H136963   2.590   3.346   1.252 -0.5293 -0.7469  0.7590
 4256TIP3    H236964   2.462   3.267   1.233 -1.3862  0.8457 -0.3281
 4257TIP3   OH236965   2.931   5.843   1.088  0.3803 -0.0651  0.1210
 4257TIP3    H136966   2.942   5.760   1.041 -2.2043  0.1777 -1.0691
 4257TIP3    H236967   2.958   5.824   1.177  2.7514 -1.3169 -0.7540
 4258TIP3   OH236968   0.279   6.817   9.166 -0.0695 -0.6834 -0.3412
 4258TIP3    H136969   0.358   6.810   9.219  0.5709  0.3402 -1.1240
 4258TIP3    H236970   0.213   6.853   9.224  0.3639 -0.4467  0.0060
 4259TIP3   OH236971   3.223   1.857   8.657 -0.2222  0.5007  0.0085
 4259TIP3    H136972   3.166   1.917   8.705  0.8111  1.2000  0.4141
 4259TIP3    H236973   3.281   1.915   8.606  1.4539 -0.0880  1.1652
 4260TIP3   OH236974   5.669   7.445   6.834  0.4596 -0.3214 -0.0082
 4260TIP3    H136975   5.708   7.406   6.913  1.4862 -0.5656 -0.6220
 4260TIP3    H236976   5.700   7.389   6.762  0.1826  0.3638 -0.6695
 4261TIP3   OH236977   5.152   5.262   8.795 -0.0182 -0.7356 -0.2314
 4261TIP3    H136978   5.232   5.310   8.774 -0.4943  0.7368  1.0992
 4261TIP3    H236979   5.096   5.327   8.838 -1.0710 -2.2840  0.8419
 4262TIP3   OH236980   6.628   6.531   6.656  0.2224 -0.8165  0.0718
 4262TIP3    H136981   6.578   6.599   6.702  0.1008  0.2499 -1.5235
 4262TIP3    H236982   6.590   6.449   6.687 -2.2484 -0.0770 -0.6865
 4263TIP3   OH236983   5.386   1.550   9.694  0.4118 -0.1706 -0.2099
 4263TIP3    H136984   5.402   1.501   9.614  1.0168  1.4835 -1.1572
 4263TIP3    H236985   5.292   1.569   9.692  0.6482  1.0120 -1.2593
 4264TIP3   OH236986   7.454   5.836   1.637  0.6998 -0.8185 -0.3396
 4264TIP3    H136987   7.372   5.887   1.639  0.3750 -1.1141  4.3467
 4264TIP3    H236988   7.510   5.885   1.577 -2.2069  0.4755 -2.2594
 4265TIP3   OH236989   0.603   5.742   7.675 -0.2330  0.0314  0.8418
 4265TIP3    H136990   0.520   5.708   7.710  0.2567 -1.0098  1.0376
 4265TIP3    H236991   0.670   5.695   7.724  0.4678 -0.2038 -0.3086
 4266TIP3   OH236992   7.679   5.471   9.108 -0.0418 -0.5283 -0.6138
 4266TIP3    H136993   7.608   5.407   9.099  0.4087 -0.8566 -2.1613
 4266TIP3    H236994   7.635   5.555   9.116 -0.6796 -1.0270  2.3118
 4267TIP3   OH236995   5.627   2.316   7.796  0.1328  0.1277  0.5389
 4267TIP3    H136996   5.539   2.280   7.792  0.7098 -1.2313 -1.4436
 4267TIP3    H236997   5.631   2.378   7.723  0.6780  0.5432  0.9102
 4268TIP3   OH236998   4.480   5.275   7.635  0.2911 -0.4871  0.4029
 4268TIP3    H136999   4.413   5.214   7.602 -0.1501  1.1375 -1.9401
 4268TIP3    H237000   4.559   5.222   7.643  0.1787 -1.2550 -2.5444
 4269TIP3   OH237001   5.921   7.658   9.655 -0.2061  0.1781 -0.4317
 4269TIP3    H137002   5.889   7.700   9.734 -0.5934 -0.8693 -0.0064
 4269TIP3    H237003   5.951   7.730   9.599 -0.1668  0.9473  0.5522
 4270TIP3   OH237004   0.103   2.049   8.424  0.6328  0.0149  0.3883
 4270TIP3    H137005   0.131   2.046   8.333 -0.1881 -0.1147  0.1258
 4270TIP3    H237006   0.028   1.989   8.428 -0.0655  0.8807  0.8710
 4271TIP3   OH237007   0.621   0.183   0.577 -0.3212 -0.2167 -0.5720
 4271TIP3    H137008   0.579   0.198   0.662  1.1932 -1.6136  0.4787
 4271TIP3    H237009   0.562   0.123   0.531 -0.5422 -0.4370 -0.0035
 4272TIP3   OH237010   2.113   3.123   7.019  0.3730 -0.0889  0.1130
 4272TIP3    H137011   2.183   3.085   7.072  1.1222 -0.7076 -1.2550
 4272TIP3    H237012   2.157   3.185   6.961 -0.4799  0.8589  0.4438
 4273TIP3   OH237013   0.729   6.217   9.129  0.1926 -0.1460 -0.3524
 4273TIP3    H137014   0.781   6.223   9.049  0.6191  0.0170 -0.0690
 4273TIP3    H237015   0.645   6.180   9.101  0.5670 -0.6907 -0.7766
 4274TIP3   OH237016   7.409   2.112   2.071 -0.1164 -0.4081 -0.1494
 4274TIP3    H137017   7.422   2.037   2.130  4.0606 -0.5415 -0.9137
 4274TIP3    H237018   7.445   2.082   1.987  0.2013  1.9195 -0.8998
 4275TIP3   OH237019   0.238   4.611   0.948  0.1091  0.2398  0.0023
 4275TIP3    H137020   0.252   4.660   0.867  0.4920  1.3116  0.6969
 4275TIP3    H237021   0.204   4.526   0.919 -2.3424  1.5130 -1.1510
 4276TIP3   OH237022   4.716   6.752   7.770 -0.1903 -0.3290  0.1347
 4276TIP3    H137023   4.732   6.700   7.691  0.3284 -0.2543  0.1907
 4276TIP3    H237024   4.724   6.690   7.842 -2.4311 -0.8019  0.0530
 4277TIP3   OH237025   2.849   0.952   0.770 -0.3011 -0.4540 -0.0663
 4277TIP3    H137026   2.900   0.904   0.704  0.1214  0.2411 -0.2528
 4277TIP3    H237027   2.888   0.926   0.854  0.3058 -0.0108 -0.2021
 4278TIP3   OH237028   6.285   6.954   6.864  0.1003 -0.1063 -0.9129
 4278TIP3    H137029   6.192   6.971   6.871  0.0832 -0.5113 -0.1489
 4278TIP3    H237030   6.327   7.036   6.889 -0.0148 -0.6530  1.2583
 4279TIP3   OH237031   3.250   4.573   1.008  0.1567 -0.1106  0.5513
 4279TIP3    H137032   3.277   4.514   1.079 -1.5000  0.2291  1.5125
 4279TIP3    H237033   3.175   4.529   0.967  0.5386  0.1232 -0.4389
 4280TIP3   OH237034   5.255   7.290   1.489  0.0941 -0.5374  0.1996
 4280TIP3    H137035   5.282   7.200   1.506 -2.3012 -2.0181 -2.9346
 4280TIP3    H237036   5.331   7.331   1.449  1.0105 -1.3234  1.0914
 4281TIP3   OH237037   7.108   2.217   2.332  0.4670  0.1882  0.4499
 4281TIP3    H137038   7.172   2.242   2.265 -0.2716 -0.8050 -0.6629
 4281TIP3    H237039   7.026   2.206   2.284 -0.3391  0.5040  1.7000
 4282TIP3   OH237040   4.149   4.249   9.014  0.1191  0.3597  0.1443
 4282TIP3    H137041   4.213   4.302   8.967  1.0824 -1.7008 -0.9872
 4282TIP3    H237042   4.087   4.221   8.946 -1.4925  1.4985  1.0533
 4283TIP3   OH237043   1.382   2.066   1.003 -0.6680  0.2598  0.0603
 4283TIP3    H137044   1.340   2.019   0.931 -2.7144  0.6300  0.9722
 4283TIP3    H237045   1.320   2.063   1.075  1.1936  0.1819  1.7612
 4284TIP3   OH237046   7.527   4.936   0.268 -0.0331  0.9912  0.4619
 4284TIP3    H137047   7.518   5.022   0.227  1.1539  1.3861  0.9819
 4284TIP3    H237048   7.538   4.875   0.195 -0.7755  1.2852  0.0956
 4285TIP3   OH237049   6.949   3.184   9.599 -0.4527 -0.1783  0.3504
 4285TIP3    H137050   7.007   3.146   9.533  0.5214  1.8010 -0.0124
 4285TIP3    H237051   6.870   3.209   9.550 -1.7687 -2.9672  0.8625
 4286TIP3   OH237052   2.514   5.167   8.811 -0.1706 -0.0454 -0.0165
 4286TIP3    H137053   2.585   5.198   8.755 -0.2902  0.0060 -0.1375
 4286TIP3    H237054   2.559   5.136   8.890  0.0102 -0.2465 -0.1952
 4287TIP3   OH237055   3.522   5.317   0.693  0.1596  0.2591  0.0086
 4287TIP3    H137056   3.546   5.409   0.679  1.9436 -0.2446 -0.4243
 4287TIP3    H237057   3.472   5.293   0.615 -0.0210  0.7548 -0.0326
 4288TIP3   OH237058   1.435   3.556   9.395  0.7613  0.2512  0.3349
 4288TIP3    H137059   1.347   3.592   9.381  0.1970 -1.3153 -0.3286
 4288TIP3    H237060   1.421   3.477   9.447  1.8043  0.1276  0.4470
 4289TIP3   OH237061   2.236   0.643   7.177 -0.3491  0.1034 -0.1643
 4289TIP3    H137062   2.216   0.681   7.092 -1.3042 -0.4204 -0.1859
 4289TIP3    H237063   2.250   0.550   7.159 -1.6725 -0.2294  0.3789
 4290TIP3   OH237064   2.937   0.519   8.324  0.2241 -0.2422 -0.8043
 4290TIP3    H137065   2.845   0.496   8.333 -0.4116  1.8701 -1.2626
 4290TIP3    H237066   2.978   0.443   8.282 -0.9951 -1.7606  0.6153
 4291TIP3   OH237067   3.448   0.687   9.871  0.0052 -0.4107 -0.1914
 4291TIP3    H137068   3.450   0.670   9.965 -0.8455  0.9239  0.1024
 4291TIP3    H237069   3.448   0.783   9.865  1.0352 -0.4783 -1.5879
 4292TIP3   OH237070   6.768   0.806   2.013  0.0569 -0.0887  0.0686
 4292TIP3    H137071   6.735   0.717   2.004 -0.2945  0.1412 -0.9803
 4292TIP3    H237072   6.856   0.802   1.976 -1.0498  0.6465 -2.8594
 4293TIP3   OH237073   5.791   7.572   0.360  0.1145 -0.1457 -0.0056
 4293TIP3    H137074   5.805   7.661   0.328 -1.4118  0.2896  0.4326
 4293TIP3    H237075   5.867   7.554   0.414 -0.0796  1.3618  0.8406
 4294TIP3   OH237076   7.434   4.887   7.389 -0.0030 -0.2384 -0.3685
 4294TIP3    H137077   7.402   4.978   7.389 -0.4487 -0.3830  0.8453
 4294TIP3    H237078   7.441   4.864   7.481 -2.2791 -2.2801 -0.6378
 4295TIP3   OH237079   6.273   7.666   9.663 -0.0305  0.2571  0.8118
 4295TIP3    H137080   6.313   7.624   9.587 -0.1015  0.4950  0.6405
 4295TIP3    H237081   6.298   7.611   9.737  0.4551  0.2980  0.6821
 4296TIP3   OH237082   5.781   4.406   8.114  0.2954  0.5846 -0.8293
 4296TIP3    H137083   5.806   4.494   8.087  1.8096  0.1488 -0.9564
 4296TIP3    H237084   5.799   4.351   8.038 -0.3009  0.1010 -0.6343
 4297TIP3   OH237085   7.391   1.414   0.075  0.1065 -0.2037 -0.1826
 4297TIP3    H137086   7.484   1.397   0.089 -0.1067  0.0680  1.9247
 4297TIP3    H237087   7.347   1.332   0.099 -0.2844  0.1658  0.4014
 4298TIP3   OH237088   3.032   7.043   8.266  0.2539 -0.0443 -0.0434
 4298TIP3    H137089   3.045   7.136   8.286 -0.8451  1.1775 -4.1057
 4298TIP3    H237090   3.100   7.023   8.201  1.8805 -2.8433  2.2873
 4299TIP3   OH237091   5.400   7.170   1.860  0.3035  0.6488  0.0208
 4299TIP3    H137092   5.429   7.145   1.948 -0.0429  0.5991  0.1219
 4299TIP3    H237093   5.382   7.088   1.816  0.2867  0.6809 -0.0326
 4300TIP3   OH237094   5.422   6.329   9.615 -0.6112 -0.3841 -0.3965
 4300TIP3    H137095   5.496   6.280   9.651 -0.2534 -0.5268 -1.3159
 4300TIP3    H237096   5.356   6.327   9.685  0.7505  0.9443  0.9830
 4301TIP3   OH237097   2.394   6.296   0.071 -0.0229 -0.3402 -0.3333
 4301TIP3    H137098   2.457   6.226   0.053 -0.4632 -0.7203 -0.4163
 4301TIP3    H237099   2.448   6.374   0.083  0.5076 -0.8072  0.3538
 4302TIP3   OH237100   1.507   0.678   9.591 -0.2144  0.0074  0.0782
 4302TIP3    H137101   1.460   0.734   9.653 -2.0507  0.4785 -1.6446
 4302TIP3    H237102   1.570   0.630   9.645  0.0935  2.3002  1.8978
 4303TIP3   OH237103   4.305   6.060   7.966  0.5141 -0.4755 -0.4294
 4303TIP3    H137104   4.220   6.090   7.933  0.1307  0.0755  1.0001
 4303TIP3    H237105   4.369   6.105   7.910 -0.1087 -1.6779 -2.1720
 4304TIP3   OH237106   4.239   1.956   0.355 -0.7274  0.2131  0.4689
 4304TIP3    H137107   4.227   1.879   0.410 -2.6336 -0.5071 -0.8466
 4304TIP3    H237108   4.319   1.938   0.306 -0.3642 -0.2638  1.2282
 4305TIP3   OH237109   2.387   4.028   8.693 -0.2804 -0.4740  0.1141
 4305TIP3    H137110   2.411   4.001   8.781  0.4885 -0.7952 -0.1840
 4305TIP3    H237111   2.292   4.029   8.693 -0.2976  1.2439  1.4610
 4306TIP3   OH237112   2.554   7.514   1.298  0.4616  0.0746  0.3380
 4306TIP3    H137113   2.583   7.551   1.214  2.1514 -0.9894  0.3958
 4306TIP3    H237114   2.500   7.439   1.273 -0.5839  0.8437  0.2270
 4307TIP3   OH237115   0.445   4.345   1.805 -0.7174  0.4559 -0.2830
 4307TIP3    H137116   0.351   4.346   1.785 -0.9438  0.1427  0.6846
 4307TIP3    H237117   0.463   4.255   1.832  0.1540  0.1868 -1.6619
 4308TIP3   OH237118   1.256   6.943   2.875  0.4060  0.4712 -0.3246
 4308TIP3    H137119   1.319   6.988   2.819 -0.0253 -0.6296 -1.7663
 4308TIP3    H237120   1.301   6.863   2.903  0.2317  0.4887  0.0150
 4309TIP3   OH237121   1.528   3.928   0.144 -0.0188 -0.3828  0.3691
 4309TIP3    H137122   1.482   4.010   0.129 -0.0465 -0.3270  0.7598
 4309TIP3    H237123   1.505   3.903   0.233  1.8415  0.3800  1.1092
 4310TIP3   OH237124   2.769   6.940   2.092  0.2506  0.4727 -0.0994
 4310TIP3    H137125   2.815   7.004   2.146  0.2535  1.1657 -0.8971
 4310TIP3    H237126   2.770   6.979   2.004  0.6587 -0.8436 -0.6932
 4311TIP3   OH237127   1.725   3.723   8.247 -0.3391 -0.1677 -0.3506
 4311TIP3    H137128   1.729   3.760   8.159 -1.3856  0.0532 -0.3182
 4311TIP3    H237129   1.796   3.765   8.294 -1.0166  1.2568 -0.5348
 4312TIP3   OH237130   2.519   0.042   9.967 -0.4498  0.1916 -0.3487
 4312TIP3    H137131   2.579  -0.032   9.976 -0.1483  0.2597 -1.6308
 4312TIP3    H237132   2.451   0.010   9.907 -1.3884  0.3177  0.6055
 4313TIP3   OH237133   7.000   7.433   0.401 -0.2222  0.1336 -0.2677
 4313TIP3    H137134   6.981   7.386   0.319 -1.5983  0.3037 -0.0807
 4313TIP3    H237135   6.981   7.524   0.380  2.2719  0.6544 -0.5771
 4314TIP3   OH237136   2.970   6.465   2.906  0.0619 -0.3337 -0.6119
 4314TIP3    H137137   2.880   6.494   2.922  0.2251  0.1386 -0.5410
 4314TIP3    H237138   3.022   6.513   2.971  0.4444 -0.1152 -1.0767
 4315TIP3   OH237139   1.906   6.423   2.014  0.0962 -1.1136 -0.3498
 4315TIP3    H137140   1.949   6.402   2.096 -0.3504 -0.4990  0.0548
 4315TIP3    H237141   1.974   6.416   1.947  1.0663  0.7636  0.3907
 4316TIP3   OH237142   1.844   0.066   3.042 -0.1229 -0.3626 -0.5091
 4316TIP3    H137143   1.806  -0.018   3.017 -0.4976 -0.7824  1.3000
 4316TIP3    H237144   1.768   0.122   3.060  0.0371 -0.7817  1.7821
 4317TIP3   OH237145   1.629   3.703   2.619 -0.0642  0.4889 -0.5877
 4317TIP3    H137146   1.644   3.777   2.677  0.7064 -0.9075  1.1189
 4317TIP3    H237147   1.541   3.672   2.641  0.1704  0.0528 -0.2150
 4318TIP3   OH237148   0.431   1.463   0.176 -0.3379 -0.8512  0.2911
 4318TIP3    H137149   0.387   1.469   0.261  0.5372 -2.1766  0.8875
 4318TIP3    H237150   0.497   1.532   0.178 -1.1660 -0.0310  0.1316
 4319TIP3   OH237151   3.067   2.329   9.322  0.2366  0.4403 -0.5105
 4319TIP3    H137152   2.984   2.360   9.285  0.3035  0.1204 -0.9235
 4319TIP3    H237153   3.102   2.406   9.367 -1.4170  0.0191  1.7418
 4320TIP3   OH237154   1.417   0.854   1.870  0.2148  0.0928  0.2106
 4320TIP3    H137155   1.425   0.759   1.868  0.9526  0.1465  0.0203
 4320TIP3    H237156   1.396   0.878   1.780  0.8108  0.1576  0.0814
 4321TIP3   OH237157   1.460   2.953   9.149  0.5919  0.1311  0.3852
 4321TIP3    H137158   1.416   2.873   9.120  2.3124 -1.1640  1.1761
 4321TIP3    H237159   1.534   2.962   9.089 -1.3887  3.1320 -1.9344
 4322TIP3   OH237160   4.438   5.958   9.873  0.0898 -0.2661 -0.2676
 4322TIP3    H137161   4.426   5.901   9.949 -0.3132 -2.4767 -1.8824
 4322TIP3    H237162   4.526   5.994   9.882  0.4526 -1.3612  0.6748
 4323TIP3   OH237163   4.937   7.296   8.753  0.1952 -0.3976 -0.1768
 4323TIP3    H137164   5.008   7.245   8.793  0.3984  0.5923  0.7800
 4323TIP3    H237165   4.876   7.310   8.824 -1.2113 -1.5855 -1.0890
 4324TIP3   OH237166   3.493   6.970   3.113 -0.1281  0.1704  0.8701
 4324TIP3    H137167   3.513   7.039   3.050  1.4935 -0.6632  0.4192
 4324TIP3    H237168   3.418   7.003   3.162 -0.7276  1.3186 -0.7495
 4325TIP3   OH237169   6.562   5.674   9.678 -0.0778 -0.1987 -0.3127
 4325TIP3    H137170   6.608   5.740   9.729 -0.2332 -0.5817  0.3303
 4325TIP3    H237171   6.574   5.592   9.727 -1.5607 -0.2870 -0.0429
 4326TIP3   OH237172   1.793   2.786   9.022 -0.2215  0.3434 -0.2587
 4326TIP3    H137173   1.808   2.751   9.109 -0.1383 -0.0766 -0.4392
 4326TIP3    H237174   1.877   2.774   8.977 -0.3446  0.3044 -0.4804
 4327TIP3   OH237175   4.553   2.494   9.871 -0.6571  0.0010 -0.7353
 4327TIP3    H137176   4.609   2.547   9.928  0.4802 -1.6410 -0.2562
 4327TIP3    H237177   4.611   2.464   9.801 -1.1862 -0.8745 -0.8153
 4328TIP3   OH237178   6.059   2.501   7.923  0.0872  0.0443 -0.1620
 4328TIP3    H137179   6.138   2.536   7.963 -1.5632  0.3684  3.1410
 4328TIP3    H237180   5.989   2.561   7.949 -1.4635 -0.7878 -2.0684
 4329TIP3   OH237181   1.999   2.449   7.228 -0.3038 -0.0744 -0.6749
 4329TIP3    H137182   2.068   2.454   7.161  1.3968  0.4647  1.0030
 4329TIP3    H237183   1.957   2.535   7.225  1.3069  0.8127  0.4101
 4330TIP3   OH237184   4.816   2.890   6.939  0.2915 -0.1334  0.1303
 4330TIP3    H137185   4.887   2.834   6.907 -1.2708 -1.6520 -0.8032
 4330TIP3    H237186   4.819   2.967   6.882 -0.1389 -1.1535 -1.2977
 4331TIP3   OH237187   1.225   5.009   0.377  0.2365  0.2093 -0.1104
 4331TIP3    H137188   1.211   5.020   0.283  2.5088  0.3761 -0.4880
 4331TIP3    H237189   1.232   5.099   0.411 -2.8203  0.2350  0.6766
 4332TIP3   OH237190   5.227   4.353   8.551 -0.4488  0.0314 -0.1203
 4332TIP3    H137191   5.138   4.339   8.519 -0.4930 -0.1718  0.0822
 4332TIP3    H237192   5.279   4.285   8.507 -0.1218  1.0319 -1.3289
 4333TIP3   OH237193   4.192   0.273   0.624  0.6494 -0.1358  0.3463
 4333TIP3    H137194   4.202   0.317   0.539 -0.1060 -2.3645 -0.9611
 4333TIP3    H237195   4.098   0.274   0.641  0.4860 -2.1224 -0.2485
 4334TIP3   OH237196   1.428   2.323   8.054  0.0790  0.0147 -0.4924
 4334TIP3    H137197   1.517   2.287   8.054 -0.2331 -0.7741 -0.2615
 4334TIP3    H237198   1.404   2.328   8.146 -0.0887  0.3207 -0.5499
 4335TIP3   OH237199   5.626   2.680   7.199 -0.4945  0.2269  0.0817
 4335TIP3    H137200   5.629   2.733   7.278 -1.9757  0.1843  0.2064
 4335TIP3    H237201   5.536   2.646   7.197 -0.4934  0.2341 -1.6142
 4336TIP3   OH237202   0.820   4.494   1.999  0.3008  0.2678 -0.5162
 4336TIP3    H137203   0.835   4.562   2.064  1.4149  0.9993 -1.4822
 4336TIP3    H237204   0.907   4.461   1.978  0.0586  0.5700 -2.1369
 4337TIP3   OH237205   4.278   4.491   8.936 -0.4641  0.4137  0.9046
 4337TIP3    H137206   4.328   4.425   8.888 -0.4859  0.6100  0.6113
 4337TIP3    H237207   4.337   4.521   9.005 -0.6309 -0.2760  1.3573
 4338TIP3   OH237208   7.361   1.160   8.078  0.6400  0.5747 -0.0442
 4338TIP3    H137209   7.295   1.178   8.146  0.7330  0.6254  0.0332
 4338TIP3    H237210   7.372   1.243   8.033  0.1710  0.3992 -0.4824
 4339TIP3   OH237211   0.675   1.858   7.555 -0.2072 -0.3987  0.5600
 4339TIP3    H137212   0.650   1.922   7.489 -0.1830  1.6632  2.4387
 4339TIP3    H237213   0.731   1.796   7.508 -2.0391 -0.4039 -1.8396
 4340TIP3   OH237214   7.314   7.224   9.379  0.0668  0.3408 -0.7890
 4340TIP3    H137215   7.356   7.217   9.293 -0.3770 -0.4483 -0.9460
 4340TIP3    H237216   7.222   7.205   9.363 -0.0726  0.4910 -0.1845
 4341TIP3   OH237217   0.510   4.154   8.934  0.0606  0.0643  0.0374
 4341TIP3    H137218   0.581   4.115   8.884 -1.2227  0.0585 -1.8860
 4341TIP3    H237219   0.548   4.233   8.972  0.6343  1.1852 -2.6395
 4342TIP3   OH237220   3.117   7.158   0.342  0.5173 -0.3044  0.0315
 4342TIP3    H137221   3.177   7.193   0.408 -1.1968  1.2541  0.8426
 4342TIP3    H237222   3.121   7.221   0.270 -2.1663  1.5027  1.2713
 4343TIP3   OH237223   4.284   0.565   7.741 -0.3679 -0.2549 -0.1259
 4343TIP3    H137224   4.373   0.536   7.720 -0.5096 -0.6256 -0.2107
 4343TIP3    H237225   4.275   0.550   7.835  0.1471  1.0891  0.1655
 4344TIP3   OH237226   3.066   2.056   9.707  0.3822  0.6730  0.3552
 4344TIP3    H137227   3.041   2.148   9.698 -1.6002  0.1295 -0.3542
 4344TIP3    H237228   3.038   2.016   9.624  0.2582 -0.7496  1.0524
 4345TIP3   OH237229   6.215   4.340   9.563 -0.3727  0.1956  0.0859
 4345TIP3    H137230   6.142   4.401   9.565 -0.8168 -0.1421 -2.4952
 4345TIP3    H237231   6.239   4.335   9.471  1.8171 -1.0086  0.6608
 4346TIP3   OH237232   3.963   5.450   8.284  0.4231  0.1907 -0.4042
 4346TIP3    H137233   3.920   5.406   8.211 -1.0846 -1.7420  1.4827
 4346TIP3    H237234   3.906   5.524   8.305 -0.3226 -0.4894  0.0700
 4347TIP3   OH237235   5.339   3.934   7.962  0.5868 -0.1835  0.0820
 4347TIP3    H137236   5.392   3.919   8.041  0.2177  2.7504  1.0056
 4347TIP3    H237237   5.260   3.978   7.995  0.1129  0.5085 -1.8635
 4348TIP3   OH237238   3.731   3.255   0.086  0.2448  0.4017 -0.5046
 4348TIP3    H137239   3.677   3.244   0.007  0.9269  0.5776 -1.0017
 4348TIP3    H237240   3.811   3.296   0.055  0.7168  0.0477  0.2165
 4349TIP3   OH237241   3.588   2.271   0.236  0.4041  0.3627  0.1910
 4349TIP3    H137242   3.510   2.325   0.223  0.7199  1.0643  1.1485
 4349TIP3    H237243   3.584   2.206   0.165 -1.2960  0.1002  0.4805
 4350TIP3   OH237244   0.511   7.245   8.064  0.7342 -0.4879 -0.0850
 4350TIP3    H137245   0.585   7.200   8.105  1.0415 -0.8226 -0.9756
 4350TIP3    H237246   0.533   7.245   7.971  1.0299  2.0128 -0.0770
 4351TIP3   OH237247   6.027   4.759   9.029  0.2400  0.3531  0.1929
 4351TIP3    H137248   6.114   4.781   9.064  0.2134 -0.3766  0.7330
 4351TIP3    H237249   6.028   4.664   9.019 -0.4383  0.3583  0.0362
 4352TIP3   OH237250   0.051   3.024   2.269 -0.1842 -0.1818  0.2392
 4352TIP3    H137251   0.049   3.106   2.319  1.1185 -0.5283  0.9302
 4352TIP3    H237252   0.079   2.958   2.333  0.7146 -0.7940 -0.7423
 4353TIP3   OH237253   4.817   6.758   0.737  0.0888  0.0924  0.3686
 4353TIP3    H137254   4.781   6.697   0.673  0.4196 -0.4630  0.7071
 4353TIP3    H237255   4.743   6.779   0.794 -0.0168 -0.0126  0.2709
 4354TIP3   OH237256   1.698   6.817   0.280 -0.2054  0.1877 -0.7439
 4354TIP3    H137257   1.709   6.788   0.189 -0.8343  1.0323 -1.0983
 4354TIP3    H237258   1.786   6.846   0.306  0.1771 -0.9102 -0.7690
 4355TIP3   OH237259   6.145   0.828   2.394 -0.1266 -0.3014  0.1366
 4355TIP3    H137260   6.137   0.852   2.486 -1.9215  0.1460 -0.1048
 4355TIP3    H237261   6.099   0.897   2.347  0.6125 -0.6160 -1.1052
 4356TIP3   OH237262   0.319   2.106   2.087  0.5328  0.0805 -0.2519
 4356TIP3    H137263   0.320   2.123   1.993 -0.3306 -1.0586 -0.4958
 4356TIP3    H237264   0.261   2.030   2.097  0.2388  0.4674  1.2513
 4357TIP3   OH237265   1.828   5.256   8.117 -0.4133 -0.0240  0.1321
 4357TIP3    H137266   1.799   5.239   8.028 -0.5818 -0.3233  0.2446
 4357TIP3    H237267   1.888   5.331   8.109 -1.1662  0.5632 -0.1064
 4358TIP3   OH237268   4.323   2.972   7.500 -0.5432 -0.3502  0.2352
 4358TIP3    H137269   4.241   2.929   7.476 -0.2736 -1.4929  1.2656
 4358TIP3    H237270   4.391   2.912   7.469 -0.1599 -0.7175  1.6980
 4359TIP3   OH237271   7.410   3.892   8.410 -0.1053  0.2996  0.1179
 4359TIP3    H137272   7.489   3.910   8.358 -0.0237  0.1159  0.1760
 4359TIP3    H237273   7.438   3.825   8.473 -0.5770 -0.5566 -0.5502
 4360TIP3   OH237274   6.937   5.423   7.197  0.0271  0.0657  0.2784
 4360TIP3    H137275   6.993   5.500   7.205 -1.1664  1.0694 -0.5388
 4360TIP3    H237276   6.968   5.377   7.119 -1.3250  1.5848 -1.2327
 4361TIP3   OH237277   4.162   4.044   0.137 -0.1616 -0.4334 -0.8444
 4361TIP3    H137278   4.218   3.991   0.081  0.5141 -0.6803  0.0312
 4361TIP3    H237279   4.211   4.051   0.219 -1.3817 -0.5767 -0.0809
 4362TIP3   OH237280   0.386   2.090   8.379  0.4531 -0.2689  0.1988
 4362TIP3    H137281   0.298   2.059   8.402 -0.0314  2.5543  2.8194
 4362TIP3    H237282   0.443   2.051   8.444  0.5865  0.4513  0.5254
 4363TIP3   OH237283   5.887   1.063   0.051  0.6191 -0.2406  0.2120
 4363TIP3    H137284   5.852   1.055  -0.038 -0.1022  0.1761  0.4471
 4363TIP3    H237285   5.911   1.155   0.059  0.1495 -0.1487  0.6314
 4364TIP3   OH237286   6.320   2.289   8.915  0.4202 -0.2519  0.0830
 4364TIP3    H137287   6.329   2.280   9.010 -0.2672 -1.0504  0.0885
 4364TIP3    H237288   6.230   2.321   8.903 -0.3417 -2.4290 -0.3785
 4365TIP3   OH237289   5.845   2.021   1.608  0.4813  0.4076 -0.1492
 4365TIP3    H137290   5.902   2.053   1.678 -1.3630  1.5153  0.9369
 4365TIP3    H237291   5.820   1.933   1.636  0.8703  0.2924 -0.1512
 4366TIP3   OH237292   1.175   5.046   8.603 -0.0283 -0.5032  0.5370
 4366TIP3    H137293   1.149   5.139   8.609 -1.5085 -0.6664 -1.8297
 4366TIP3    H237294   1.207   5.036   8.514 -1.7199 -2.6382  0.0700
 4367TIP3   OH237295   2.825   0.395   0.494  0.2528 -0.5434  0.0402
 4367TIP3    H137296   2.845   0.319   0.549 -0.9793 -0.0074  1.2883
 4367TIP3    H237297   2.897   0.456   0.510 -0.1806 -0.3150  1.2499
 4368TIP3   OH237298   0.342   0.416   0.138  0.5383  0.5402 -0.1118
 4368TIP3    H137299   0.303   0.496   0.102  1.7822  1.5721  0.7835
 4368TIP3    H237300   0.308   0.411   0.227  1.5887  0.8657  0.3148
 4369TIP3   OH237301   1.428   2.270   1.761 -0.3313  0.2870  0.5296
 4369TIP3    H137302   1.466   2.209   1.825 -1.6678 -2.8023 -1.4031
 4369TIP3    H237303   1.353   2.309   1.807 -0.3703 -0.7254  1.3658
 4370TIP3   OH237304   1.321   3.086   8.027  0.1911 -0.4979 -0.3115
 4370TIP3    H137305   1.250   3.134   8.069 -0.4791 -0.2857 -1.6196
 4370TIP3    H237306   1.353   3.026   8.094 -0.1613  0.5166  0.7902
 4371TIP3   OH237307   1.401   2.556   0.467  0.2001 -0.5233  0.3751
 4371TIP3    H137308   1.439   2.548   0.380  1.9255 -0.2111  1.0495
 4371TIP3    H237309   1.436   2.638   0.501  0.4077 -1.1415  1.7356
 4372TIP3   OH237310   3.716   3.260   0.636 -0.4416 -0.2699 -0.1874
 4372TIP3    H137311   3.690   3.221   0.719 -0.3519 -3.7326 -1.6310
 4372TIP3    H237312   3.638   3.253   0.581  0.0533  0.2876 -0.9888
 4373TIP3   OH237313   0.808   5.060   7.890  0.5114 -0.0177 -0.6021
 4373TIP3    H137314   0.889   5.083   7.844  0.6761 -0.7389 -0.6841
 4373TIP3    H237315   0.745   5.046   7.820  0.3913  0.2545 -0.5489
 4374TIP3   OH237316   7.418   4.426   7.732  0.1001 -0.2616  0.5591
 4374TIP3    H137317   7.323   4.428   7.743 -0.0326 -3.3541  0.7124
 4374TIP3    H237318   7.452   4.398   7.817  1.0969 -0.0702  0.2407
 4375TIP3   OH237319   7.296   7.477   1.588 -0.3593 -0.0419  0.1579
 4375TIP3    H137320   7.349   7.445   1.661 -0.4279 -2.3160 -0.7100
 4375TIP3    H237321   7.209   7.491   1.626 -0.3050 -0.8505  0.6111
 4376TIP3   OH237322   3.753   6.969   2.966  0.0839 -0.7689 -0.6579
 4376TIP3    H137323   3.715   6.924   3.042  0.5692 -1.6063 -0.9050
 4376TIP3    H237324   3.739   7.062   2.984 -1.3620 -1.0244 -0.3628
 4377TIP3   OH237325   0.960   2.745   7.155  0.7350 -0.2574  0.1340
 4377TIP3    H137326   1.015   2.820   7.176  1.9298 -1.1600  0.3272
 4377TIP3    H237327   0.988   2.719   7.068  1.2085 -1.2264  0.5652
 4378TIP3   OH237328   7.184   3.213   2.482 -0.2595  0.0077  0.1013
 4378TIP3    H137329   7.099   3.178   2.456  0.5306 -2.4428  0.5656
 4378TIP3    H237330   7.224   3.143   2.534  0.9938  2.0824  2.1311
 4379TIP3   OH237331   0.032   0.212   7.413 -0.4879  0.2156 -0.0043
 4379TIP3    H137332   0.051   0.244   7.501  0.2070 -0.5263  0.1338
 4379TIP3    H237333   0.061   0.120   7.415 -2.2884 -0.3972 -0.4155
 4380TIP3   OH237334   4.071   6.364   9.553  0.3458 -0.0117 -0.4229
 4380TIP3    H137335   4.148   6.414   9.583  0.9269 -0.8838 -0.4124
 4380TIP3    H237336   4.096   6.331   9.467  0.2947 -0.9479 -0.0886
 4381TIP3   OH237337   2.259   0.341   8.730 -0.1189  0.2589  0.1125
 4381TIP3    H137338   2.248   0.246   8.726  0.5843  0.2080 -3.1589
 4381TIP3    H237339   2.177   0.373   8.770 -0.0757 -1.6859  1.9315
 4382TIP3   OH237340   1.746   2.126   1.928 -0.9835  0.5620  0.1943
 4382TIP3    H137341   1.657   2.091   1.922 -0.1602 -1.4291 -1.8169
 4382TIP3    H237342   1.801   2.050   1.947  0.3468  1.7574  1.4584
 4383TIP3   OH237343   0.023   6.134   7.160 -0.1373 -0.1504  0.3889
 4383TIP3    H137344   0.080   6.207   7.133  0.5377 -0.5185  0.7780
 4383TIP3    H237345   0.011   6.147   7.254 -1.6826  0.5823  0.1260
 4384TIP3   OH237346   1.563   5.258   7.546  0.4302 -0.4205 -0.0411
 4384TIP3    H137347   1.611   5.340   7.553 -0.0269 -0.2001  0.7553
 4384TIP3    H237348   1.599   5.203   7.616  0.6193 -0.8386 -0.4626
 4385TIP3   OH237349   4.921   2.218   8.174 -0.3234 -0.6504  0.8435
 4385TIP3    H137350   4.876   2.266   8.243 -1.5856 -0.6176  0.0241
 4385TIP3    H237351   5.005   2.193   8.213 -0.7422 -0.0804  2.1598
 4386TIP3   OH237352   0.387   5.504   7.689  0.0680 -0.3960 -0.3777
 4386TIP3    H137353   0.468   5.489   7.641 -1.3123 -0.9319 -2.7230
 4386TIP3    H237354   0.323   5.529   7.621 -1.6103  0.5100  1.4261
 4387TIP3   OH237355   1.170   3.404   8.915  0.1782 -0.2729 -0.5588
 4387TIP3    H137356   1.213   3.330   8.872  0.6529  1.3089 -3.0327
 4387TIP3    H237357   1.088   3.369   8.947  0.4129 -1.9099 -1.6371
 4388TIP3   OH237358   0.379   0.797   0.667  0.3181 -0.1216  0.1622
 4388TIP3    H137359   0.470   0.814   0.693  0.2062 -0.9251  1.1506
 4388TIP3    H237360   0.343   0.747   0.739 -0.8899  0.0805 -0.2824
 4389TIP3   OH237361   2.835   5.371   9.690  0.2425  0.0717  0.4799
 4389TIP3    H137362   2.781   5.448   9.673 -0.6766 -0.4916  0.7411
 4389TIP3    H237363   2.918   5.406   9.722  0.4019  1.0001 -0.8559
 4390TIP3   OH237364   4.608   1.851   9.505  0.1063 -0.3127 -0.6079
 4390TIP3    H137365   4.585   1.838   9.597  0.2430 -1.2395 -0.6958
 4390TIP3    H237366   4.636   1.942   9.500 -1.2797  0.1667 -0.0313
 4391TIP3   OH237367   3.457   0.236   0.662  0.3718 -0.0164 -0.0211
 4391TIP3    H137368   3.501   0.310   0.704  0.0018  0.7666 -0.9548
 4391TIP3    H237369   3.439   0.175   0.733  1.5147  0.3704  0.6242
 4392TIP3   OH237370   7.252   3.602   8.546 -0.1539  0.4751 -0.8286
 4392TIP3    H137371   7.253   3.677   8.606  0.3606  0.4787 -0.8347
 4392TIP3    H237372   7.160   3.587   8.527 -0.2388  1.4211 -1.2123
 4393TIP3   OH237373   3.965   1.889   9.567  0.4106  0.0119  0.5413
 4393TIP3    H137374   3.898   1.901   9.635  1.8597 -0.9958  2.2211
 4393TIP3    H237375   3.915   1.878   9.486 -1.3566  2.2506  1.2316
 4394TIP3   OH237376   6.804   3.523   9.394  0.1359 -0.2924  0.3462
 4394TIP3    H137377   6.782   3.431   9.408  1.0557 -0.6574 -0.5301
 4394TIP3    H237378   6.832   3.528   9.302  0.4471  0.7897  0.4803
 4395TIP3   OH237379   7.630   2.281   0.568  0.3727 -0.0203  0.1908
 4395TIP3    H137380   7.583   2.356   0.532  1.7036  1.0730  0.6177
 4395TIP3    H237381   7.689   2.254   0.498  0.6524  0.0197  0.4101
 4396TIP3   OH237382   7.482   0.594   1.379 -0.5038  0.1246 -0.0076
 4396TIP3    H137383   7.543   0.583   1.453  0.6756  4.2261 -0.1180
 4396TIP3    H237384   7.468   0.505   1.347  0.4296 -1.6755  3.9183
 4397TIP3   OH237385   2.483   3.592   8.693 -0.7516  0.0231 -0.6209
 4397TIP3    H137386   2.431   3.665   8.725 -1.5064  1.3246 -4.3319
 4397TIP3    H237387   2.424   3.517   8.696  0.0187 -0.6742  3.1814
 4398TIP3   OH237388   3.168   6.591   7.534 -0.6156  0.3291  0.5378
 4398TIP3    H137389   3.084   6.637   7.530  0.2027  1.9067  0.5541
 4398TIP3    H237390   3.203   6.597   7.445 -0.7837 -0.9002  0.3691
 4399TIP3   OH237391   5.617   0.819   0.676  0.4362  0.3378  0.1843
 4399TIP3    H137392   5.550   0.779   0.621  3.2480 -2.1045 -1.7641
 4399TIP3    H237393   5.578   0.822   0.763 -2.2265 -0.7295 -0.8642
 4400TIP3   OH237394   3.542   0.038   2.139  0.7886 -0.4165  0.0905
 4400TIP3    H137395   3.591   0.010   2.217  0.7183  0.5481  0.4961
 4400TIP3    H237396   3.597   0.106   2.099 -0.3471  0.9508  0.7583
 4401TIP3   OH237397   3.628   5.751   9.945 -0.3014  0.4942 -0.3688
 4401TIP3    H137398   3.615   5.724   9.854 -1.3492  2.5922 -0.9181
 4401TIP3    H237399   3.688   5.826   9.940  0.0232  0.3347  0.7306
 4402TIP3   OH237400   4.856   6.873   8.065 -0.6441  0.0670  0.1257
 4402TIP3    H137401   4.767   6.908   8.065 -0.0770  1.9221  3.1115
 4402TIP3    H237402   4.911   6.946   8.037  0.1854  0.2286  1.9754
 4403TIP3   OH237403   2.557   0.024   2.386  0.1881  0.0295  1.1369
 4403TIP3    H137404   2.503  -0.051   2.409  0.5957 -1.2103 -1.6097
 4403TIP3    H237405   2.498   0.081   2.337  0.5831  0.1943  0.8575
 4404TIP3   OH237406   5.689   6.569   2.086  0.1262 -0.7515 -0.5793
 4404TIP3    H137407   5.599   6.536   2.087 -1.1479  2.3893 -0.8661
 4404TIP3    H237408   5.723   6.549   2.173 -1.1184 -1.2775 -0.1924
 4405TIP3   OH237409   1.512   7.591   7.239 -0.3151  0.0059 -0.1432
 4405TIP3    H137410   1.483   7.507   7.206 -0.3879  0.7685 -2.1182
 4405TIP3    H237411   1.606   7.593   7.221 -0.1060 -0.0741  0.8849
 4406TIP3   OH237412   4.215   5.048   8.862  0.2513 -0.3499  0.6689
 4406TIP3    H137413   4.270   5.090   8.928 -0.7584  0.3741  1.0744
 4406TIP3    H237414   4.269   5.047   8.783  0.6303  0.9193  0.8901
 4407TIP3   OH237415   5.077   0.607   7.997  0.7599  0.2152  0.1586
 4407TIP3    H137416   5.150   0.666   8.017 -0.1754  1.4097  0.1706
 4407TIP3    H237417   5.005   0.666   7.974 -0.5878 -0.8860  1.4363
 4408TIP3   OH237418   4.038   2.666   1.139 -0.2862 -0.1903  0.0843
 4408TIP3    H137419   4.123   2.645   1.180 -0.3910  0.1941  0.5040
 4408TIP3    H237420   4.051   2.751   1.097 -0.3073 -0.3843 -0.3204
 4409TIP3   OH237421   2.033   5.802   1.369 -0.3741  0.0446 -0.2381
 4409TIP3    H137422   1.998   5.744   1.436 -1.2126  0.0247 -0.6755
 4409TIP3    H237423   1.957   5.827   1.316  0.2541  0.0729 -1.1661
 4410TIP3   OH237424   4.913   2.668   8.774  0.0488  0.2199 -0.0903
 4410TIP3    H137425   4.904   2.582   8.815 -0.3247  0.8341  1.1672
 4410TIP3    H237426   4.832   2.714   8.797 -0.2073  0.5732 -1.6049
 4411TIP3   OH237427   7.259   7.555   8.067 -0.2758 -0.2857 -0.0906
 4411TIP3    H137428   7.194   7.624   8.082 -1.8676 -1.7863  0.2883
 4411TIP3    H237429   7.311   7.553   8.147 -0.8406 -0.1556  0.2861
 4412TIP3   OH237430   0.182   1.779   0.328 -0.3672  0.0899 -0.1445
 4412TIP3    H137431   0.101   1.818   0.296 -0.1270  1.2410  0.6183
 4412TIP3    H237432   0.252   1.833   0.290  0.0342 -0.5857 -0.3911
 4413TIP3   OH237433   4.262   5.201   7.068  0.2707 -0.0264  0.1477
 4413TIP3    H137434   4.336   5.222   7.011  0.3324 -2.0258 -0.5831
 4413TIP3    H237435   4.293   5.130   7.124 -0.8940 -0.4757  0.2536
 4414TIP3   OH237436   3.318   6.676   7.327  0.0177 -0.4856  0.4239
 4414TIP3    H137437   3.371   6.643   7.255  0.0307 -2.0358  1.1134
 4414TIP3    H237438   3.358   6.760   7.350  0.9808 -0.7273 -0.3197
 4415TIP3   OH237439   0.664   3.943   7.345  0.1336  0.5371  0.2343
 4415TIP3    H137440   0.739   3.887   7.365  0.0370  1.0602  2.2357
 4415TIP3    H237441   0.624   3.902   7.268  2.1185 -0.0633 -0.5366
 4416TIP3   OH237442   7.026   6.098   2.518  0.0542 -0.3160  0.7986
 4416TIP3    H137443   7.049   6.038   2.589  0.6806 -0.6605  0.3133
 4416TIP3    H237444   6.933   6.114   2.529  0.1769 -0.2406  1.7956
 4417TIP3   OH237445   1.234   4.865   0.916 -0.7445  0.3978  0.0542
 4417TIP3    H137446   1.274   4.828   0.994  0.4036 -0.6222 -0.9591
 4417TIP3    H237447   1.186   4.942   0.946 -0.4335 -0.0490  1.7516
 4418TIP3   OH237448   4.883   0.117   1.922 -0.1862 -0.1330 -0.0408
 4418TIP3    H137449   4.974   0.143   1.932 -0.5015  0.1967  2.4973
 4418TIP3    H237450   4.836   0.199   1.903  0.0334 -0.3419 -1.6305
 4419TIP3   OH237451   6.418   3.309   7.567  0.0956 -0.6991  0.1788
 4419TIP3    H137452   6.493   3.340   7.515  0.1535  0.5657  0.9884
 4419TIP3    H237453   6.437   3.216   7.582  0.6061 -0.8273 -1.1409
 4420TIP3   OH237454   7.598   4.653   0.608 -0.1418  0.4265  0.1844
 4420TIP3    H137455   7.542   4.721   0.570 -1.1275 -0.6287 -0.3439
 4420TIP3    H237456   7.622   4.687   0.694 -0.0154  1.7368 -0.3438
 4421TIP3   OH237457   6.242   3.705   7.770 -0.0333  0.2704  0.0156
 4421TIP3    H137458   6.159   3.718   7.814  0.2212 -0.5657  0.7841
 4421TIP3    H237459   6.258   3.610   7.776 -0.4098 -0.0257 -2.6714
 4422TIP3   OH237460   7.046   1.830   2.458 -0.4392  0.0695  0.7098
 4422TIP3    H137461   7.131   1.864   2.431 -0.0396 -0.9277  0.6683
 4422TIP3    H237462   7.018   1.888   2.529 -0.2098  1.0274  0.0227
 4423TIP3   OH237463   1.797   1.105   3.014 -0.7280  0.0121  0.2813
 4423TIP3    H137464   1.824   1.163   3.085 -0.7386  0.3287  0.0318
 4423TIP3    H237465   1.728   1.050   3.052 -0.8407  0.2840  0.4726
 4424TIP3   OH237466   0.522   1.476   9.563 -0.2490  0.0258 -0.5991
 4424TIP3    H137467   0.570   1.454   9.642 -0.2498  0.4324 -0.4806
 4424TIP3    H237468   0.473   1.397   9.541 -1.3313  0.3254  0.5959
 4425TIP3   OH237469   2.553   7.287   9.370 -0.1580  0.3826 -0.1396
 4425TIP3    H137470   2.614   7.352   9.335  0.7902 -0.8818 -0.8835
 4425TIP3    H237471   2.563   7.293   9.465 -0.9205  2.0961 -0.1264
 4426TIP3   OH237472   2.225   3.045   0.415 -0.2825 -0.0588 -0.0049
 4426TIP3    H137473   2.241   3.027   0.508 -0.9114 -0.1907  0.0782
 4426TIP3    H237474   2.310   3.074   0.382 -0.3952  1.4605  0.9519
 4427TIP3   OH237475   7.402   6.804   1.627  0.8104 -0.0002  0.1281
 4427TIP3    H137476   7.325   6.833   1.579  0.0347  0.8675  1.8509
 4427TIP3    H237477   7.371   6.785   1.715  2.7359  1.3648  1.1705
 4428TIP3   OH237478   6.172   4.438   8.365  0.5126  0.4372 -0.6720
 4428TIP3    H137479   6.129   4.428   8.281 -0.0280 -0.1180 -0.3302
 4428TIP3    H237480   6.213   4.525   8.360  0.1453  0.5798 -1.3448
 4429TIP3   OH237481   6.480   7.525   2.130 -0.0514 -0.3711 -0.4784
 4429TIP3    H137482   6.543   7.458   2.104  1.0153  0.3651  0.1300
 4429TIP3    H237483   6.402   7.507   2.077  0.6496 -1.3303 -1.2160
 4430TIP3   OH237484   2.677   0.098   7.380  0.7316 -0.0699 -0.5418
 4430TIP3    H137485   2.680   0.043   7.301  1.8978 -0.0377 -0.5394
 4430TIP3    H237486   2.665   0.035   7.452  0.1964 -0.1480 -0.6966
 4431TIP3   OH237487   6.469   2.144   8.569  0.4076  0.3302  0.3686
 4431TIP3    H137488   6.517   2.128   8.651  1.6781 -0.4301 -0.4816
 4431TIP3    H237489   6.379   2.160   8.597  0.5964 -0.9178  1.8613
 4432TIP3   OH237490   1.272   4.161   1.528  0.1822 -0.1149 -0.2418
 4432TIP3    H137491   1.185   4.200   1.525 -0.1612 -0.7956  0.4070
 4432TIP3    H237492   1.332   4.233   1.510 -0.4503  0.6140  0.4927
 4433TIP3   OH237493   1.352   4.876   0.673  0.2146  0.0937 -0.2263
 4433TIP3    H137494   1.290   4.888   0.600 -0.6310 -1.8216  0.1300
 4433TIP3    H237495   1.299   4.891   0.751  0.4702 -0.4458  0.0531
 4434TIP3   OH237496   0.175   3.495   1.669  0.7458 -0.3487 -0.0898
 4434TIP3    H137497   0.101   3.506   1.610  0.5739  0.4316  0.2593
 4434TIP3    H237498   0.199   3.584   1.694  1.7443 -0.5964 -0.1228
 4435TIP3   OH237499   1.232   6.813   6.977 -0.0974  0.0802  0.3194
 4435TIP3    H137500   1.221   6.754   7.052 -0.4640  0.5563  0.6488
 4435TIP3    H237501   1.254   6.755   6.904 -0.3345 -0.4529  0.6635
 4436TIP3   OH237502   1.746   6.537   0.356  0.0701  0.1830 -0.1344
 4436TIP3    H137503   1.682   6.538   0.285 -1.8220 -0.4266  1.4525
 4436TIP3    H237504   1.735   6.621   0.401 -0.6703 -0.4801  0.9817
 4437TIP3   OH237505   1.161   4.627   2.125 -0.0632  0.3165 -0.0488
 4437TIP3    H137506   1.137   4.550   2.177 -0.6355  0.7369  0.3185
 4437TIP3    H237507   1.207   4.591   2.049 -0.8381 -0.4350 -0.1775
 4438TIP3   OH237508   5.905   7.014   7.182  0.4238  1.0059  0.4766
 4438TIP3    H137509   5.969   6.945   7.202 -1.2965 -0.2356  2.0308
 4438TIP3    H237510   5.957   7.084   7.144  2.4216 -0.7068 -0.1559
 4439TIP3   OH237511   2.842   1.355   8.584  0.0427 -0.6445 -0.3659
 4439TIP3    H137512   2.932   1.379   8.566 -0.4462  1.1923 -0.5417
 4439TIP3    H237513   2.790   1.399   8.517 -1.0455 -1.0729  0.1537
 4440TIP3   OH237514   0.158   5.308   7.103 -0.4456 -0.1488 -0.1251
 4440TIP3    H137515   0.139   5.328   7.011 -1.4379 -0.7030 -0.0590
 4440TIP3    H237516   0.088   5.248   7.129 -0.9009  0.9583  1.3390
 4441TIP3   OH237517   0.304   3.204   9.689 -0.0661 -0.1233  0.2937
 4441TIP3    H137518   0.224   3.189   9.739 -0.6134  1.2866 -0.1052
 4441TIP3    H237519   0.274   3.216   9.599  0.6842 -0.3990 -0.0052
 4442TIP3   OH237520   2.012   1.754   9.110  0.3079 -0.1482 -0.1175
 4442TIP3    H137521   2.096   1.795   9.130  1.6927 -2.0634 -1.6303
 4442TIP3    H237522   1.977   1.727   9.195  2.2873 -1.2298  0.4143
 4443TIP3   OH237523   1.714   3.015   2.609 -0.2148 -0.1877  0.0782
 4443TIP3    H137524   1.714   3.014   2.705 -1.4552  3.1078  0.2424
 4443TIP3    H237525   1.802   3.044   2.585 -0.2556  0.1353  0.3046
 4444TIP3   OH237526   1.559   5.193   8.257 -0.5418  0.2645 -0.0349
 4444TIP3    H137527   1.560   5.270   8.201 -1.5152  1.0502  0.9959
 4444TIP3    H237528   1.621   5.213   8.327 -0.2689 -0.1989 -0.1343
 4445TIP3   OH237529   4.684   0.375   8.866 -0.3428  0.0634  0.3676
 4445TIP3    H137530   4.663   0.447   8.807 -0.3161 -0.5838 -0.4410
 4445TIP3    H237531   4.757   0.330   8.823 -0.7336 -0.7828  0.5855
 4446TIP3   OH237532   1.652   3.395   7.450  0.4184  0.7285  0.8190
 4446TIP3    H137533   1.597   3.365   7.523 -0.0191 -1.9226 -0.4581
 4446TIP3    H237534   1.591   3.441   7.392 -0.4460 -1.6329 -0.2728
 4447TIP3   OH237535   3.398   0.021   8.192  0.3307 -0.3877 -0.4074
 4447TIP3    H137536   3.343   0.074   8.250 -0.7796 -0.7288 -1.1200
 4447TIP3    H237537   3.378  -0.070   8.216  2.2257 -0.5563  0.8147
 4448TIP3   OH237538   3.529   0.511   1.933 -0.6885  0.7794 -0.3703
 4448TIP3    H137539   3.614   0.528   1.974 -0.9693 -0.0950  0.6123
 4448TIP3    H237540   3.478   0.591   1.950 -1.0801  0.1485  1.8037
 4449TIP3   OH237541   6.060   2.689   0.206  0.0640 -0.3619 -0.8441
 4449TIP3    H137542   5.970   2.721   0.209  0.4360  0.6663 -0.2588
 4449TIP3    H237543   6.113   2.766   0.227  0.9317 -1.6410  2.1979
 4450TIP3   OH237544   1.002   0.591   2.321  0.3256 -0.3129  0.3893
 4450TIP3    H137545   0.933   0.567   2.383 -0.7215  0.0551 -0.5937
 4450TIP3    H237546   0.993   0.686   2.311 -0.0465 -0.4718 -0.9121
 4451TIP3   OH237547   0.593   4.123   1.590  0.6664  0.2183 -0.3507
 4451TIP3    H137548   0.519   4.062   1.588  1.4944 -0.8497 -0.0166
 4451TIP3    H237549   0.625   4.120   1.680  0.6234  1.2962 -0.2870
 4452TIP3   OH237550   4.930   0.286   2.722  0.3682 -0.0017 -0.5873
 4452TIP3    H137551   5.023   0.263   2.724  0.8881  1.9642  0.1726
 4452TIP3    H237552   4.908   0.302   2.813 -0.7174 -0.3321 -0.7787
 4453TIP3   OH237553   3.082   4.769   0.011  0.0865 -0.6238 -0.1366
 4453TIP3    H137554   3.035   4.849  -0.014  0.6476  0.2356  1.4100
 4453TIP3    H237555   3.171   4.798   0.029 -0.0773 -1.2758  1.9711
 4454TIP3   OH237556   5.507   1.937   2.088 -0.3487  0.1699  0.0542
 4454TIP3    H137557   5.557   1.916   2.167 -0.0450 -0.0384 -0.1885
 4454TIP3    H237558   5.450   1.860   2.075 -0.6129  0.3338  0.2360
 4455TIP3   OH237559   1.888   0.848   9.930 -0.0082 -0.1908  0.1427
 4455TIP3    H137560   1.800   0.839   9.967  0.2044 -1.3641  0.4038
 4455TIP3    H237561   1.946   0.808   9.995  0.7010  0.3283 -0.1460
 4456TIP3   OH237562   4.566   0.076   0.853  0.2930 -0.6604  0.6290
 4456TIP3    H137563   4.500   0.030   0.802  0.1761  0.5116 -0.3261
 4456TIP3    H237564   4.620   0.007   0.891  0.5840 -1.6028 -1.3537
 4457TIP3   OH237565   6.817   4.510   9.257  0.1994  0.5825  0.0003
 4457TIP3    H137566   6.758   4.585   9.247  1.1568  1.2430 -0.8392
 4457TIP3    H237567   6.817   4.468   9.171 -2.2007 -1.8578  1.0537
 4458TIP3   OH237568   5.305   4.610   8.146  0.4905 -0.1686 -0.0461
 4458TIP3    H137569   5.396   4.614   8.174  0.3048 -0.6382  0.6317
 4458TIP3    H237570   5.255   4.597   8.226 -0.0165 -2.0836 -0.6252
 4459TIP3   OH237571   6.509   6.452   2.434 -0.0202  0.0132 -0.0439
 4459TIP3    H137572   6.441   6.385   2.446 -2.0111  1.7618 -0.8683
 4459TIP3    H237573   6.530   6.480   2.523 -1.3371  0.3152  0.1925
 4460TIP3   OH237574   3.196   0.986   9.638 -0.2120 -0.2455  0.0300
 4460TIP3    H137575   3.273   0.997   9.694  0.2210  1.4650 -0.8442
 4460TIP3    H237576   3.151   1.070   9.643 -0.7585 -0.4418 -1.3023
 4461TIP3   OH237577   5.283   4.853   8.020 -0.4492 -0.0917 -0.4876
 4461TIP3    H137578   5.294   4.765   8.057  0.7956 -0.2041 -1.1026
 4461TIP3    H237579   5.300   4.843   7.927 -1.8874  0.5234 -0.8474
 4462TIP3   OH237580   5.717   7.090   9.529 -0.0018 -0.0337  0.2729
 4462TIP3    H137581   5.641   7.037   9.503 -0.3832  0.0645  1.1531
 4462TIP3    H237582   5.716   7.088   9.625  1.0545  0.0546  0.3010
 4463TIP3   OH237583   0.690   0.309   8.706  0.3952  0.3934  0.0491
 4463TIP3    H137584   0.689   0.335   8.799  1.1401  1.1153 -0.1364
 4463TIP3    H237585   0.669   0.390   8.659 -0.1638 -0.0133 -0.4131
 4464TIP3   OH237586   2.682   6.405   1.398  0.8096  0.6532  0.1140
 4464TIP3    H137587   2.771   6.385   1.368  1.0126  0.4706  0.8097
 4464TIP3    H237588   2.646   6.319   1.422 -0.4806  0.3492 -2.5237
 4465TIP3   OH237589   3.470   3.212   2.403 -0.1382  0.1955  0.1877
 4465TIP3    H137590   3.399   3.177   2.456  0.3054 -0.2640  0.4909
 4465TIP3    H237591   3.471   3.305   2.423 -2.1080  0.6558 -1.5367
 4466TIP3   OH237592   3.495   2.544   7.064  0.3885 -0.3557 -0.2902
 4466TIP3    H137593   3.452   2.462   7.088 -1.3062  1.1490  2.1982
 4466TIP3    H237594   3.557   2.561   7.135  1.4422  0.0594 -1.2753
 4467TIP3   OH237595   1.861   6.792   9.752  0.3333 -0.0728  0.3002
 4467TIP3    H137596   1.898   6.706   9.732  0.0673 -0.3688  1.0233
 4467TIP3    H237597   1.857   6.837   9.668  0.4226 -0.7943 -0.0990
 4468TIP3   OH237598   0.731   1.912   7.275 -0.2844 -0.0663  0.1730
 4468TIP3    H137599   0.667   1.854   7.234 -0.7017  0.5808 -0.1172
 4468TIP3    H237600   0.803   1.855   7.302  0.3825 -0.4027 -2.1647
 4469TIP3   OH237601   0.518   7.038   9.524  0.5937  0.3375  0.1259
 4469TIP3    H137602   0.599   7.090   9.522  0.6636  0.3852  2.2069
 4469TIP3    H237603   0.448   7.103   9.537  0.2443  0.2543 -1.2298
 4470TIP3   OH237604   1.177   3.293   1.450  0.6305  0.1385  0.6961
 4470TIP3    H137605   1.129   3.302   1.367  0.4979  1.7503  0.9188
 4470TIP3    H237606   1.269   3.292   1.425  0.5708 -1.5973  0.3824
 4471TIP3   OH237607   0.836   7.199   8.706  0.3873  0.1458 -0.0657
 4471TIP3    H137608   0.782   7.176   8.631 -0.6695  0.3116  0.6319
 4471TIP3    H237609   0.873   7.116   8.736  0.4978  0.0279 -0.5255
 4472TIP3   OH237610   5.229   7.017   7.925 -0.0735  0.7389 -0.2258
 4472TIP3    H137611   5.275   6.973   7.996 -0.1923 -1.8376 -1.6203
 4472TIP3    H237612   5.292   7.083   7.894  0.2376  1.4382  1.7403
 4473TIP3   OH237613   2.241   6.832   1.186  0.0014  0.3573 -0.2725
 4473TIP3    H137614   2.180   6.765   1.218 -0.2158  0.5310 -0.3178
 4473TIP3    H237615   2.320   6.820   1.239  0.1040 -0.1816 -0.5391
 4474TIP3   OH237616   3.081   0.525   9.303  0.0683 -0.2690  0.0960
 4474TIP3    H137617   3.025   0.551   9.376 -0.0560 -0.9681  0.2530
 4474TIP3    H237618   3.058   0.587   9.233  0.4183  0.6082  0.7365
 4475TIP3   OH237619   3.495   4.615   9.303 -0.1904 -0.4551  0.1033
 4475TIP3    H137620   3.523   4.572   9.222  2.1101  2.1314 -0.6337
 4475TIP3    H237621   3.429   4.678   9.274  0.3494  0.2023  0.2870
 4476TIP3   OH237622   7.623   6.040   9.457  0.5902  0.3465  0.1986
 4476TIP3    H137623   7.583   6.044   9.544  1.2079 -0.6905  0.5509
 4476TIP3    H237624   7.717   6.047   9.474  0.6882  0.5729 -0.4204
 4477TIP3   OH237625   3.022   0.146   1.105  0.7636 -0.0439 -0.0356
 4477TIP3    H137626   2.967   0.159   1.182  0.3829  1.6332 -0.5667
 4477TIP3    H237627   3.085   0.218   1.108  2.4042 -1.4048  0.0614
 4478TIP3   OH237628   2.625   1.321   7.785 -0.0815  1.2068 -0.3012
 4478TIP3    H137629   2.651   1.284   7.869  0.4067 -1.1558 -1.4127
 4478TIP3    H237630   2.704   1.364   7.751  0.6266 -0.4729 -0.8589
 4479TIP3   OH237631   0.567   5.553   9.944 -0.4479 -0.3256  0.4933
 4479TIP3    H137632   0.524   5.539   9.859 -0.7736  0.8850  0.4414
 4479TIP3    H237633   0.506   5.516  10.008 -0.5052 -0.6537  0.2540
 4480TIP3   OH237634   0.625   6.511   6.824  0.3178  0.1392 -0.0696
 4480TIP3    H137635   0.636   6.513   6.919  2.0338 -1.8819 -0.1538
 4480TIP3    H237636   0.543   6.559   6.808 -2.0391 -2.5076  2.7788
 4481TIP3   OH237637   3.034   2.654   0.888  0.1915  0.0458 -0.4487
 4481TIP3    H137638   3.049   2.639   0.795 -0.3221 -2.8696 -0.1540
 4481TIP3    H237639   2.999   2.571   0.920  1.3508  0.6002  2.5591
 4482TIP3   OH237640   0.815   2.924   1.067  0.3415  0.5179 -0.0261
 4482TIP3    H137641   0.902   2.956   1.091  0.9997 -1.4423  0.4010
 4482TIP3    H237642   0.791   2.976   0.990  1.9329  1.0137 -0.2232
 4483TIP3   OH237643   4.764   4.988   9.382 -0.6080  0.6897  0.1124
 4483TIP3    H137644   4.846   4.976   9.333  0.8946 -1.8189  2.9217
 4483TIP3    H237645   4.712   4.911   9.362 -1.4085  1.2533 -0.0332
 4484TIP3   OH237646   1.009   4.525   9.861 -0.2374 -0.0443  0.0554
 4484TIP3    H137647   1.021   4.443   9.814 -1.2259 -0.8737  1.1939
 4484TIP3    H237648   1.075   4.584   9.824  1.6925 -1.8636  0.3937
 4485TIP3   OH237649   0.494   4.607   7.055 -0.1690  0.3658 -0.1878
 4485TIP3    H137650   0.541   4.686   7.082 -0.7271  0.3834  0.7672
 4485TIP3    H237651   0.554   4.564   6.994  0.2473  1.3947 -0.5365
 4486TIP3   OH237652   2.021   4.351   8.302  0.2905  0.3908 -0.4199
 4486TIP3    H137653   1.941   4.404   8.307 -0.0179 -0.0957 -0.0238
 4486TIP3    H237654   2.045   4.351   8.210 -0.2408  0.4422 -0.5612
 4487TIP3   OH237655   5.377   4.406   9.077 -0.1703 -0.5118  0.3524
 4487TIP3    H137656   5.305   4.344   9.090 -1.0568  0.2963 -0.5023
 4487TIP3    H237657   5.390   4.408   8.982  0.4166 -0.0206  0.4363
 4488TIP3   OH237658   4.041   3.183   7.546 -0.1630  0.1864 -0.0559
 4488TIP3    H137659   4.069   3.238   7.473  1.7309 -2.2078 -1.3025
 4488TIP3    H237660   3.964   3.137   7.513  0.2858 -0.3901 -0.3173
 4489TIP3   OH237661   6.079   1.988   2.705  0.1846  0.1091  0.2741
 4489TIP3    H137662   6.135   2.023   2.773  0.2653  0.2298  0.1446
 4489TIP3    H237663   5.999   1.962   2.751 -0.3890  1.6191  0.1877
 4490TIP3   OH237664   5.701   6.563   2.570  0.1959  0.1522  0.1060
 4490TIP3    H137665   5.637   6.631   2.549  0.3667  0.6465  1.1129
 4490TIP3    H237666   5.678   6.535   2.659  1.2767  0.2301  0.4239
 4491TIP3   OH237667   1.909   7.408   8.685 -0.1007 -0.1763  0.0151
 4491TIP3    H137668   1.860   7.398   8.604 -1.0499  1.1792  0.3758
 4491TIP3    H237669   1.911   7.503   8.699  2.9145 -0.1241 -0.1393
 4492TIP3   OH237670   4.526   7.025   7.080  0.0331 -1.0899 -0.2406
 4492TIP3    H137671   4.622   7.025   7.071  0.7010  1.2219  3.9306
 4492TIP3    H237672   4.507   6.947   7.132 -0.1726 -0.9470 -0.1023
 4493TIP3   OH237673   7.376   1.881   1.565  0.6952  0.1256  0.1021
 4493TIP3    H137674   7.295   1.917   1.601  1.3329  0.9678  0.7561
 4493TIP3    H237675   7.431   1.958   1.549  1.3834 -0.4317 -0.2902
 4494TIP3   OH237676   0.750   6.781   8.042  0.0323  0.2223 -0.2591
 4494TIP3    H137677   0.795   6.706   8.003  0.2302  0.1187  0.1619
 4494TIP3    H237678   0.808   6.856   8.025  1.0776 -0.1293  1.4797
 4495TIP3   OH237679   6.154   2.161   0.186 -0.0217 -0.0152  0.4007
 4495TIP3    H137680   6.089   2.232   0.183  1.3709  1.3466  1.1582
 4495TIP3    H237681   6.113   2.093   0.240 -0.1097  1.6423  2.5731
 4496TIP3   OH237682   5.605   0.778   8.884  0.2608  0.2728 -0.4796
 4496TIP3    H137683   5.528   0.742   8.928  1.3810 -2.2691 -0.3964
 4496TIP3    H237684   5.674   0.775   8.951  0.5875  1.9560 -0.7150
 4497TIP3   OH237685   7.133   1.992   9.049 -0.7263 -0.4805  0.1829
 4497TIP3    H137686   7.071   2.062   9.071  0.4459  0.5821  0.1894
 4497TIP3    H237687   7.197   2.033   8.991 -0.1135 -1.5982  0.0271
 4498TIP3   OH237688   1.188   7.317   1.781  0.5151 -0.2500 -0.4210
 4498TIP3    H137689   1.200   7.250   1.847  2.1311  0.4479  0.0541
 4498TIP3    H237690   1.125   7.378   1.819 -0.2192 -0.9707 -0.4570
 4499TIP3   OH237691   6.308   5.686   8.547 -0.0077  0.8651 -0.2454
 4499TIP3    H137692   6.353   5.681   8.631 -0.7087  1.2851  0.1629
 4499TIP3    H237693   6.352   5.621   8.492 -0.4138 -0.3728  0.8506
 4500TIP3   OH237694   3.464   3.802   8.146  0.3742 -0.1043 -0.4847
 4500TIP3    H137695   3.445   3.786   8.054  1.1134 -0.2771 -0.6130
 4500TIP3    H237696   3.527   3.734   8.170 -0.3149 -0.4823  0.3381
 4501TIP3   OH237697   6.254   0.021   1.710 -0.4952 -0.1090 -0.2275
 4501TIP3    H137698   6.233  -0.073   1.712 -0.1207 -0.1816  0.3411
 4501TIP3    H237699   6.254   0.043   1.617 -0.5857 -0.6720 -0.3651
 4502TIP3   OH237700   6.375   2.502   1.689  0.4218  0.0948  0.1673
 4502TIP3    H137701   6.283   2.515   1.669  0.8116  0.7765 -1.2882
 4502TIP3    H237702   6.422   2.552   1.622  1.9039 -3.0285 -1.3175
 4503TIP3   OH237703   2.850   1.175   9.658 -0.1815 -0.2950  0.0001
 4503TIP3    H137704   2.902   1.158   9.580 -0.7582  2.2678 -1.0313
 4503TIP3    H237705   2.896   1.127   9.728 -0.0779 -3.2842 -1.9399
 4504TIP3   OH237706   6.480   7.366   1.862  0.5849  0.3730 -1.1212
 4504TIP3    H137707   6.507   7.332   1.948  0.3351 -0.5098 -1.3760
 4504TIP3    H237708   6.415   7.302   1.831  0.9882  0.4455 -2.1549
 4505TIP3   OH237709   1.985   2.706   1.940  0.7268 -0.2632  0.3590
 4505TIP3    H137710   2.009   2.617   1.917  1.5981 -0.0081  0.2495
 4505TIP3    H237711   2.048   2.731   2.008  2.6482  1.3903 -1.8606
 4506TIP3   OH237712   5.793   1.917   8.856  0.4273  0.1613 -0.0368
 4506TIP3    H137713   5.864   1.978   8.877 -0.4499  0.7927  1.2670
 4506TIP3    H237714   5.741   1.963   8.790  0.5701  0.2085 -0.1162
 4507TIP3   OH237715   0.752   4.957   9.805 -0.3577  0.1381  0.0840
 4507TIP3    H137716   0.668   4.985   9.769 -1.4385 -1.5006  1.2211
 4507TIP3    H237717   0.765   5.014   9.881 -1.1802 -0.5180  0.7452
 4508TIP3   OH237718   1.106   0.013   1.438  0.5929  0.0628  0.2570
 4508TIP3    H137719   1.084   0.097   1.478 -0.2675 -0.4324  0.8665
 4508TIP3    H237720   1.048  -0.050   1.482  2.8569 -1.2509  1.5652
 4509TIP3   OH237721   1.066   5.562   8.478  0.5605 -0.1198  0.4726
 4509TIP3    H137722   1.147   5.611   8.461  0.8678 -0.6389  0.4318
 4509TIP3    H237723   1.091   5.495   8.542  0.4220 -0.9895 -0.3648
 4510TIP3   OH237724   6.917   1.314   6.977 -0.4668  0.3344  0.6625
 4510TIP3    H137725   6.944   1.257   6.904 -0.8366 -0.2468  0.9673
 4510TIP3    H237726   6.988   1.306   7.041 -0.8274 -0.3336  0.9956
 4511TIP3   OH237727   7.171   7.638   7.079 -0.3345  0.8575 -0.2427
 4511TIP3    H137728   7.132   7.724   7.089 -0.4330  0.8625 -0.6393
 4511TIP3    H237729   7.120   7.580   7.136 -0.3711  1.0306 -0.1015
 4512TIP3   OH237730   5.819   7.353   1.944  0.0964 -0.4395 -1.1682
 4512TIP3    H137731   5.866   7.336   1.862 -1.9514 -4.2222 -1.8266
 4512TIP3    H237732   5.728   7.365   1.917 -0.4634 -0.7640  0.4649
 4513TIP3   OH237733   3.912   1.067   2.813  0.3468  0.1560  0.1600
 4513TIP3    H137734   4.003   1.037   2.803  1.6437  2.9540  2.0621
 4513TIP3    H237735   3.876   1.010   2.881  1.3638  0.2109  0.7713
 4514TIP3   OH237736   3.885   2.260   0.299 -0.2625  0.3981 -0.1575
 4514TIP3    H137737   3.790   2.246   0.301 -0.1652 -0.2882  0.0135
 4514TIP3    H237738   3.915   2.232   0.385  0.3885 -1.7191 -1.0081
 4515TIP3   OH237739   1.870   7.498   2.290 -0.5458  0.2178 -0.0026
 4515TIP3    H137740   1.893   7.545   2.210 -0.1145  0.1013  0.0496
 4515TIP3    H237741   1.843   7.411   2.260 -1.2884  0.4743 -0.0946
 4516TIP3   OH237742   0.180   2.788   9.047  0.6436  0.2700 -0.2777
 4516TIP3    H137743   0.196   2.875   9.011 -2.9032  0.4592 -1.7524
 4516TIP3    H237744   0.107   2.799   9.108  1.8105 -1.3161  1.5391
 4517TIP3   OH237745   2.970   4.362   9.649  0.0464 -0.0349  0.1413
 4517TIP3    H137746   3.035   4.416   9.695  0.3557  0.3404 -0.7253
 4517TIP3    H237747   2.985   4.380   9.557 -0.7637 -0.5687 -0.1009
 4518TIP3   OH237748   0.480   1.180   0.166 -0.0272  0.0640 -0.3126
 4518TIP3    H137749   0.454   1.271   0.180 -0.3873  0.0661 -0.9743
 4518TIP3    H237750   0.485   1.143   0.254  0.7015  0.8750 -0.0002
 4519TIP3   OH237751   3.270   2.995   8.181  0.4250  0.3807  0.0205
 4519TIP3    H137752   3.250   3.068   8.123 -1.6119 -1.6573 -2.0794
 4519TIP3    H237753   3.185   2.969   8.216  0.4793 -2.8194 -1.8010
 4520TIP3   OH237754   4.595   6.415   1.752  0.2625  0.0787  0.6648
 4520TIP3    H137755   4.545   6.471   1.693  0.1871  1.4013  1.9370
 4520TIP3    H237756   4.626   6.343   1.697 -2.8265 -0.7061 -0.2330
 4521TIP3   OH237757   3.534   2.192   8.827  0.1348 -0.1568  0.2728
 4521TIP3    H137758   3.488   2.205   8.910 -0.5792  1.6359 -0.3616
 4521TIP3    H237759   3.618   2.235   8.840  0.5774 -1.0560  0.4946
 4522TIP3   OH237760   2.191   3.375   0.259 -0.1543  0.0378 -0.1836
 4522TIP3    H137761   2.258   3.395   0.194 -0.4679  0.2807 -0.4390
 4522TIP3    H237762   2.238   3.370   0.342  0.6532 -2.7166 -0.7293
 4523TIP3   OH237763   3.315   7.276   2.171 -1.1292  0.0500 -0.1032
 4523TIP3    H137764   3.386   7.304   2.230 -1.2639  0.2591 -0.0392
 4523TIP3    H237765   3.274   7.202   2.216  0.7607 -1.8970 -1.3615
 4524TIP3   OH237766   0.036   3.090   8.180  0.3733 -0.6568 -0.1586
 4524TIP3    H137767   0.106   3.141   8.220  0.3002  0.1227 -0.9933
 4524TIP3    H237768  -0.002   3.041   8.252  0.3999  0.5271  0.6925
 4525TIP3   OH237769   1.324   5.660   8.736  0.2688  0.4063  0.1645
 4525TIP3    H137770   1.387   5.597   8.769 -0.0175 -0.5131 -0.9618
 4525TIP3    H237771   1.239   5.627   8.765  0.0463 -0.2134 -1.0820
 4526TIP3   OH237772   5.157   1.612   0.753 -0.1906 -0.0196 -0.7648
 4526TIP3    H137773   5.194   1.536   0.798 -2.3099 -1.2310 -0.9386
 4526TIP3    H237774   5.063   1.592   0.745 -1.1793  3.3249  0.6219
 4527TIP3   OH237775   2.688   2.970   8.595  0.2669 -0.4517  0.4357
 4527TIP3    H137776   2.697   2.960   8.500  2.6424  0.8107  0.4634
 4527TIP3    H237777   2.704   2.882   8.630  0.3043 -0.7363 -0.2768
 4528TIP3   OH237778   1.989   5.841   8.844 -0.2132  0.3984 -1.1513
 4528TIP3    H137779   1.972   5.922   8.797 -0.5255  1.2254  0.3506
 4528TIP3    H237780   2.018   5.868   8.931  0.1042 -1.0894 -0.7550
 4529TIP3   OH237781   6.268   4.348   9.300 -0.3990  0.4071 -0.2006
 4529TIP3    H137782   6.281   4.264   9.256  0.2733 -1.4970  3.1993
 4529TIP3    H237783   6.342   4.402   9.272 -0.4397 -0.3743 -1.9027
 4530TIP3   OH237784   6.425   0.592   9.172 -0.0417 -0.3516 -0.3781
 4530TIP3    H137785   6.421   0.687   9.172  0.7413 -0.3066 -0.6715
 4530TIP3    H237786   6.347   0.564   9.124 -1.6369  0.0321  1.8342
 4531TIP3   OH237787   2.175   6.451   1.141  0.1917  0.3947 -0.2907
 4531TIP3    H137788   2.267   6.465   1.117  0.3801  0.9633  0.6927
 4531TIP3    H237789   2.150   6.531   1.186 -1.1578  0.7120 -1.5542
 4532TIP3   OH237790   4.461   4.688   9.395  0.7614  0.6467 -0.3222
 4532TIP3    H137791   4.488   4.696   9.303  1.3908  0.4202 -0.1594
 4532TIP3    H237792   4.459   4.594   9.411 -0.4467  0.6342 -0.4147
 4533TIP3   OH237793   1.035   1.425   2.458  0.3766 -0.4352 -0.0784
 4533TIP3    H137794   1.117   1.468   2.482  0.5995 -1.8667  1.9775
 4533TIP3    H237795   0.968   1.491   2.473  1.0535  0.5680 -1.2369
 4534TIP3   OH237796   7.432   0.653   7.577  0.2215 -0.2965 -0.4887
 4534TIP3    H137797   7.452   0.712   7.650  0.2116 -1.5323  0.5342
 4534TIP3    H237798   7.415   0.712   7.503  0.2707  0.9791  0.4857
 4535TIP3   OH237799   5.142   2.005   7.225  0.0138 -0.2958 -0.1860
 4535TIP3    H137800   5.115   2.062   7.297 -1.1028 -2.4438  1.1904
 4535TIP3    H237801   5.151   2.064   7.150  1.3387  2.0598  1.6870
 4536TIP3   OH237802   0.442   6.430   1.174 -0.7313 -0.2553  0.1069
 4536TIP3    H137803   0.488   6.490   1.232  0.4643 -0.7001 -0.3349
 4536TIP3    H237804   0.445   6.345   1.220 -0.1051 -0.5262 -0.4093
 4537TIP3   OH237805   0.610   6.869   0.616 -0.1339  0.9842 -0.1982
 4537TIP3    H137806   0.641   6.796   0.562 -1.7117  0.2294 -0.1415
 4537TIP3    H237807   0.655   6.946   0.581 -0.4439  0.3782 -2.0330
 4538TIP3   OH237808   4.327   2.288   1.730  0.2103 -0.2918 -0.0336
 4538TIP3    H137809   4.357   2.373   1.698  1.1367  0.3093  2.2141
 4538TIP3    H237810   4.278   2.251   1.657 -0.9957  2.5429 -0.8155
 4539TIP3   OH237811   1.690   0.545   1.788  0.1943  0.5739 -1.0123
 4539TIP3    H137812   1.764   0.564   1.731  0.3197 -0.4746 -1.2107
 4539TIP3    H237813   1.622   0.510   1.730 -0.2096  0.8741 -0.7325
 4540TIP3   OH237814   0.974   4.989   2.436 -0.4353 -0.3238 -0.2256
 4540TIP3    H137815   0.947   4.997   2.528  0.9027 -0.6474  0.2200
 4540TIP3    H237816   1.058   5.035   2.433 -0.3056 -0.6209 -1.2188
 4541TIP3   OH237817   6.095   6.371   2.215 -0.5387 -0.4958 -0.1429
 4541TIP3    H137818   6.026   6.306   2.212 -0.1532 -0.9277  0.1854
 4541TIP3    H237819   6.052   6.452   2.244 -0.6242 -1.1416  1.6484
 4542TIP3   OH237820   2.072   0.405   2.755  0.0056 -0.0278 -0.5607
 4542TIP3    H137821   2.004   0.364   2.702  0.2243 -1.2415  0.0571
 4542TIP3    H237822   2.029   0.422   2.839  0.2111  0.0436 -0.4695
 4543TIP3   OH237823   0.113   1.567   0.935 -0.5410  0.0426 -0.1908
 4543TIP3    H137824   0.019   1.568   0.953 -0.4337  1.3444  0.4372
 4543TIP3    H237825   0.136   1.659   0.921  0.7689 -0.1736  0.3426
 4544TIP3   OH237826   5.128   1.306   7.414 -0.0089 -0.6212 -0.4096
 4544TIP3    H137827   5.040   1.327   7.446  1.3193  3.4460  1.1719
 4544TIP3    H237828   5.135   1.353   7.331  0.6754 -0.9359 -0.5336
 4545TIP3   OH237829   3.331   6.507   2.771 -0.4668 -0.3000  0.2883
 4545TIP3    H137830   3.255   6.527   2.716 -1.0384 -1.4530  0.6313
 4545TIP3    H237831   3.328   6.572   2.842 -1.3065 -0.5210  0.4579
 4546TIP3   OH237832   0.871   0.015   0.742  0.5113  0.0186 -0.7037
 4546TIP3    H137833   0.901  -0.027   0.822 -0.3337  0.5219 -0.1176
 4546TIP3    H237834   0.776   0.015   0.748  0.4391  3.5301  0.1513
 4547TIP3   OH237835   7.321   6.373   7.916  0.2515  0.1759 -0.3187
 4547TIP3    H137836   7.412   6.390   7.940 -0.5347  1.9175  1.7159
 4547TIP3    H237837   7.309   6.420   7.833  0.7996  1.3074  0.2158
 4548TIP3   OH237838   5.198   5.663   6.569  0.2711 -0.3216  0.1885
 4548TIP3    H137839   5.240   5.673   6.484 -2.0136  2.3470 -0.8177
 4548TIP3    H237840   5.269   5.642   6.629  2.4885  0.7042 -1.8882
 4549TIP3   OH237841   2.031   2.810   1.673 -0.4364 -0.1425  0.1691
 4549TIP3    H137842   2.012   2.792   1.765  2.2685 -0.6278  0.6979
 4549TIP3    H237843   2.055   2.725   1.636 -0.7125  0.1830 -0.7906
 4550TIP3   OH237844   1.963   0.008   0.509  0.4724 -0.4010  0.1932
 4550TIP3    H137845   1.909  -0.042   0.448 -2.5776  2.3182  0.3474
 4550TIP3    H237846   2.000  -0.057   0.568  0.7625 -2.7977 -2.4527
 4551TIP3   OH237847   4.787   6.372   8.300 -0.3042  0.1025 -0.0134
 4551TIP3    H137848   4.765   6.279   8.295 -0.4477  0.0546  1.2076
 4551TIP3    H237849   4.710   6.417   8.267 -0.1438 -0.2136 -0.8338
 4552TIP3   OH237850   1.521   6.248   0.271  0.7040  0.4806  0.2794
 4552TIP3    H137851   1.500   6.327   0.321  0.6206 -0.0540  1.1015
 4552TIP3    H237852   1.493   6.268   0.182 -1.5315  0.5095  0.9376
 4553TIP3   OH237853   3.308   3.140   2.585 -0.0915  0.3587  0.5882
 4553TIP3    H137854   3.303   3.214   2.647 -2.3522  0.7002  0.0881
 4553TIP3    H237855   3.247   3.075   2.621 -0.5186  0.0691 -0.6175
 4554TIP3   OH237856   6.617   1.772   9.822  0.6478 -0.5231 -0.1341
 4554TIP3    H137857   6.666   1.846   9.786  0.4342  0.4349  1.4563
 4554TIP3    H237858   6.527   1.802   9.826  0.2106 -1.6112 -1.3075
 4555TIP3   OH237859   6.688   6.615   0.523 -0.3193 -0.1591  0.3696
 4555TIP3    H137860   6.733   6.671   0.461 -1.0368 -1.7949 -1.7371
 4555TIP3    H237861   6.631   6.559   0.470  0.3853 -2.9365  2.2698
 4556TIP3   OH237862   1.484   4.070   1.713  0.4491 -0.5029 -0.1709
 4556TIP3    H137863   1.409   4.088   1.656  0.7408  1.7877  0.0691
 4556TIP3    H237864   1.553   4.126   1.679  0.5164  1.3153  2.6132
 4557TIP3   OH237865   3.133   2.653   1.230  0.2664  0.2334  0.2391
 4557TIP3    H137866   3.040   2.629   1.222  0.0471  1.2950 -0.5865
 4557TIP3    H237867   3.149   2.654   1.325 -1.2310  2.3656  0.5504
 4558TIP3   OH237868   1.171   2.839   2.128  0.4569  0.3431 -0.3546
 4558TIP3    H137869   1.221   2.781   2.071  0.4922  1.1685 -1.1914
 4558TIP3    H237870   1.168   2.922   2.081 -3.0307 -0.0746 -1.1170
 4559TIP3   OH237871   0.233   3.760   1.726  0.3034  0.2885 -0.1742
 4559TIP3    H137872   0.292   3.822   1.685  0.9125 -0.6580 -0.7662
 4559TIP3    H237873   0.195   3.808   1.800 -0.7584  1.9822 -1.7648
 4560TIP3   OH237874   7.146   6.207   0.470  0.2493  0.0962  0.4410
 4560TIP3    H137875   7.171   6.240   0.383  0.8101  1.2079  0.9955
 4560TIP3    H237876   7.137   6.286   0.523  1.7415 -0.6363  1.8655
 4561TIP3   OH237877   4.833   7.596   0.130 -0.3271 -0.3821 -0.2026
 4561TIP3    H137878   4.748   7.625   0.163  0.2833  1.4928 -0.1901
 4561TIP3    H237879   4.811   7.532   0.062 -1.7811  0.6232 -0.7322
 4562TIP3   OH237880   0.551   1.883   2.858  0.5439 -0.0524 -0.2384
 4562TIP3    H137881   0.644   1.867   2.843  1.0697  1.0123  1.5134
 4562TIP3    H237882   0.543   1.888   2.953 -1.4188 -0.6510 -0.3331
 4563TIP3   OH237883   6.658   3.356   9.807 -0.2748 -0.0697  0.0974
 4563TIP3    H137884   6.593   3.286   9.812 -0.9507  0.4963 -0.5173
 4563TIP3    H237885   6.724   3.332   9.873 -0.9514 -0.8044  0.5296
 4564TIP3   OH237886   0.841   6.727   0.450  0.0776  0.4823  0.5415
 4564TIP3    H137887   0.885   6.688   0.376 -0.2459 -1.9571  1.5392
 4564TIP3    H237888   0.909   6.740   0.515 -0.1020 -0.1889  0.8758
 4565TIP3   OH237889   0.584   3.896   3.509  0.0110  0.2484 -0.4182
 4565TIP3    H137890   0.631   3.979   3.509  0.1682  0.2029  1.3669
 4565TIP3    H237891   0.647   3.833   3.474  1.5708  0.1027  2.3633
 4566TIP3   OH237892   0.582   4.549   7.731 -0.0870  0.4169  0.4492
 4566TIP3    H137893   0.503   4.515   7.688 -0.9404  0.3795  1.9987
 4566TIP3    H237894   0.598   4.490   7.804  3.1394 -1.3533 -1.4341
 4567TIP3   OH237895   4.948   4.014   9.568  0.2535 -0.4324 -0.1022
 4567TIP3    H137896   4.964   3.924   9.538 -1.1713 -0.5779 -0.5268
 4567TIP3    H237897   4.924   4.005   9.660  2.3548 -0.2210  0.5140
 4568TIP3   OH237898   6.564   1.905   8.359 -0.0621  0.0649 -0.3421
 4568TIP3    H137899   6.535   1.993   8.334 -2.1286 -0.1433  1.0623
 4568TIP3    H237900   6.632   1.920   8.425  1.6635  0.5545 -2.1192
 4569TIP3   OH237901   1.624   3.341   8.383  0.4994  0.5027  1.1613
 4569TIP3    H137902   1.688   3.407   8.410  0.8409  0.4505  0.5120
 4569TIP3    H237903   1.558   3.390   8.334  0.9491  0.3305  0.3545
 4570TIP3   OH237904   4.982   7.129   7.973 -0.1251 -0.3166 -0.1430
 4570TIP3    H137905   5.017   7.177   8.048 -0.4715  2.0640 -1.4347
 4570TIP3    H237906   5.058   7.080   7.939  0.4343 -0.0806  0.7281
 4571TIP3   OH237907   3.902   0.193   2.211  0.3482  0.1114 -0.2040
 4571TIP3    H137908   3.933   0.279   2.184  2.3671 -0.6109 -0.3661
 4571TIP3    H237909   3.979   0.150   2.248 -0.4843 -1.7882 -0.5385
 4572TIP3   OH237910   3.912   5.648   9.764  0.1695  0.0022  0.3201
 4572TIP3    H137911   3.831   5.597   9.770  0.1078  0.1329  0.6368
 4572TIP3    H237912   3.901   5.702   9.686  0.7110 -1.2887 -0.6904
 4573TIP3   OH237913   4.714   2.457   8.310 -0.2472 -0.3917 -0.8234
 4573TIP3    H137914   4.666   2.499   8.239 -3.2646 -0.8817  0.7535
 4573TIP3    H237915   4.745   2.529   8.364 -2.3744  0.0088 -0.0098
 4574TIP3   OH237916   2.658   5.269   0.257 -0.2336  0.0586  0.3079
 4574TIP3    H137917   2.640   5.191   0.311  0.9834  0.0570  0.7422
 4574TIP3    H237918   2.621   5.341   0.308  0.8818  0.0527  1.1680
 4575TIP3   OH237919   0.371   4.631   9.053 -0.4128  0.0422 -0.2245
 4575TIP3    H137920   0.406   4.634   8.964 -2.0922  2.0490 -0.8954
 4575TIP3    H237921   0.295   4.688   9.051 -0.3344  0.4007  2.5969
 4576TIP3   OH237922   2.540   2.561   1.812 -0.4955 -0.4355  0.1413
 4576TIP3    H137923   2.593   2.482   1.817 -0.3720 -0.4457 -1.0007
 4576TIP3    H237924   2.595   2.630   1.848  1.2821  0.0086 -3.0137
 4577TIP3   OH237925   3.161   2.720   2.647  0.1782 -0.1622 -0.2650
 4577TIP3    H137926   3.129   2.810   2.657 -1.1315 -0.4337 -1.5690
 4577TIP3    H237927   3.082   2.666   2.652  0.8895 -1.1970 -0.0060
 4578TIP3   OH237928   3.737   7.495   0.026  0.4047  0.1261 -0.0854
 4578TIP3    H137929   3.809   7.450   0.071  0.7027 -0.1848 -0.8469
 4578TIP3    H237930   3.745   7.467  -0.065 -1.0617 -0.3854 -0.0795
 4579TIP3   OH237931   1.803   1.362   0.274 -0.2925 -0.4020  0.0896
 4579TIP3    H137932   1.788   1.451   0.306 -0.0362 -1.0101  2.0540
 4579TIP3    H237933   1.745   1.307   0.327  0.2599 -1.5081 -0.4172
 4580TIP3   OH237934   6.233   6.752   9.688  0.2693  0.1516 -0.4765
 4580TIP3    H137935   6.272   6.710   9.764  0.7688  0.8050 -0.3575
 4580TIP3    H237936   6.150   6.786   9.720 -0.2122 -0.8678 -0.6173
 4581TIP3   OH237937   3.914   7.306   0.539  0.5500 -0.2628 -0.3654
 4581TIP3    H137938   3.928   7.239   0.473 -0.1285  0.3997 -1.2082
 4581TIP3    H237939   3.973   7.377   0.515  0.2665  0.0007 -0.2892
 4582TIP3   OH237940   5.470   0.394   0.161 -0.2392  0.3014 -0.1378
 4582TIP3    H137941   5.404   0.407   0.228  0.3401  0.0366  0.4967
 4582TIP3    H237942   5.541   0.454   0.184  0.3154 -0.3773 -0.0259
 4583TIP3   OH237943   0.358   5.234   6.851  0.5422 -0.3971 -0.2266
 4583TIP3    H137944   0.394   5.239   6.940  0.2888 -2.4461  0.0349
 4583TIP3    H237945   0.341   5.141   6.837 -2.7570  0.2104 -1.0981
 4584TIP3   OH237946   6.680   5.951   7.678 -0.3735  0.6971 -0.3332
 4584TIP3    H137947   6.598   5.999   7.686 -1.6927 -1.4343 -0.6103
 4584TIP3    H237948   6.691   5.938   7.584  0.3790  1.0802 -0.3095
 4585TIP3   OH237949   4.670   2.208   0.887 -0.4673  0.5489 -0.0160
 4585TIP3    H137950   4.614   2.156   0.944 -0.7261  1.4586  0.5742
 4585TIP3    H237951   4.745   2.232   0.941 -0.6594  1.3185 -0.0737
 4586TIP3   OH237952   6.345   7.504   8.697 -0.2334 -0.8097 -0.1895
 4586TIP3    H137953   6.258   7.529   8.664 -0.6624 -1.5533  0.3585
 4586TIP3    H237954   6.406   7.557   8.645 -1.0087 -0.2914 -0.5950
 4587TIP3   OH237955   0.285   2.822   1.899 -0.4257 -0.0407  0.2790
 4587TIP3    H137956   0.325   2.861   1.978  0.8182  0.1850 -0.4325
 4587TIP3    H237957   0.250   2.739   1.929 -0.6368  0.3755  1.2364
 4588TIP3   OH237958   1.247   1.399   7.309  0.0284 -0.2288 -0.9208
 4588TIP3    H137959   1.194   1.386   7.230 -1.3523  0.4347 -0.1355
 4588TIP3    H237960   1.337   1.405   7.277 -0.4572 -0.4054 -2.3892
 4589TIP3   OH237961   4.384   0.399   9.610 -0.6938 -0.0791 -0.4556
 4589TIP3    H137962   4.301   0.416   9.655 -0.1628  0.6664  0.2704
 4589TIP3    H237963   4.445   0.461   9.649  0.0047 -0.0382 -1.5910
 4590TIP3   OH237964   6.343   2.246   7.269 -0.0967 -0.4417  0.4549
 4590TIP3    H137965   6.261   2.204   7.245 -0.1985 -0.2384  0.4465
 4590TIP3    H237966   6.405   2.218   7.201  0.5065 -2.6351  1.8048
 4591TIP3   OH237967   2.231   6.518   8.097 -0.4128  0.1280  0.0136
 4591TIP3    H137968   2.196   6.580   8.160 -1.7146 -0.9541  0.4063
 4591TIP3    H237969   2.311   6.485   8.138 -1.4678 -0.8862  1.3606
 4592TIP3   OH237970   7.350   1.988   0.956 -0.2408 -0.2871 -0.0018
 4592TIP3    H137971   7.392   2.040   1.025  1.2057  0.6476 -1.4998
 4592TIP3    H237972   7.401   2.007   0.878 -0.9602 -2.4020 -1.0670
 4593TIP3   OH237973   6.525   5.986   8.478  0.2162 -0.4460 -0.3268
 4593TIP3    H137974   6.452   6.037   8.512  0.1065 -0.4581 -0.5422
 4593TIP3    H237975   6.576   5.962   8.556  0.3911  0.1754 -0.2446
 4594TIP3   OH237976   2.107   6.901   9.232 -0.7503  0.3956 -0.7427
 4594TIP3    H137977   2.182   6.865   9.281 -1.3232  1.3908  0.9252
 4594TIP3    H237978   2.146   6.967   9.174 -0.1484 -0.2622 -1.0996
 4595TIP3   OH237979   4.709   0.362   1.898  0.1183 -0.5170 -0.3345
 4595TIP3    H137980   4.799   0.394   1.897  0.2586 -0.8851  0.1116
 4595TIP3    H237981   4.657   0.436   1.930  0.1780 -0.1161 -1.1379
 4596TIP3   OH237982   3.056   5.562   8.675 -0.1916  0.3174  0.0887
 4596TIP3    H137983   3.117   5.582   8.604  1.1240 -1.9318  0.5017
 4596TIP3    H237984   2.997   5.638   8.678  1.2685  1.6104 -1.7131
 4597TIP3   OH237985   7.675   0.914   1.261 -0.0606 -0.0013  0.6296
 4597TIP3    H137986   7.587   0.948   1.279  0.5653  1.6741  0.7343
 4597TIP3    H237987   7.723   0.928   1.343  0.8569  1.0518 -0.0639
 4598TIP3   OH237988   3.906   6.885   2.184 -0.2729  0.0128 -0.5517
 4598TIP3    H137989   3.851   6.857   2.257 -0.8914  0.4468 -0.8436
 4598TIP3    H237990   3.984   6.923   2.225 -0.0067 -0.9570 -0.1427
 4599TIP3   OH237991   7.424   0.334   1.230  0.4717 -0.2496  0.3971
 4599TIP3    H137992   7.469   0.263   1.184  1.6183  1.0671 -0.5925
 4599TIP3    H237993   7.353   0.359   1.170  0.4101 -0.1838  0.4967
 4600TIP3   OH237994   3.597   4.916   7.996  0.0566  0.5387 -0.1523
 4600TIP3    H137995   3.617   4.874   8.080 -0.0103  2.1107  0.6934
 4600TIP3    H237996   3.537   4.855   7.953 -0.3525 -0.0659  1.2002
 4601TIP3   OH237997   6.137   6.278   8.691  0.0576  0.1613 -0.1823
 4601TIP3    H137998   6.133   6.304   8.599 -0.0135  0.8501  0.0125
 4601TIP3    H237999   6.226   6.245   8.702  1.0452  2.6844  0.1606
 4602TIP3   OH238000   3.207   5.181   8.995  0.0865 -0.3132  0.6341
 4602TIP3    H138001   3.186   5.233   8.917 -0.8290 -3.6905 -1.5895
 4602TIP3    H238002   3.121   5.160   9.032  0.5021  0.8467  2.3634
 4603TIP3   OH238003   4.956   2.473   9.608  0.0293  0.2943  0.4583
 4603TIP3    H138004   4.972   2.411   9.537  1.0431 -1.7897  2.4083
 4603TIP3    H238005   5.043   2.495   9.641 -0.4512  0.2916  1.7868
 4604TIP3   OH238006   5.698   1.606   0.940  0.0597  0.4879 -0.3634
 4604TIP3    H138007   5.649   1.633   0.863 -1.8903  0.2930  0.7359
 4604TIP3    H238008   5.636   1.552   0.990  1.2424  0.6396  1.3428
 4605TIP3   OH238009   0.181   6.864   1.765  0.2073 -0.6051  0.3881
 4605TIP3    H138010   0.125   6.816   1.703  2.0758 -2.0416 -0.3007
 4605TIP3    H238011   0.124   6.880   1.841 -1.4455 -0.9682 -0.7160
 4606TIP3   OH238012   5.223   0.534   9.123 -0.0328 -0.2489  0.0537
 4606TIP3    H138013   5.206   0.527   9.217  0.2073 -2.4285 -0.0136
 4606TIP3    H238014   5.256   0.622   9.111 -0.8256  0.3511  1.8867
 4607TIP3   OH238015   3.063   7.098   8.589 -0.3921 -0.0261 -0.5784
 4607TIP3    H138016   3.115   7.079   8.667  1.6617 -0.9051 -2.0569
 4607TIP3    H238017   3.021   7.014   8.568 -1.6165  0.4176  0.0121
 4608TIP3   OH238018   1.526   4.224   7.867  0.1755 -0.2040 -0.1906
 4608TIP3    H138019   1.486   4.290   7.923 -0.3841  0.6679 -1.5568
 4608TIP3    H238020   1.532   4.267   7.781  0.8989 -1.5272 -0.8239
 4609TIP3   OH238021   4.380   3.577   9.042 -0.4276 -0.2019 -0.2517
 4609TIP3    H138022   4.329   3.640   9.093 -0.3585 -0.7003  0.4407
 4609TIP3    H238023   4.328   3.564   8.962 -0.8235  0.1467 -0.0563
 4610TIP3   OH238024   3.601   1.751   7.437 -0.5225  0.7242 -0.3036
 4610TIP3    H138025   3.682   1.712   7.471 -1.2280 -0.7611 -0.2748
 4610TIP3    H238026   3.579   1.699   7.360 -1.7641  0.7096  0.0341
 4611TIP3   OH238027   7.084   2.805   7.984 -1.0221  0.7784 -0.4792
 4611TIP3    H138028   6.997   2.766   7.988 -1.0321  0.9094  0.9634
 4611TIP3    H238029   7.079   2.882   8.040  0.1631  0.4975  0.0465
 4612TIP3   OH238030   4.420   5.672   8.237  0.6127 -0.5462  0.3314
 4612TIP3    H138031   4.369   5.609   8.186 -0.3946 -0.2592  0.9594
 4612TIP3    H238032   4.434   5.629   8.322  0.2811 -0.0991  0.6165
 4613TIP3   OH238033   0.739   4.756   9.601 -0.2120 -0.2071  0.1283
 4613TIP3    H138034   0.668   4.728   9.544 -0.9716  0.4738  0.7179
 4613TIP3    H238035   0.695   4.788   9.680  0.6789  1.3589  0.0180
 4614TIP3   OH238036   3.259   0.682   2.317 -0.3985  0.6483 -0.5081
 4614TIP3    H138037   3.315   0.742   2.366  0.1444  0.7438 -1.2407
 4614TIP3    H238038   3.272   0.597   2.360 -0.6748  0.9146  0.1214
 4615TIP3   OH238039   1.760   6.017   7.135 -0.0307 -0.0721  0.4309
 4615TIP3    H138040   1.849   5.997   7.107 -0.1495 -1.5647  1.0172
 4615TIP3    H238041   1.704   5.970   7.073 -0.4279  0.7917  0.1150
 4616TIP3   OH238042   0.281   2.536   1.124  0.0584  0.1352 -0.0463
 4616TIP3    H138043   0.343   2.487   1.178  0.4059 -0.0527 -0.6000
 4616TIP3    H238044   0.197   2.494   1.139  0.2982 -0.4386 -0.2722
 4617TIP3   OH238045   0.099   5.000   0.075 -0.3942 -0.1405 -0.2790
 4617TIP3    H138046   0.194   5.011   0.069 -0.3218 -1.1346 -1.2114
 4617TIP3    H238047   0.084   4.958   0.159  0.0739 -0.7047 -0.4722
 4618TIP3   OH238048   0.873   1.124   7.888  0.1431  0.2042 -0.1117
 4618TIP3    H138049   0.789   1.079   7.892  0.6469 -0.7356  0.3051
 4618TIP3    H238050   0.852   1.213   7.861 -0.8848 -0.2947 -1.0255
 4619TIP3   OH238051   0.888   1.638   2.570 -0.0592 -0.0447  0.8652
 4619TIP3    H138052   0.803   1.682   2.573  0.7101  1.4419  1.3884
 4619TIP3    H238053   0.920   1.641   2.660  1.2378  0.8353  0.3984
 4620TIP3   OH238054   7.147   3.847   6.588 -0.0004  0.0710 -0.6270
 4620TIP3    H138055   7.131   3.937   6.613 -2.6781 -0.2668 -0.8672
 4620TIP3    H238056   7.171   3.803   6.670 -1.0198  0.5365 -0.0676
 4621TIP3   OH238057   7.611   3.493   9.405 -0.1524  0.1195  0.0532
 4621TIP3    H138058   7.628   3.402   9.381 -0.1286  0.1105  0.1057
 4621TIP3    H238059   7.525   3.512   9.367  0.1709  0.3012 -0.5940
 4622TIP3   OH238060   2.309   1.276   8.015 -0.4669  0.3167 -0.5691
 4622TIP3    H138061   2.309   1.312   7.926  4.4732  2.3206 -0.0858
 4622TIP3    H238062   2.301   1.353   8.072 -0.1369 -0.5112  0.6390
 4623TIP3   OH238063   4.230   6.122   7.502 -0.3381 -0.3135  0.5229
 4623TIP3    H138064   4.283   6.043   7.489  0.6761  0.1215  1.7692
 4623TIP3    H238065   4.273   6.167   7.574 -0.4642  1.7551 -0.6380
 4624TIP3   OH238066   3.655   1.212   3.002 -0.4935  0.4776  0.1213
 4624TIP3    H138067   3.624   1.209   3.092  0.9639 -0.2965  0.6420
 4624TIP3    H238068   3.646   1.304   2.976 -2.3514  0.4346  0.5015
 4625TIP3   OH238069   3.369   7.405   0.255 -0.7079  0.1041 -0.1472
 4625TIP3    H138070   3.460   7.435   0.254 -0.5335 -0.4092  0.0899
 4625TIP3    H238071   3.320   7.478   0.292 -0.4997  0.6756 -0.9836
 4626TIP3   OH238072   7.020   2.918   8.569  0.2775  0.4450  0.1625
 4626TIP3    H138073   7.068   2.994   8.602 -0.7092  1.4114 -0.5738
 4626TIP3    H238074   6.928   2.936   8.592 -0.3693  0.8465 -2.4613
 4627TIP3   OH238075   5.447   5.009   8.312  0.7752 -0.2532  0.6113
 4627TIP3    H138076   5.358   5.043   8.301  0.1447 -1.8490  0.4110
 4627TIP3    H238077   5.502   5.067   8.259 -0.3782 -0.1156 -0.4876
 4628TIP3   OH238078   5.736   6.846   0.257  0.7298 -0.2567  0.6470
 4628TIP3    H138079   5.672   6.785   0.293  0.8140 -0.1334  1.0058
 4628TIP3    H238080   5.789   6.873   0.332  1.4116 -0.6036  0.2966
 4629TIP3   OH238081   5.832   1.604   9.188 -0.7312 -0.0115 -0.7156
 4629TIP3    H138082   5.741   1.610   9.158 -0.9579  0.1034 -0.0102
 4629TIP3    H238083   5.878   1.672   9.138 -1.4480  1.3691  0.4178
 4630TIP3   OH238084   0.075   1.053   0.314  0.2233 -0.6721  0.2405
 4630TIP3    H138085   0.018   1.112   0.264  1.5139 -0.1655 -0.6768
 4630TIP3    H238086   0.154   1.104   0.331  0.8012 -1.6790  0.6565
 4631TIP3   OH238087   6.901   5.235   9.906  0.0643  0.1603 -0.0829
 4631TIP3    H138088   6.837   5.180   9.860  0.5528  0.0959 -0.7094
 4631TIP3    H238089   6.934   5.179   9.976 -0.2780  0.0545 -0.0030
 4632TIP3   OH238090   5.611   6.293   1.097 -0.3227 -0.1521  0.2226
 4632TIP3    H138091   5.626   6.202   1.069  0.7905 -0.3945  1.4924
 4632TIP3    H238092   5.677   6.343   1.048 -0.4666 -0.1277  0.0534
 4633TIP3   OH238093   1.507   1.223   2.193 -0.0388  0.0783  0.1735
 4633TIP3    H138094   1.513   1.266   2.108  0.1230 -1.7466 -0.8049
 4633TIP3    H238095   1.417   1.191   2.198  0.2113 -0.6325  0.2529
 4634TIP3   OH238096   1.210   5.110   2.149  0.1039  0.4793 -0.2659
 4634TIP3    H138097   1.202   5.077   2.060 -0.8923  0.4642 -0.1796
 4634TIP3    H238098   1.181   5.037   2.204  0.6338  0.5146  0.0727
 4635TIP3   OH238099   6.637   4.752   8.596  0.1997  0.2291 -0.0422
 4635TIP3    H138100   6.600   4.664   8.598 -0.2904  0.4226 -0.3348
 4635TIP3    H238101   6.719   4.745   8.644  0.0318 -0.3267  0.1680
 4636TIP3   OH238102   4.318   1.305   9.952  0.7626 -0.3251  0.0938
 4636TIP3    H138103   4.318   1.319  10.047 -1.4342  2.1538 -0.1644
 4636TIP3    H238104   4.408   1.322   9.925  1.1261  0.2894  1.5767
 4637TIP3   OH238105   1.461   6.555   1.552  0.4337 -0.1570 -0.1385
 4637TIP3    H138106   1.416   6.495   1.612 -1.3932  0.4948 -0.7833
 4637TIP3    H238107   1.488   6.500   1.478 -1.2427 -0.2384 -0.7329
 4638TIP3   OH238108   4.423   7.131   0.116  0.4423  0.1670 -0.5023
 4638TIP3    H138109   4.333   7.155   0.093  1.1616  1.4927 -2.1286
 4638TIP3    H238110   4.460   7.097   0.034  0.9594 -1.9627  0.5499
 4639TIP3   OH238111   6.979   4.865   0.388 -0.1714 -0.6357  0.5538
 4639TIP3    H138112   7.047   4.926   0.359 -1.1766  0.1353 -0.2367
 4639TIP3    H238113   7.015   4.778   0.370  0.2406 -0.2196 -0.7151
 4640TIP3   OH238114   4.189   1.664   8.293 -0.3305  0.2845 -0.1325
 4640TIP3    H138115   4.097   1.641   8.302 -0.4809  1.0527  0.3673
 4640TIP3    H238116   4.236   1.592   8.334 -0.7690  0.5863  0.9197
 4641TIP3   OH238117   5.468   7.132   9.977  0.1925  0.1970  0.3404
 4641TIP3    H138118   5.531   7.066  10.005 -1.9888 -1.9643  0.5284
 4641TIP3    H238119   5.467   7.126   9.882  2.5104  2.5688  0.0535
 4642TIP3   OH238120   7.530   0.246   9.072  0.3271  0.1022  0.5174
 4642TIP3    H138121   7.619   0.280   9.065  0.8003 -1.0486  0.5891
 4642TIP3    H238122   7.473   0.322   9.060  1.3197  0.8576  0.5084
 4643TIP3   OH238123   0.930   7.491   6.886 -0.5225 -0.7312  0.3964
 4643TIP3    H138124   0.878   7.560   6.846  0.2907 -0.4286 -0.1772
 4643TIP3    H238125   0.881   7.466   6.964  0.7077  2.7779  2.5359
 4644TIP3   OH238126   5.692   0.050   8.137  0.0669  0.5280  0.2594
 4644TIP3    H138127   5.750   0.092   8.202  0.7790 -0.7576  0.4855
 4644TIP3    H238128   5.663   0.122   8.081  0.1270  1.5387  1.4819
 4645TIP3   OH238129   0.882   4.684   8.547  0.1772 -0.0603  0.1679
 4645TIP3    H138130   0.959   4.703   8.600  0.9651  1.9837 -1.5640
 4645TIP3    H238131   0.894   4.594   8.518  1.2249 -0.2012  0.9858
 4646TIP3   OH238132   3.109   6.771   1.740  0.5131 -0.3852  0.0158
 4646TIP3    H138133   3.115   6.806   1.829 -1.5044  0.4054 -0.1212
 4646TIP3    H238134   3.188   6.804   1.696  0.9145  0.2399  1.1529
 4647TIP3   OH238135   7.469   0.577   0.882  0.0379 -0.0284  0.1526
 4647TIP3    H138136   7.441   0.488   0.905 -0.2833  0.0414  0.0373
 4647TIP3    H238137   7.444   0.630   0.958 -1.0699  0.2115 -0.3626
 4648TIP3   OH238138   0.840   2.516   2.328 -0.4994 -0.2683 -0.4849
 4648TIP3    H138139   0.921   2.466   2.342 -1.3504 -1.0937  2.0269
 4648TIP3    H238140   0.849   2.593   2.385 -0.8388  0.4571 -1.3935
 4649TIP3   OH238141   2.153   3.009   3.524  0.3260  0.2901  0.3174
 4649TIP3    H138142   2.240   3.037   3.494  0.1638  2.8067  1.9199
 4649TIP3    H238143   2.104   2.995   3.443  1.3653  1.8143 -0.6414
 4650TIP3   OH238144   7.549   4.083   7.904 -0.6365 -0.2901 -0.3088
 4650TIP3    H138145   7.501   4.018   7.852 -0.1746 -2.1576  1.4947
 4650TIP3    H238146   7.484   4.116   7.966 -0.5772  0.1741 -0.4879
 4651TIP3   OH238147   0.454   1.715   0.485  0.5469 -0.5119 -0.3101
 4651TIP3    H138148   0.533   1.730   0.536  0.2611 -0.0865  0.0056
 4651TIP3    H238149   0.465   1.769   0.406 -0.4246  1.3575  0.7645
 4652TIP3   OH238150   1.015   1.419   8.442  0.2094 -0.3599 -0.5237
 4652TIP3    H138151   0.944   1.430   8.506  0.5714  0.1811 -0.2040
 4652TIP3    H238152   1.094   1.443   8.491  0.7158 -1.7367 -0.6394
 4653TIP3   OH238153   3.240   1.104   0.053  0.1353  0.3631  0.0822
 4653TIP3    H138154   3.254   1.175  -0.009 -2.5978  1.4372  0.5580
 4653TIP3    H238155   3.239   1.147   0.139  0.3791 -0.5639  0.5592
 4654TIP3   OH238156   4.257   2.251   1.018  0.0163  0.0033  0.3342
 4654TIP3    H138157   4.310   2.327   1.041 -1.2951  0.9089  0.4735
 4654TIP3    H238158   4.172   2.287   0.994 -1.6818 -1.5716  3.4292
 4655TIP3   OH238159   5.065   7.034   1.377 -0.4889 -0.7945  0.1316
 4655TIP3    H138160   5.048   6.976   1.451  1.0827 -0.3675  0.8814
 4655TIP3    H238161   5.143   6.997   1.335 -1.0014 -0.6759 -0.9450
 4656TIP3   OH238162   6.135   4.119   9.709 -0.3005 -0.7934  0.2180
 4656TIP3    H138163   6.164   4.196   9.661 -1.1843  1.4145  2.9700
 4656TIP3    H238164   6.078   4.073   9.647  1.5413 -0.2124 -2.0611
 4657TIP3   OH238165   5.317   4.309   7.604  0.2396  0.0873  0.1590
 4657TIP3    H138166   5.374   4.259   7.662  0.7869  1.0022  0.4234
 4657TIP3    H238167   5.287   4.244   7.539  1.7526 -0.3773 -0.1292
 4658TIP3   OH238168   4.013   0.315   1.046 -0.9186  0.0458  0.3196
 4658TIP3    H138169   4.090   0.363   1.016 -0.7776 -1.3846 -1.8822
 4658TIP3    H238170   4.011   0.328   1.140  0.8091  1.8332  0.1737
 4659TIP3   OH238171   4.273   3.645   7.148 -0.5870 -0.0613 -0.2473
 4659TIP3    H138172   4.309   3.734   7.146  2.5658 -1.1818  0.5113
 4659TIP3    H238173   4.186   3.656   7.185  0.5950  2.5233  2.1976
 4660TIP3   OH238174   1.083   1.823   2.825 -0.3477 -1.3685  0.6652
 4660TIP3    H138175   1.097   1.852   2.735 -0.0436 -0.3268  1.0416
 4660TIP3    H238176   1.169   1.831   2.866 -1.0040  0.7274  1.7644
 4661TIP3   OH238177   7.516   3.874   1.106 -0.3364 -0.2357 -0.5077
 4661TIP3    H138178   7.579   3.879   1.178 -0.2217 -3.9033 -0.1403
 4661TIP3    H238179   7.431   3.865   1.149 -0.9105  2.1898 -0.9843
 4662TIP3   OH238180   5.772   0.353   8.439  0.4626 -0.2105  0.1962
 4662TIP3    H138181   5.772   0.306   8.522 -0.0256  1.2045  1.0345
 4662TIP3    H238182   5.864   0.361   8.416  0.6551  0.0991  1.0354
 4663TIP3   OH238183   5.015   2.922   7.756  0.5638  0.4228  0.2547
 4663TIP3    H138184   5.031   2.868   7.833 -0.7574 -1.4039 -0.6936
 4663TIP3    H238185   5.063   2.879   7.685 -2.2804 -0.9253 -1.0025
 4664TIP3   OH238186   1.254   1.421   7.575 -0.2250 -0.3737  0.0682
 4664TIP3    H138187   1.209   1.414   7.490 -0.1990  0.5999 -0.0372
 4664TIP3    H238188   1.338   1.463   7.554  0.2199 -1.0724  0.4385
 4665TIP3   OH238189   2.740   2.170   1.653 -0.6730  0.3552  0.0303
 4665TIP3    H138190   2.736   2.090   1.601 -1.0007  0.9566 -0.9099
 4665TIP3    H238191   2.725   2.240   1.589  2.8061  1.4123  0.1890
 4666TIP3   OH238192   2.021   2.369   1.465  0.0830  0.9735  0.3989
 4666TIP3    H138193   2.033   2.424   1.387 -0.9247  2.6938  1.3858
 4666TIP3    H238194   2.081   2.405   1.530  1.4750 -0.9316  0.2370
 4667TIP3   OH238195   7.555   2.176   9.704  0.1217 -0.5857  0.3541
 4667TIP3    H138196   7.568   2.094   9.751  0.0509 -0.0290  1.3768
 4667TIP3    H238197   7.542   2.242   9.773  1.5692  0.5456 -0.3806
 4668TIP3   OH238198   6.634   1.650   8.332 -0.0345  0.4024 -0.1488
 4668TIP3    H138199   6.617   1.742   8.351  0.3216  0.5272 -0.4370
 4668TIP3    H238200   6.634   1.645   8.236 -2.4010 -0.3271 -0.1919
 4669TIP3   OH238201   0.311   3.284   0.069 -0.7350 -0.5971  0.0019
 4669TIP3    H138202   0.239   3.262   0.127 -0.2168 -0.8513  0.5649
 4669TIP3    H238203   0.284   3.365   0.026 -1.3970 -0.7513  0.1164
 4670TIP3   OH238204   5.125   0.920   9.815  0.6117 -0.0226 -0.0140
 4670TIP3    H138205   5.118   1.009   9.851  0.2955 -0.0043 -0.1166
 4670TIP3    H238206   5.051   0.913   9.754  2.2588  0.6757 -2.2473
 4671TIP3   OH238207   1.284   3.851   1.599 -0.0639 -0.0657  0.5315
 4671TIP3    H138208   1.189   3.860   1.608  0.0867  0.9779  1.2494
 4671TIP3    H238209   1.312   3.934   1.562  0.6425 -0.1349  0.9035
 4672TIP3   OH238210   7.248   6.078   2.223 -0.0173  0.4132  0.5831
 4672TIP3    H138211   7.268   6.049   2.312 -1.7667 -1.5511  0.4104
 4672TIP3    H238212   7.333   6.099   2.185  0.8995 -0.0657  2.2656
 4673TIP3   OH238213   6.785   3.705   9.601 -0.1583  0.0079  0.4545
 4673TIP3    H138214   6.733   3.666   9.671 -1.3125 -1.4976 -1.1554
 4673TIP3    H238215   6.784   3.640   9.531  0.8593  1.4829 -1.0191
 4674TIP3   OH238216   7.457   1.327   0.378  0.2860 -0.1927  0.7400
 4674TIP3    H138217   7.456   1.238   0.345 -0.1864  0.3611 -0.8503
 4674TIP3    H238218   7.375   1.337   0.426 -0.5631 -0.0588 -0.7084
 4675TIP3   OH238219   3.070   2.377   2.378 -0.1527 -0.2883 -0.0219
 4675TIP3    H138220   3.082   2.282   2.383  1.6258 -0.0407  1.3025
 4675TIP3    H238221   3.145   2.408   2.328 -1.7174  0.3186 -2.1697
 4676TIP3   OH238222   0.528   7.247   7.605  0.4886 -0.0108  0.0635
 4676TIP3    H138223   0.455   7.252   7.544 -0.2385 -0.1904  0.8978
 4676TIP3    H238224   0.604   7.230   7.550 -0.2385 -0.7579 -0.7387
 4677TIP3   OH238225   5.693   2.589   0.041  0.5781 -0.2942  0.1360
 4677TIP3    H138226   5.755   2.660   0.058  0.5240  0.1061 -1.2796
 4677TIP3    H238227   5.747   2.510   0.037  0.8917 -0.0589 -0.2675
 4678TIP3   OH238228   4.654   2.484   7.435  0.3761  0.1128  0.0195
 4678TIP3    H138229   4.685   2.395   7.421 -1.3970 -0.7209  0.9681
 4678TIP3    H238230   4.704   2.515   7.511  0.8282 -0.1503 -0.1674
 4679TIP3   OH238231   3.470   2.841   8.861  0.2641 -0.5976  0.8191
 4679TIP3    H138232   3.408   2.879   8.799  0.5902 -0.1978  0.7370
 4679TIP3    H238233   3.434   2.863   8.947  0.1005 -0.6824  0.7744
 4680TIP3   OH238234   4.768   6.248   2.472 -0.0647  1.0637  0.1748
 4680TIP3    H138235   4.718   6.194   2.534  0.5160  0.8960  0.5080
 4680TIP3    H238236   4.714   6.250   2.393  0.5513 -1.2552 -0.3863
 4681TIP3   OH238237   4.190   6.714   1.962  0.3776  0.1885  0.0910
 4681TIP3    H138238   4.224   6.628   1.940  1.1561  0.1279  1.4648
 4681TIP3    H238239   4.115   6.696   2.019  0.2409  0.4083 -0.0187
 4682TIP3   OH238240   2.266   0.348   2.972  0.2611 -0.3349 -0.1022
 4682TIP3    H138241   2.343   0.292   2.962  0.0853 -0.3786 -1.4598
 4682TIP3    H238242   2.251   0.383   2.884  0.4554  1.9993  0.7391
 4683TIP3   OH238243   5.227   1.552   7.198 -0.1640 -0.0940 -0.1421
 4683TIP3    H138244   5.256   1.636   7.161 -0.4894  0.8037  1.5658
 4683TIP3    H238245   5.271   1.547   7.283 -1.0696 -1.1064  0.2759
 4684TIP3   OH238246   0.870   6.191   8.180  0.2965 -1.1052 -0.7851
 4684TIP3    H138247   0.922   6.271   8.187  2.5421 -2.5392  0.2274
 4684TIP3    H238248   0.819   6.188   8.261  0.7355 -1.0191 -0.5022
 4685TIP3   OH238249   4.879   7.123   2.512 -0.1392 -0.0267  0.0602
 4685TIP3    H138250   4.866   7.140   2.605  0.6542  1.3311 -0.0491
 4685TIP3    H238251   4.970   7.095   2.504  0.1281  0.9315 -0.4162
 4686TIP3   OH238252   1.380   2.385   1.054  0.2555  0.1176 -0.3595
 4686TIP3    H138253   1.416   2.371   0.966 -0.7810 -0.7549 -0.6596
 4686TIP3    H238254   1.388   2.299   1.096 -1.5372 -0.1305 -0.4716
 4687TIP3   OH238255   4.798   6.741   1.683 -0.3630 -0.4045 -0.3763
 4687TIP3    H138256   4.862   6.807   1.656 -0.9641  0.2951 -0.1184
 4687TIP3    H238257   4.851   6.667   1.713  0.3221 -0.4097 -1.5204
 4688TIP3   OH238258   3.650   6.338   0.644 -0.7398  0.1004  0.4009
 4688TIP3    H138259   3.677   6.246   0.650 -0.6168  0.1554  0.7479
 4688TIP3    H238260   3.555   6.335   0.639 -0.7922 -0.0211  1.2212
 4689TIP3   OH238261   0.534   1.526   7.829  0.9175 -0.2924 -0.1534
 4689TIP3    H138262   0.515   1.480   7.747 -0.7843  1.4188 -0.7754
 4689TIP3    H238263   0.507   1.616   7.814  2.3351  0.5203  1.6896
 4690TIP3   OH238264   2.964   6.817   8.543 -0.3537 -0.5502  0.4022
 4690TIP3    H138265   2.893   6.830   8.607 -1.4852 -1.8570 -0.5255
 4690TIP3    H238266   3.009   6.738   8.574 -0.3362 -0.6642  0.0854
 4691TIP3   OH238267   0.501   0.646   2.810 -0.4927 -0.8887  0.3498
 4691TIP3    H138268   0.440   0.621   2.740 -0.5359 -1.0342  0.4393
 4691TIP3    H238269   0.446   0.658   2.887 -0.3484 -1.5455  0.5642
 4692TIP3   OH238270   2.447   5.293   8.504  0.4600  0.2233 -0.0451
 4692TIP3    H138271   2.509   5.342   8.449  0.8421 -1.4332 -1.1674
 4692TIP3    H238272   2.361   5.315   8.467  0.2710  2.6568  1.6201
 4693TIP3   OH238273   7.500   4.842   1.101  0.0775  0.0254 -0.6630
 4693TIP3    H138274   7.407   4.855   1.083  0.4206  1.0747 -1.8422
 4693TIP3    H238275   7.536   4.930   1.112  1.0315 -0.3295 -0.7983
 4694TIP3   OH238276   4.489   1.218   9.417 -0.2593 -0.8250 -0.2676
 4694TIP3    H138277   4.470   1.138   9.466 -0.2498 -0.3296  0.5616
 4694TIP3    H238278   4.555   1.191   9.353  1.5170 -1.0143  1.5345
 4695TIP3   OH238279   1.422   7.002   7.059  0.1631 -0.2232  0.3106
 4695TIP3    H138280   1.353   6.940   7.034 -1.3007  0.6894  1.8938
 4695TIP3    H238281   1.421   7.001   7.154  0.5802  1.7280  0.3663
 4696TIP3   OH238282   2.361   4.086   9.887 -0.0904  0.0470 -0.4230
 4696TIP3    H138283   2.402   4.073   9.801  0.2620  1.0044 -0.4138
 4696TIP3    H238284   2.364   4.000   9.928  3.7575  0.3803  0.3889
 4697TIP3   OH238285   6.818   5.673   7.317 -0.3217 -0.7860 -0.1521
 4697TIP3    H138286   6.906   5.657   7.353  0.3403 -0.1097 -1.3819
 4697TIP3    H238287   6.827   5.756   7.269 -1.6968 -0.6052 -0.1188
 4698TIP3   OH238288   6.288   6.283   2.384 -0.3185  0.0728  0.1380
 4698TIP3    H138289   6.273   6.353   2.321 -1.4086  0.5709  0.9188
 4698TIP3    H238290   6.201   6.245   2.399  0.4604 -2.7516 -1.7007
 4699TIP3   OH238291   2.849   4.832   7.305 -0.2797 -0.2844  0.2473
 4699TIP3    H138292   2.898   4.774   7.363 -0.0403  0.4324  0.7723
 4699TIP3    H238293   2.911   4.852   7.234 -0.0530  0.0300  0.5279
 4700TIP3   OH238294   0.755   6.847   1.165  0.0312 -0.5349 -0.2064
 4700TIP3    H138295   0.704   6.838   1.084 -1.4286 -0.6186  0.6744
 4700TIP3    H238296   0.689   6.857   1.234  1.2506  0.1926  0.9074
 4701TIP3   OH238297   2.985   1.886   9.494 -0.6710  0.2398 -0.0311
 4701TIP3    H138298   2.950   1.971   9.467  1.1851  0.2041 -3.0346
 4701TIP3    H238299   2.948   1.823   9.431  1.2259 -0.4520 -0.5305
 4702TIP3   OH238300   7.411   3.491   0.540 -0.3629 -0.5431 -0.1455
 4702TIP3    H138301   7.348   3.420   0.552  1.1259 -1.9961 -0.5135
 4702TIP3    H238302   7.434   3.488   0.447  2.5882 -2.2295  0.5074
 4703TIP3   OH238303   5.868   1.376   1.363  0.6010 -0.5001 -0.3163
 4703TIP3    H138304   5.953   1.419   1.374  0.9643 -1.4788  0.9375
 4703TIP3    H238305   5.806   1.432   1.409  1.2049 -1.6514  2.0335
 4704TIP3   OH238306   5.933   3.424   7.225 -0.4684  0.2916 -0.4352
 4704TIP3    H138307   6.026   3.398   7.220 -0.6552 -0.3657 -0.6523
 4704TIP3    H238308   5.934   3.519   7.212  0.1052  0.1733 -1.4010
 4705TIP3   OH238309   4.381   2.298   2.548  0.5115  0.4353 -0.0953
 4705TIP3    H138310   4.336   2.213   2.545  2.0522 -0.4332  0.0385
 4705TIP3    H238311   4.380   2.322   2.641 -1.1232  1.2583 -0.3093
 4706TIP3   OH238312   7.117   4.379   7.529 -0.3175 -0.1855  0.3913
 4706TIP3    H138313   7.081   4.310   7.584  1.0928  0.2983  2.0144
 4706TIP3    H238314   7.176   4.334   7.469  0.3674 -0.4535  1.2463
 4707TIP3   OH238315   1.766   4.467   0.156 -0.0671  0.0834  0.3148
 4707TIP3    H138316   1.809   4.428   0.232 -0.8014  1.0820  1.2686
 4707TIP3    H238317   1.679   4.428   0.155 -0.1444  0.2588  0.1203
 4708TIP3   OH238318   5.269   1.874   9.577  0.1074  0.1943  0.1636
 4708TIP3    H138319   5.238   1.794   9.535 -0.1628  0.5842 -0.3982
 4708TIP3    H238320   5.189   1.921   9.601  0.2303  1.0789 -1.0404
 4709TIP3   OH238321   3.848   0.458   7.300 -0.0876  0.1186 -0.4724
 4709TIP3    H138322   3.887   0.395   7.360 -0.6559  1.2888  1.1991
 4709TIP3    H238323   3.805   0.404   7.233  0.5274 -1.2215  0.1872
 4710TIP3   OH238324   7.558   5.453   0.290 -0.1911 -0.4449  0.2435
 4710TIP3    H138325   7.534   5.463   0.382  2.2199 -0.6770  0.9764
 4710TIP3    H238326   7.575   5.359   0.280 -1.1191 -0.5364 -0.6576
 4711TIP3   OH238327   3.482   0.491   9.639 -0.5188  0.1898 -0.4629
 4711TIP3    H138328   3.574   0.515   9.625 -0.3612 -1.0491 -1.7108
 4711TIP3    H238329   3.448   0.561   9.696  0.6891  1.6910 -1.4940
 4712TIP3   OH238330   6.622   7.675   2.431  0.0706 -0.0929  0.0649
 4712TIP3    H138331   6.672   7.669   2.513 -0.8511 -0.9601  0.5896
 4712TIP3    H238332   6.578   7.591   2.424  0.4850 -0.2119 -1.5839
 4713TIP3   OH238333   4.020   1.773   0.284 -0.0350  0.1811  0.0473
 4713TIP3    H138334   4.078   1.849   0.295  0.2054  0.1158 -0.7417
 4713TIP3    H238335   4.079   1.698   0.280 -0.2243  0.0389 -0.0487
 4714TIP3   OH238336   7.359   3.327   0.282 -0.3989 -0.2123 -0.3303
 4714TIP3    H138337   7.407   3.249   0.253  4.2721  1.8432  0.8997
 4714TIP3    H238338   7.407   3.400   0.243 -0.0132  2.2605  4.1134
 4715TIP3   OH238339   0.586   3.830   2.046  0.1849  0.5837  0.7384
 4715TIP3    H138340   0.534   3.895   2.094  0.5357  0.1372  1.7460
 4715TIP3    H238341   0.567   3.747   2.090 -1.5344 -0.3314 -1.5295
 4716TIP3   OH238342   2.539   7.200   7.245 -0.1297 -0.2694 -0.1397
 4716TIP3    H138343   2.604   7.169   7.182 -0.1789 -2.2002  0.7212
 4716TIP3    H238344   2.456   7.165   7.213 -0.4294  0.2799  0.0186
 4717TIP3   OH238345   2.307   5.168   3.382 -0.0241 -0.5297  0.1259
 4717TIP3    H138346   2.340   5.241   3.434 -1.9179  0.1583  0.4389
 4717TIP3    H238347   2.278   5.208   3.300  2.3005 -1.5091 -1.2601
 4718TIP3   OH238348   4.681   0.984   1.954  0.3891  0.3056  0.0147
 4718TIP3    H138349   4.597   0.964   1.996 -0.2013 -0.5025 -1.4528
 4718TIP3    H238350   4.657   1.033   1.875  1.3381  0.4507 -0.1996
 4719TIP3   OH238351   7.403   2.824   9.463 -0.5663 -0.0055 -0.3066
 4719TIP3    H138352   7.493   2.838   9.494 -0.0165  0.7038 -2.1013
 4719TIP3    H238353   7.360   2.778   9.535  1.1623 -0.1441  0.6972
 4720TIP3   OH238354   3.519   4.334   2.448 -0.3942 -0.6020  0.3750
 4720TIP3    H138355   3.449   4.291   2.497 -1.3050  0.3857 -0.0117
 4720TIP3    H238356   3.597   4.283   2.469 -1.1047 -1.3663  1.3101
 4721TIP3   OH238357   7.181   5.089   9.342  0.2238  0.6430 -0.0880
 4721TIP3    H138358   7.156   5.142   9.418  0.7203  1.8933 -0.7663
 4721TIP3    H238359   7.276   5.087   9.345  0.2569  0.9624 -0.8394
 4722TIP3   OH238360   1.590   7.061   0.546  0.1182  0.0066 -0.4152
 4722TIP3    H138361   1.561   7.152   0.537 -0.4424 -0.0488  0.6314
 4722TIP3    H238362   1.604   7.031   0.456  3.2407  2.0182 -0.7248
 4723TIP3   OH238363   2.668   5.103   9.040 -0.0085 -0.3826 -0.2480
 4723TIP3    H138364   2.665   5.009   9.022  0.0579 -0.5285  0.4785
 4723TIP3    H238365   2.655   5.110   9.135 -0.6191  0.3734 -0.3711
 4724TIP3   OH238366   3.783   4.112   0.399  0.3667 -0.0403  0.6303
 4724TIP3    H138367   3.722   4.112   0.473 -0.5230  0.4367 -0.0915
 4724TIP3    H238368   3.729   4.128   0.322  1.4566  0.8643  0.0106
 4725TIP3   OH238369   5.040   1.840   1.268  0.2468 -0.0681 -0.6227
 4725TIP3    H138370   5.031   1.838   1.363  0.1424 -0.3069 -0.6374
 4725TIP3    H238371   5.125   1.881   1.253  0.3563 -0.2185 -0.4221
 4726TIP3   OH238372   0.680   0.718   2.133  0.0179 -0.4425  0.2761
 4726TIP3    H138373   0.750   0.664   2.096  1.1183  1.9927 -1.3891
 4726TIP3    H238374   0.680   0.798   2.081 -4.1036 -0.3069  0.1232
 4727TIP3   OH238375   5.249   1.173   7.838 -0.9740  0.0353  0.3795
 4727TIP3    H138376   5.254   1.081   7.812  0.6054  0.0571  0.5246
 4727TIP3    H238377   5.300   1.220   7.772  2.0908  0.2302  2.6821
 4728TIP3   OH238378   4.581   2.100   0.077 -0.3260  0.5538  0.0876
 4728TIP3    H138379   4.544   2.100  -0.011  0.0611  2.6673 -0.1146
 4728TIP3    H238380   4.569   2.189   0.109  3.6444  1.1705  0.3775
 4729TIP3   OH238381   0.181   1.807   8.247  0.1925 -0.5001 -0.5529
 4729TIP3    H138382   0.171   1.722   8.204 -1.3262 -0.9051  0.5180
 4729TIP3    H238383   0.100   1.818   8.298  1.0543  0.8502  0.6059
 4730TIP3   OH238384   6.022   6.119   8.391 -0.2961  0.0951 -0.0393
 4730TIP3    H138385   5.952   6.151   8.447 -1.4856 -0.7715 -0.9765
 4730TIP3    H238386   6.063   6.049   8.442 -0.4091  0.2943  0.3309
 4731TIP3   OH238387   3.653   3.224   0.896 -0.6101  0.4878 -0.2142
 4731TIP3    H138388   3.731   3.222   0.951  0.3523 -3.0749 -1.4522
 4731TIP3    H238389   3.580   3.214   0.957  0.4024 -2.9803  0.6419
 4732TIP3   OH238390   5.301   3.336   9.226  0.4217  0.3675  0.0030
 4732TIP3    H138391   5.225   3.371   9.271  0.3208  0.3260 -0.1364
 4732TIP3    H238392   5.273   3.250   9.194  1.0448 -0.3720  1.3898
 4733TIP3   OH238393   5.016   1.230   0.542  0.4815  0.4385  1.0982
 4733TIP3    H138394   5.095   1.279   0.518  1.5238 -2.5029 -2.3953
 4733TIP3    H238395   4.959   1.237   0.465 -0.3312 -1.7367  1.4189
 4734TIP3   OH238396   1.823   3.345   3.068 -0.4208  0.2645  0.0465
 4734TIP3    H138397   1.745   3.338   3.122 -0.5783 -0.9690 -0.2912
 4734TIP3    H238398   1.887   3.287   3.110 -0.1936  0.1266 -0.4711
 4735TIP3   OH238399   3.529   4.981   7.512  0.5669 -0.1338  0.7461
 4735TIP3    H138400   3.602   5.012   7.566  0.4813 -0.4200  1.0266
 4735TIP3    H238401   3.483   4.917   7.567  0.4498 -0.3924  0.3527
 4736TIP3   OH238402   5.374   7.434   8.069  0.0859  0.1616  0.3768
 4736TIP3    H138403   5.291   7.480   8.084  0.1388 -0.0051  1.2484
 4736TIP3    H238404   5.353   7.342   8.085  0.1909 -0.0218 -0.4811
 4737TIP3   OH238405   5.374   2.079   0.717 -0.0023  0.0698 -0.4330
 4737TIP3    H138406   5.442   2.038   0.665 -0.3128 -0.7420 -0.2083
 4737TIP3    H238407   5.421   2.138   0.776  0.3884  0.5707 -1.2336
 4738TIP3   OH238408   2.268   1.907   2.712 -0.2177 -0.3332 -0.9211
 4738TIP3    H138409   2.181   1.919   2.749 -0.3879 -1.3080 -0.9764
 4738TIP3    H238410   2.327   1.908   2.787  0.0531  2.6838 -1.0321
 4739TIP3   OH238411   4.699   3.590   7.415 -0.5243  0.5003  0.2548
 4739TIP3    H138412   4.643   3.550   7.482 -0.1681  0.1398  0.3402
 4739TIP3    H238413   4.654   3.672   7.392 -2.0873 -0.6776 -1.0550
 4740TIP3   OH238414   3.937   0.573   8.784  0.3358 -0.0193  0.0999
 4740TIP3    H138415   3.944   0.495   8.729  1.5171  0.1937 -0.0871
 4740TIP3    H238416   3.846   0.600   8.777  0.1562 -0.7883 -0.6681
 4741TIP3   OH238417   3.438   0.883   0.133 -0.1725 -0.2811 -0.4054
 4741TIP3    H138418   3.395   0.963   0.102 -0.7167 -0.2819  0.3261
 4741TIP3    H238419   3.370   0.837   0.181  0.3624 -0.8082 -0.1460
 4742TIP3   OH238420   5.906   3.428   8.725  0.2926  0.5996 -0.1923
 4742TIP3    H138421   5.918   3.522   8.738  3.3568  0.2747  0.0602
 4742TIP3    H238422   5.994   3.393   8.718 -0.6537 -2.5454  1.5614
 4743TIP3   OH238423   5.748   6.795   1.536  0.0320  0.0895  0.1218
 4743TIP3    H138424   5.767   6.869   1.478 -0.6185 -0.1200 -0.3702
 4743TIP3    H238425   5.700   6.734   1.481 -1.2139  0.1950  1.0658
 4744TIP3   OH238426   6.758   4.939   8.381  0.1136 -0.0809 -0.3245
 4744TIP3    H138427   6.843   4.944   8.424 -0.8404 -2.2419  2.1172
 4744TIP3    H238428   6.748   4.846   8.358 -2.0994 -0.1814  0.7472
 4745TIP3   OH238429   7.659   4.199   7.119 -0.1952 -1.1242 -0.2512
 4745TIP3    H138430   7.600   4.274   7.113 -1.2786 -1.5044  3.1874
 4745TIP3    H238431   7.717   4.221   7.192  0.5250 -2.9593 -0.2179
 4746TIP3   OH238432   3.389   3.943   1.398  0.2284 -0.4492 -0.5318
 4746TIP3    H138433   3.377   3.848   1.396 -0.9696 -0.3619  0.8311
 4746TIP3    H238434   3.321   3.974   1.459  0.4329  1.3019 -1.1585
 4747TIP3   OH238435   6.299   3.839   9.334 -0.1768  0.7452  0.1993
 4747TIP3    H138436   6.230   3.906   9.339  0.6767  1.8643 -1.8687
 4747TIP3    H238437   6.332   3.832   9.424 -1.0971  2.2481  0.6892
 4748TIP3   OH238438   3.014   4.543   7.696 -0.0245 -0.8866 -0.3326
 4748TIP3    H138439   3.037   4.551   7.604 -1.3062 -2.3208 -0.8326
 4748TIP3    H238440   2.930   4.496   7.696 -0.6212  0.0495  1.5251
 4749TIP3   OH238441   2.332   6.186   9.611  0.0495  0.2650  0.0597
 4749TIP3    H138442   2.291   6.146   9.534  1.5344 -0.0143 -0.6240
 4749TIP3    H238443   2.264   6.185   9.678 -1.4061  0.8944 -1.3673
 4750TIP3   OH238444   1.843   7.434   9.908 -0.5116 -0.1437 -0.1698
 4750TIP3    H138445   1.834   7.528   9.891 -0.7413  0.1353  1.3439
 4750TIP3    H238446   1.754   7.406   9.931 -0.0983 -0.3180  1.2608
 4751TIP3   OH238447   6.334   4.677   7.740  0.5211 -0.2998  0.6010
 4751TIP3    H138448   6.320   4.594   7.695  1.3935 -1.0479  1.6587
 4751TIP3    H238449   6.248   4.702   7.773  0.3169 -0.9674  0.5885
 4752TIP3   OH238450   2.060   5.880   1.825  0.0304  0.0593  0.1060
 4752TIP3    H138451   1.974   5.903   1.860 -0.5114 -2.0377  0.2979
 4752TIP3    H238452   2.051   5.892   1.730 -0.1583  0.8010  0.2167
 4753TIP3   OH238453   1.145   6.610   0.479 -0.4254 -0.1393  0.0206
 4753TIP3    H138454   1.239   6.594   0.485 -0.3168  0.9369  2.0230
 4753TIP3    H238455   1.109   6.571   0.558 -1.6684 -0.4254 -0.6594
 4754TIP3   OH238456   0.047   5.639   9.715  0.5354 -0.2146  0.2745
 4754TIP3    H138457   0.061   5.619   9.622  1.7051 -3.8694  1.0601
 4754TIP3    H238458  -0.010   5.568   9.745  0.7542  0.4937  2.5052
 4755TIP3   OH238459   1.869   7.304   9.564 -0.2604  1.1561 -0.6587
 4755TIP3    H138460   1.924   7.366   9.612 -1.4566  1.1224  0.7980
 4755TIP3    H238461   1.812   7.359   9.510  1.0479  1.1940 -2.0942
 4756TIP3   OH238462   6.587   2.818   1.779  0.2277  0.2591 -0.1295
 4756TIP3    H138463   6.550   2.904   1.800  1.9575  0.9489  0.2703
 4756TIP3    H238464   6.672   2.837   1.740 -0.2598 -1.2317 -2.0618
 4757TIP3   OH238465   2.904   0.883   1.029 -0.2136  0.3306  0.0065
 4757TIP3    H138466   2.996   0.869   1.008 -0.6205 -1.2426 -0.8437
 4757TIP3    H238467   2.887   0.826   1.104 -0.7963 -0.3873 -0.6541
 4758TIP3   OH238468   7.563   5.919   1.176 -0.3081 -0.5805 -0.1510
 4758TIP3    H138469   7.533   5.944   1.264  3.1812 -1.8076  1.5952
 4758TIP3    H238470   7.498   5.856   1.145 -1.5519 -0.2465  1.6164
 4759TIP3   OH238471   2.704   0.767   0.456 -0.3547 -0.3307 -0.3122
 4759TIP3    H138472   2.751   0.732   0.531  3.4900  4.0040 -0.2720
 4759TIP3    H238473   2.750   0.731   0.380  0.7178  1.0238 -0.3403
 4760TIP3   OH238474   4.859   3.767   8.287 -0.6322 -0.0845 -0.0125
 4760TIP3    H138475   4.771   3.732   8.303 -1.0193  1.4535  1.4872
 4760TIP3    H238476   4.911   3.733   8.360 -0.6100  1.0510  0.5146
 4761TIP3   OH238477   7.320   6.076   0.198 -0.2188  0.2128  0.0265
 4761TIP3    H138478   7.406   6.037   0.213 -0.1308 -0.0791 -1.1343
 4761TIP3    H238479   7.332   6.169   0.220  0.9063  0.5504 -1.8130
 4762TIP3   OH238480   2.371   5.552   0.305  0.0073 -0.0638  0.0141
 4762TIP3    H138481   2.420   5.628   0.335 -1.6428  1.9043 -1.9514
 4762TIP3    H238482   2.281   5.568   0.335 -0.2164 -1.7627  0.3755
 4763TIP3   OH238483   7.588   3.259   0.090  0.7820 -0.8177 -0.0291
 4763TIP3    H138484   7.660   3.255   0.153 -0.1056  0.8955  1.1778
 4763TIP3    H238485   7.534   3.183   0.112  1.5971 -1.4485 -0.1647
 4764TIP3   OH238486   1.069   7.274   8.854 -0.1802  0.5763  0.1487
 4764TIP3    H138487   0.986   7.273   8.807  0.0716 -0.9877 -0.3103
 4764TIP3    H238488   1.055   7.216   8.929  0.6984 -0.2857 -0.3354
 4765TIP3   OH238489   1.054   1.003   9.540  0.1743  0.1278  0.4504
 4765TIP3    H138490   1.005   0.982   9.461  2.0862  0.0058 -0.7500
 4765TIP3    H238491   1.036   0.929   9.599  0.3491 -0.8060 -0.6410
 4766TIP3   OH238492   1.162   5.527   2.500 -0.7067  0.1210  0.4440
 4766TIP3    H138493   1.195   5.617   2.504  1.6449 -0.7084  3.1644
 4766TIP3    H238494   1.215   5.486   2.431 -0.5085  0.3866  0.4349
 4767TIP3   OH238495   3.953   0.938   0.546  0.5141  0.1747  0.2541
 4767TIP3    H138496   4.026   0.908   0.492 -1.1292 -0.3885 -1.7448
 4767TIP3    H238497   3.937   0.865   0.607 -1.2953 -1.7816 -2.3723
 4768TIP3   OH238498   1.706   4.618   2.814 -0.1383 -0.0576  0.2544
 4768TIP3    H138499   1.732   4.537   2.859  1.0121 -0.6703 -1.4139
 4768TIP3    H238500   1.781   4.676   2.823 -0.1845  0.0824 -0.2526
 4769TIP3   OH238501   6.717   0.902   0.986 -0.0054  0.5612 -0.1485
 4769TIP3    H138502   6.726   0.845   1.062  0.1887 -0.4620 -0.9199
 4769TIP3    H238503   6.768   0.859   0.917 -2.0903  0.2210 -1.5616
 4770TIP3   OH238504   7.313   6.419   0.723 -0.1477 -0.4426 -0.1568
 4770TIP3    H138505   7.344   6.492   0.777 -0.3806 -1.2843  1.1690
 4770TIP3    H238506   7.370   6.346   0.747 -0.9258 -1.1017 -0.2640
 4771TIP3   OH238507   0.348   2.102   8.092 -0.3965 -0.4464 -0.0396
 4771TIP3    H138508   0.277   2.166   8.083 -0.1253 -0.0612  0.4957
 4771TIP3    H238509   0.355   2.088   8.186  1.9049  1.4326  0.1557
 4772TIP3   OH238510   4.922   2.231   1.091  0.1796  0.2620  0.0073
 4772TIP3    H138511   4.996   2.267   1.043  0.3643  1.0799  0.8839
 4772TIP3    H238512   4.931   2.266   1.179  0.5700 -2.1931  1.0384
 4773TIP3   OH238513   0.594   6.581   0.515  0.8845  0.2294 -0.0330
 4773TIP3    H138514   0.682   6.617   0.518  0.6929  0.8146 -0.8701
 4773TIP3    H238515   0.576   6.570   0.421 -0.1120  0.5904  0.1030
 4774TIP3   OH238516   4.051   6.194   7.303  0.5288 -0.4034  0.0724
 4774TIP3    H138517   4.099   6.162   7.379  1.4651 -1.5460 -0.9497
 4774TIP3    H238518   4.069   6.129   7.235  0.3494  0.9863 -1.3494
 4775TIP3   OH238519   7.360   5.705   9.447  0.5154 -0.5969  0.5780
 4775TIP3    H138520   7.330   5.786   9.405  1.9159 -0.6061 -0.5427
 4775TIP3    H238521   7.347   5.720   9.541 -0.6664  0.2999  0.2965
 4776TIP3   OH238522   3.225   5.857   9.281 -0.0963  0.2052 -0.3236
 4776TIP3    H138523   3.294   5.851   9.215 -0.5482  2.3385 -1.0655
 4776TIP3    H238524   3.150   5.811   9.242  0.5159 -1.1169  0.0041
 4777TIP3   OH238525   4.562   0.338   0.335  0.0017  0.2000 -0.4348
 4777TIP3    H138526   4.540   0.415   0.388 -1.1804 -0.1411 -0.3849
 4777TIP3    H238527   4.523   0.356   0.249  0.0098 -0.1893 -0.5213
 4778TIP3   OH238528   0.671   1.137   1.765  0.2209  0.5856  0.3559
 4778TIP3    H138529   0.636   1.152   1.677 -0.1151  2.7721  0.8063
 4778TIP3    H238530   0.755   1.183   1.766  0.6551 -0.1940  0.9164
 4779TIP3   OH238531   0.390   0.833   9.009  0.3047 -0.5289 -0.0552
 4779TIP3    H138532   0.372   0.915   8.963 -0.8040 -0.6297  0.1649
 4779TIP3    H238533   0.448   0.858   9.081 -0.7606  0.2650  0.5801
 4780TIP3   OH238534   0.594   5.947   2.463 -0.1531 -0.3253  0.1580
 4780TIP3    H138535   0.641   5.952   2.380  0.3572 -1.2914  0.3851
 4780TIP3    H238536   0.531   6.020   2.459  0.7733  0.4633 -0.4992
 4781TIP3   OH238537   7.394   4.763   2.386  0.3703 -0.5538  0.2359
 4781TIP3    H138538   7.324   4.781   2.323  0.2184  0.5171  0.6983
 4781TIP3    H238539   7.393   4.837   2.446  1.8863 -0.5137  0.2721
 4782TIP3   OH238540   1.083   2.708   9.204 -0.3472  0.4050 -0.0235
 4782TIP3    H138541   1.135   2.672   9.275 -0.6604 -1.1033 -0.5324
 4782TIP3    H238542   0.994   2.679   9.222 -1.0166  2.6246  0.6266
 4783TIP3   OH238543   5.613   2.950   8.204 -0.5356  0.4426 -0.3371
 4783TIP3    H138544   5.665   3.030   8.195  0.0026 -0.0561 -1.8675
 4783TIP3    H238545   5.611   2.912   8.117 -0.6596 -1.3132  0.3911
 4784TIP3   OH238546   1.903   6.020   1.611 -0.4272 -0.0931 -0.3099
 4784TIP3    H138547   1.847   5.950   1.576 -1.6465  0.5696  0.2497
 4784TIP3    H238548   1.952   6.052   1.535 -1.5625 -0.0017 -1.0208
 4785TIP3   OH238549   7.561   6.111   8.726 -0.2768  0.3040  0.5270
 4785TIP3    H138550   7.517   6.099   8.810  0.7096  0.4723  1.0913
 4785TIP3    H238551   7.495   6.149   8.668 -1.5073 -1.4628  0.6848
 4786TIP3   OH238552   1.522   3.593   3.098  0.8892  0.4713 -0.5939
 4786TIP3    H138553   1.559   3.667   3.049 -2.1273  0.3825 -3.2969
 4786TIP3    H238554   1.442   3.571   3.052 -0.7382 -1.5934  2.8325
 4787TIP3   OH238555   5.403   1.429   0.792 -0.2199  0.0237 -0.1274
 4787TIP3    H138556   5.426   1.519   0.818 -1.3281  0.3836 -0.3376
 4787TIP3    H238557   5.387   1.384   0.874  0.0454  0.0899 -0.0354
 4788TIP3   OH238558   7.326   4.646   7.258 -0.1377  0.2350 -0.7399
 4788TIP3    H138559   7.367   4.627   7.173 -0.8238 -2.2735 -0.6097
 4788TIP3    H238560   7.346   4.569   7.311 -2.0175  0.5208  0.4591
 4789TIP3   OH238561   1.834   6.244   9.312 -0.0626  0.6337  0.2260
 4789TIP3    H138562   1.868   6.322   9.268 -0.2536  0.3968 -0.3524
 4789TIP3    H238563   1.842   6.264   9.405  0.6704  1.0056  0.0929
 4790TIP3   OH238564   6.072   2.828   8.178  0.0496  0.4422 -0.1649
 4790TIP3    H138565   5.979   2.804   8.170  0.0569  0.5349 -0.5529
 4790TIP3    H238566   6.086   2.893   8.109  0.6119 -0.2149 -0.6817
 4791TIP3   OH238567   0.247   6.244   1.538 -0.6879  0.1901  0.3826
 4791TIP3    H138568   0.308   6.309   1.570 -0.1940 -0.4576  0.7814
 4791TIP3    H238569   0.162   6.288   1.540 -0.3739  0.7953  0.6964
 4792TIP3   OH238570   0.563   2.381   8.556 -0.7481 -0.4242 -0.3173
 4792TIP3    H138571   0.606   2.331   8.626 -1.7083 -0.8599 -0.0165
 4792TIP3    H238572   0.492   2.427   8.600 -0.3333  0.6454 -0.7273
 4793TIP3   OH238573   7.630   0.712   0.679 -0.1740 -0.2378  0.1403
 4793TIP3    H138574   7.572   0.673   0.743  1.5320  1.2113  2.7326
 4793TIP3    H238575   7.590   0.797   0.658  0.1145  0.0101  0.5870
 4794TIP3   OH238576   7.135   2.486   1.903  0.1063  0.5706 -0.0458
 4794TIP3    H138577   7.127   2.408   1.848 -0.4129 -0.0378  0.8661
 4794TIP3    H238578   7.217   2.475   1.950 -0.8437 -0.3785  1.4767
 4795TIP3   OH238579   7.375   0.607   2.829 -0.3827 -0.0975 -0.0414
 4795TIP3    H138580   7.373   0.513   2.844 -1.2430 -0.2420 -0.9506
 4795TIP3    H238581   7.334   0.645   2.907  0.2580 -0.4397  0.4735
 4796TIP3   OH238582   1.406   1.658   0.163 -0.2199  0.4398 -0.0309
 4796TIP3    H138583   1.411   1.641   0.069 -0.3143 -3.8145  0.5575
 4796TIP3    H238584   1.325   1.615   0.191 -0.4703  2.0592  1.9804
 4797TIP3   OH238585   0.971   5.169   9.221 -0.3183  0.1702 -0.5015
 4797TIP3    H138586   0.939   5.087   9.259  0.4491  0.4845  0.8779
 4797TIP3    H238587   0.895   5.204   9.173 -1.3090 -0.3171  0.6476
 4798TIP3   OH238588   7.149   3.410   9.531  0.0122 -0.6458  0.3685
 4798TIP3    H138589   7.076   3.405   9.593 -0.7438 -2.8328 -0.5789
 4798TIP3    H238590   7.222   3.370   9.578  0.3252  0.5005  0.9017
 4799TIP3   OH238591   5.211   2.282   8.855 -0.1359 -0.3126  0.3762
 4799TIP3    H138592   5.187   2.352   8.916 -3.9993  0.5730 -1.8048
 4799TIP3    H238593   5.153   2.209   8.877 -0.2031 -0.6784 -0.8991
 4800TIP3   OH238594   0.192   6.359   1.143  0.2612 -0.3716 -0.0585
 4800TIP3    H138595   0.212   6.275   1.185 -2.0318 -0.1891  1.6262
 4800TIP3    H238596   0.274   6.408   1.146  1.3403 -2.1071 -0.0019
 4801TIP3   OH238597   4.784   0.843   9.835  0.7919  0.4318 -0.7583
 4801TIP3    H138598   4.804   0.761   9.790 -2.1012 -0.0210 -1.4694
 4801TIP3    H238599   4.758   0.903   9.764  0.9019  1.3094 -0.0759
 4802TIP3   OH238600   3.181   3.163   0.488 -0.0845 -0.2835  0.1891
 4802TIP3    H138601   3.108   3.125   0.537  1.1946 -1.1820  1.5006
 4802TIP3    H238602   3.215   3.090   0.437  0.7576 -0.2557  0.6883
 4803TIP3   OH238603   0.783   0.720   9.929 -0.8682  0.2166  0.1620
 4803TIP3    H138604   0.705   0.728   9.873 -1.2415  2.3223  0.8871
 4803TIP3    H238605   0.767   0.781  10.001  2.1742  2.0683 -0.5596
 4804TIP3   OH238606   7.067   6.620   1.292  0.1876 -0.2383  0.0462
 4804TIP3    H138607   6.996   6.559   1.272  0.6690 -0.5012 -0.9214
 4804TIP3    H238608   7.134   6.567   1.333 -0.1605  0.0131  0.9710
 4805TIP3   OH238609   3.303   2.126   8.188  0.1031  0.0431  0.1462
 4805TIP3    H138610   3.368   2.186   8.223  1.5120 -0.5805 -1.2562
 4805TIP3    H238611   3.236   2.183   8.151  0.6662  0.7432  0.1707
 4806TIP3   OH238612   6.978   5.902   9.695  0.1915 -0.3046  0.2533
 4806TIP3    H138613   6.993   5.807   9.697  0.5723 -0.2436  0.3839
 4806TIP3    H238614   7.040   5.935   9.630  0.0070 -0.1550  0.1548
 4807TIP3   OH238615   7.529   7.468   0.447 -0.4516  0.1012  0.1550
 4807TIP3    H138616   7.447   7.419   0.459 -1.2243  1.2997 -0.1128
 4807TIP3    H238617   7.545   7.509   0.532  0.3487 -0.7991  0.4624
 4808TIP3   OH238618   0.707   2.198   7.289 -0.4698  0.0447  0.0529
 4808TIP3    H138619   0.611   2.198   7.296 -0.6125 -1.7700 -1.0768
 4808TIP3    H238620   0.730   2.105   7.285  1.4245  0.4203  1.0455
 4809TIP3   OH238621   2.809   5.917   9.558 -0.3570 -0.1307 -0.1878
 4809TIP3    H138622   2.718   5.907   9.588 -0.3593 -0.8599 -0.4058
 4809TIP3    H238623   2.802   5.931   9.464 -0.2681  0.4637 -0.1106
 4810TIP3   OH238624   0.517   7.201   2.517 -0.2786 -0.7378 -0.6815
 4810TIP3    H138625   0.446   7.145   2.548 -0.6897 -0.2378 -0.7219
 4810TIP3    H238626   0.597   7.151   2.537 -0.5785 -0.8239  0.3463
 4811TIP3   OH238627   6.599   2.514   1.829 -0.2285  0.1107 -0.3560
 4811TIP3    H138628   6.621   2.601   1.795 -0.0234  1.6068  3.1995
 4811TIP3    H238629   6.507   2.502   1.807 -0.9134  2.3165  0.9658
 4812TIP3   OH238630   0.532   5.861   9.298 -0.3078  0.3738 -0.4122
 4812TIP3    H138631   0.527   5.830   9.388 -1.5796  0.2947 -0.4943
 4812TIP3    H238632   0.446   5.898   9.280 -0.4941 -0.6866 -1.9647
 4813TIP3   OH238633   1.707   0.663   0.739  0.2854 -0.6572 -0.6113
 4813TIP3    H138634   1.659   0.631   0.816  0.1205  1.6883  0.3521
 4813TIP3    H238635   1.784   0.607   0.734 -1.1628 -2.7762 -0.5706
 4814TIP3   OH238636   2.265   5.901   0.135 -0.0175  0.4512  0.1679
 4814TIP3    H138637   2.348   5.948   0.145  1.0155 -1.1184 -0.5648
 4814TIP3    H238638   2.290   5.816   0.097 -2.1093  0.4287 -1.3219
 4815TIP3   OH238639   7.658   6.435   2.365 -0.2880  0.3589 -0.2719
 4815TIP3    H138640   7.690   6.502   2.425 -0.6056 -0.5683  0.9727
 4815TIP3    H238641   7.736   6.406   2.317  0.2816 -0.0229  0.8559
 4816TIP3   OH238642   5.934   5.893   9.615  0.0660  0.1672  0.0365
 4816TIP3    H138643   5.929   5.889   9.520 -0.3752 -0.6822  0.0888
 4816TIP3    H238644   5.919   5.803   9.644  0.5630  0.3485  0.8960
 4817TIP3   OH238645   4.030   2.471   1.784  0.1438 -0.0804 -0.2849
 4817TIP3    H138646   4.010   2.519   1.704 -1.1028  0.4535  0.3040
 4817TIP3    H238647   4.047   2.539   1.849  0.0606 -0.4797  0.1604
 4818TIP3   OH238648   2.531   1.867   7.746  0.9427  0.2408  0.0812
 4818TIP3    H138649   2.540   1.783   7.702  1.7717 -0.2637  1.1879
 4818TIP3    H238650   2.565   1.931   7.683 -1.3457  0.0319 -1.5144
 4819TIP3   OH238651   1.944   1.463   7.997 -0.4869 -0.5152 -0.2149
 4819TIP3    H138652   1.960   1.374   7.965 -2.0631 -0.9649  0.2156
 4819TIP3    H238653   1.849   1.474   7.993 -0.2758  1.4753 -1.1030
 4820TIP3   OH238654   5.742   6.998   7.974  0.4007  0.4596 -0.2345
 4820TIP3    H138655   5.729   7.064   8.041 -0.4242 -0.5319  0.6238
 4820TIP3    H238656   5.664   6.943   7.979  0.7659 -0.2047 -1.3578
 4821TIP3   OH238657   2.619   1.528   2.523  0.0219 -0.6408 -0.7982
 4821TIP3    H138658   2.689   1.475   2.484  0.8485 -1.0465  1.0872
 4821TIP3    H238659   2.600   1.484   2.606  0.9189  2.1093  1.0036
 4822TIP3   OH238660   1.852   2.524   2.454  0.1605  0.5355  0.8282
 4822TIP3    H138661   1.866   2.562   2.540  2.4895  0.2202  0.6494
 4822TIP3    H238662   1.926   2.554   2.401  0.0977 -1.2386 -0.3624
 4823TIP3   OH238663   2.768   0.974   2.243  0.5854  0.1223  0.1202
 4823TIP3    H138664   2.793   0.962   2.335 -0.1396  0.6485  0.3952
 4823TIP3    H238665   2.757   0.885   2.210 -0.1970 -0.0718  0.8478
 4824TIP3   OH238666   7.615   4.939   7.877  0.2008 -0.4537  0.1763
 4824TIP3    H138667   7.523   4.924   7.856  0.6113  0.0771 -2.2780
 4824TIP3    H238668   7.627   4.898   7.963 -2.6780  0.8927  1.3391
 4825TIP3   OH238669   6.009   1.367   8.407  0.0542 -0.4053 -0.3670
 4825TIP3    H138670   5.989   1.453   8.369 -2.2453 -0.3935  0.6837
 4825TIP3    H238671   6.088   1.381   8.458  1.3556  0.3432 -2.4351
 4826TIP3   OH238672   3.454   7.412   8.487  0.3374  0.2139  0.4505
 4826TIP3    H138673   3.372   7.417   8.439  0.0500  1.6294  1.0369
 4826TIP3    H238674   3.449   7.331   8.537 -0.7890  0.3701  0.6057
 4827TIP3   OH238675   1.270   4.693   7.443  0.0513  0.2100 -0.2816
 4827TIP3    H138676   1.305   4.609   7.414 -1.3776 -0.7243  0.5590
 4827TIP3    H238677   1.237   4.734   7.363 -0.3438 -0.5862 -0.5309
 4828TIP3   OH238678   5.996   4.558   9.556  0.2138  0.2974 -0.3990
 4828TIP3    H138679   6.021   4.535   9.467 -0.2390  1.5024 -0.8649
 4828TIP3    H238680   6.012   4.652   9.561 -1.4330  0.5867  0.2057
 4829TIP3   OH238681   2.377   4.747   8.934 -0.2223 -0.7321 -0.0920
 4829TIP3    H138682   2.391   4.717   8.844 -1.7095  0.5948 -0.8104
 4829TIP3    H238683   2.282   4.738   8.947 -0.4745  1.8387  0.2815
 4830TIP3   OH238684   6.689   0.380   8.846 -0.2944  0.1116 -0.3884
 4830TIP3    H138685   6.595   0.396   8.845 -0.2559  0.3098 -0.9029
 4830TIP3    H238686   6.718   0.416   8.930 -0.4580  1.3410 -0.8420
 4831TIP3   OH238687   6.050   7.331   9.208 -0.1174  0.0049  0.3399
 4831TIP3    H138688   6.066   7.406   9.150 -0.6179 -0.8140 -0.8980
 4831TIP3    H238689   6.135   7.312   9.247  0.6298 -0.4255 -1.3886
 4832TIP3   OH238690   4.211   6.852   2.386 -0.0739  0.1201  0.3895
 4832TIP3    H138691   4.172   6.765   2.397  0.1935 -0.0905 -0.2932
 4832TIP3    H238692   4.297   6.846   2.427 -0.0712  0.0757  0.3765
 4833TIP3   OH238693   6.753   1.936   8.580 -0.0227  0.2926  0.4498
 4833TIP3    H138694   6.743   2.030   8.595 -3.9242  0.0316  0.5739
 4833TIP3    H238695   6.752   1.897   8.667 -0.8756  0.0068  0.3151
 4834TIP3   OH238696   0.827   7.607   0.177  0.0264 -0.3787 -0.4725
 4834TIP3    H138697   0.821   7.605   0.273  0.8021  0.0585 -0.4039
 4834TIP3    H238698   0.737   7.600   0.147 -0.3923  1.1590  0.3214
 4835TIP3   OH238699   1.685   3.688   0.082 -0.7993 -0.3173 -0.0060
 4835TIP3    H138700   1.772   3.693   0.122  0.0740  1.3212 -1.8883
 4835TIP3    H238701   1.636   3.759   0.124 -0.4120  0.3339 -0.6239
 4836TIP3   OH238702   7.310   6.979   9.528 -0.3797  0.6199  0.2809
 4836TIP3    H138703   7.349   7.028   9.455  0.3759 -0.3652 -0.0080
 4836TIP3    H238704   7.348   7.018   9.606  0.0743  0.6230  0.0621
 4837TIP3   OH238705   1.049   1.235   1.236  0.3778 -0.7608 -0.1016
 4837TIP3    H138706   1.003   1.318   1.239  0.4422 -0.7168 -0.3251
 4837TIP3    H238707   0.980   1.168   1.236  0.1506 -0.6763 -3.2800
 4838TIP3   OH238708   3.259   2.392   2.194 -0.3663 -0.6218  0.3324
 4838TIP3    H138709   3.308   2.311   2.188  0.3205 -0.1580 -0.4425
 4838TIP3    H238710   3.179   2.376   2.143 -0.3398 -0.8847  0.3742
 4839TIP3   OH238711   1.440   2.014   9.635 -0.1037  0.1067  0.4117
 4839TIP3    H138712   1.407   1.968   9.558 -1.4529 -0.6046  1.3808
 4839TIP3    H238713   1.392   2.097   9.635 -0.5802 -0.1672  0.8355
 4840TIP3   OH238714   3.429   2.864   9.133  0.1035  0.2195  0.1368
 4840TIP3    H138715   3.428   2.924   9.207  0.0585 -0.4478  0.6942
 4840TIP3    H238716   3.376   2.789   9.163 -0.2216  0.1043 -0.7043
 4841TIP3   OH238717   5.336   1.799   7.196 -0.5633 -0.8549  0.5125
 4841TIP3    H138718   5.262   1.858   7.215 -0.0549 -0.7983  2.4495
 4841TIP3    H238719   5.376   1.782   7.281  0.7795 -2.0786 -0.3257
 4842TIP3   OH238720   6.238   0.664   0.880  0.0275 -0.1682  0.5203
 4842TIP3    H138721   6.180   0.683   0.953 -0.2920 -0.2092  0.2798
 4842TIP3    H238722   6.310   0.614   0.918 -0.2590 -0.3979  0.7656
 4843TIP3   OH238723   3.207   3.882   8.206  0.2863  0.2066 -0.6705
 4843TIP3    H138724   3.165   3.801   8.177 -0.6581  0.4147  0.0749
 4843TIP3    H238725   3.301   3.863   8.202  0.0672 -1.0086 -0.2566
 4844TIP3   OH238726   0.823   7.612   8.528 -0.6449  0.0337 -0.0881
 4844TIP3    H138727   0.877   7.590   8.452  1.3329 -0.9743  1.5043
 4844TIP3    H238728   0.838   7.706   8.541 -0.1482 -0.0078 -0.3233
 4845TIP3   OH238729   6.343   3.006   7.898  0.0531 -0.0823 -0.0353
 4845TIP3    H138730   6.321   2.931   7.842  0.2059 -1.1493  1.2700
 4845TIP3    H238731   6.425   3.039   7.863  1.7329 -2.5730  1.2134
 4846TIP3   OH238732   1.960   5.436   2.057  0.5209 -0.4370  0.5591
 4846TIP3    H138733   1.867   5.416   2.049  0.7275 -0.8126 -1.5449
 4846TIP3    H238734   1.985   5.401   2.142 -1.1681 -0.7232  0.9691
 4847TIP3   OH238735   5.439   0.623   9.677  0.0726 -0.4246  0.8118
 4847TIP3    H138736   5.383   0.561   9.725 -0.0303 -1.1648 -0.2349
 4847TIP3    H238737   5.527   0.586   9.684  0.2420  0.0481  1.3323
 4848TIP3   OH238738   1.233   7.481   7.313  0.3244 -0.6556  0.2255
 4848TIP3    H138739   1.176   7.467   7.237  0.1370 -1.8654  0.5834
 4848TIP3    H238740   1.290   7.404   7.315  0.8483 -0.2571  0.8658
 4849TIP3   OH238741   3.907   0.259   0.595 -0.2564  0.2465 -0.1738
 4849TIP3    H138742   3.889   0.179   0.547 -1.0446  1.1784 -1.5129
 4849TIP3    H238743   3.857   0.327   0.549  0.6399  1.5711  0.7062
 4850TIP3   OH238744   3.025   4.209   2.497 -0.5353 -0.4516  0.0427
 4850TIP3    H138745   3.022   4.303   2.480  1.4762 -0.4351 -0.4728
 4850TIP3    H238746   3.090   4.199   2.566  0.4547 -1.5665 -0.9925
 4851TIP3   OH238747   2.277   5.667   8.830  0.1286  0.4129 -0.1580
 4851TIP3    H138748   2.298   5.574   8.823  1.2890  0.5732  0.9217
 4851TIP3    H238749   2.241   5.677   8.918  1.3394  1.2033  0.2722
 4852TIP3   OH238750   3.338   0.632   0.670 -0.0503  0.0503 -0.0437
 4852TIP3    H138751   3.305   0.558   0.720  0.7318  0.0852  0.5469
 4852TIP3    H238752   3.399   0.592   0.607 -0.6284  0.0638 -0.6294
 4853TIP3   OH238753   3.322   5.419   2.896  0.2340  0.5213  0.1436
 4853TIP3    H138754   3.370   5.502   2.902 -0.6085  1.0045  0.2907
 4853TIP3    H238755   3.264   5.419   2.971  0.3654 -0.3032  0.2527
 4854TIP3   OH238756   2.839   7.205   7.957 -0.2602  0.5512  0.1167
 4854TIP3    H138757   2.895   7.196   7.879  1.4411  1.3283  1.1898
 4854TIP3    H238758   2.850   7.122   8.003  0.8472  1.0797  0.8336
 4855TIP3   OH238759   2.417   3.977   7.570  0.2759 -0.3561  0.5869
 4855TIP3    H138760   2.465   4.015   7.644 -0.0180 -0.2942  0.7447
 4855TIP3    H238761   2.486   3.948   7.510  0.5947 -2.2555  1.7784
 4856TIP3   OH238762   0.231   3.627   0.535  0.6534 -0.3677  0.1898
 4856TIP3    H138763   0.217   3.537   0.507 -0.4479 -0.3737  0.7216
 4856TIP3    H238764   0.217   3.679   0.456  1.0375 -0.6416 -0.0602
 4857TIP3   OH238765   5.134   7.553   0.721 -0.1789  0.1634  0.9259
 4857TIP3    H138766   5.067   7.596   0.668 -1.8002 -2.9203  0.1889
 4857TIP3    H238767   5.154   7.472   0.673  0.7471 -1.1787  3.3886
 4858TIP3   OH238768   2.985   6.362   9.106 -0.3983 -0.6154 -0.1743
 4858TIP3    H138769   2.919   6.350   9.174 -0.0702  0.3543  0.3262
 4858TIP3    H238770   3.006   6.273   9.078 -0.1603 -1.0806  1.3694
 4859TIP3   OH238771   6.411   2.128   1.745  0.1260 -0.3500  0.8273
 4859TIP3    H138772   6.460   2.208   1.766  0.2435  0.6091 -2.5486
 4859TIP3    H238773   6.445   2.063   1.806  2.5292  1.3383  1.4394
 4860TIP3   OH238774   2.236   6.159   0.459 -0.3845 -0.0971  0.3694
 4860TIP3    H138775   2.192   6.079   0.431 -3.6323  1.6212 -0.0665
 4860TIP3    H238776   2.228   6.218   0.384  1.2954  0.8825  0.9112
 4861TIP3   OH238777   6.229   6.506   1.057  0.8344  0.6314 -0.2993
 4861TIP3    H138778   6.229   6.602   1.063 -1.1892  0.6289  0.5776
 4861TIP3    H238779   6.213   6.488   0.965 -0.9248  1.2002 -0.1421
 4862TIP3   OH238780   2.190   2.284   9.913 -1.1613 -0.3415  0.3130
 4862TIP3    H138781   2.153   2.289   9.825 -0.8732 -0.3065  0.1941
 4862TIP3    H238782   2.240   2.365   9.923  0.5559 -1.2707 -0.2857
 4863TIP3   OH238783   6.723   6.918   1.470  0.4134 -0.0389  0.6012
 4863TIP3    H138784   6.629   6.935   1.458  0.3674 -0.2303  0.6958
 4863TIP3    H238785   6.754   6.892   1.383  0.8835  2.4048 -0.0425
 4864TIP3   OH238786   6.884   0.337   9.885  0.2554 -0.1581  0.0845
 4864TIP3    H138787   6.943   0.284   9.830 -0.0353 -0.2734 -0.1180
 4864TIP3    H238788   6.799   0.294   9.878 -0.3924  1.2603 -1.4166
 4865TIP3   OH238789   6.842   5.643   1.207 -0.5922  0.0386 -0.3864
 4865TIP3    H138790   6.813   5.679   1.123 -0.6838 -1.7099 -1.1504
 4865TIP3    H238791   6.890   5.563   1.184 -1.9910 -1.3796  1.2641
 4866TIP3   OH238792   6.812   1.088   2.168  0.1047  0.0794  0.0080
 4866TIP3    H138793   6.731   1.101   2.218  0.2822  0.1411  0.2801
 4866TIP3    H238794   6.785   1.037   2.092 -0.3712  0.9509 -0.4188
 4867TIP3   OH238795   0.100   5.412   1.986  0.3660 -0.0705  0.2211
 4867TIP3    H138796   0.149   5.478   2.035  0.8873  1.8130 -2.5996
 4867TIP3    H238797   0.024   5.394   2.041  1.0024  1.7235  1.8225
 4868TIP3   OH238798   0.462   5.669   1.604 -0.1259 -0.1116  0.3744
 4868TIP3    H138799   0.381   5.708   1.638 -0.3563 -2.0974  2.3567
 4868TIP3    H238800   0.440   5.641   1.515 -0.8514  1.4576  0.0198
 4869TIP3   OH238801   1.845   0.518   7.744  0.0771  0.2241  0.5928
 4869TIP3    H138802   1.854   0.444   7.803  0.8416  0.2784  0.5511
 4869TIP3    H238803   1.909   0.502   7.675 -0.3391  0.5023  0.1340
 4870TIP3   OH238804   7.598   3.569   9.937  0.0870 -0.3044 -0.1258
 4870TIP3    H138805   7.566   3.557   9.848  0.6451  0.5562 -0.4557
 4870TIP3    H238806   7.603   3.664   9.949 -1.1015 -0.3882  1.2448
 4871TIP3   OH238807   1.275   1.811   7.475 -0.2644  0.1514  0.6956
 4871TIP3    H138808   1.352   1.865   7.487  1.0353 -1.5098  0.3034
 4871TIP3    H238809   1.236   1.803   7.562  0.2778  0.6296  0.9841
 4872TIP3   OH238810   1.793   4.639   1.944 -0.2121  0.2735  0.4076
 4872TIP3    H138811   1.770   4.550   1.972 -0.8047  0.0338 -0.7611
 4872TIP3    H238812   1.711   4.675   1.911 -0.0680  1.4223  1.2782
 4873TIP3   OH238813   6.777   1.370   1.762 -0.0570  0.0736 -0.4625
 4873TIP3    H138814   6.762   1.431   1.689 -0.4019  0.2551 -0.2397
 4873TIP3    H238815   6.693   1.326   1.773  0.2124 -0.5010 -0.6713
 4874TIP3   OH238816   1.825   1.392   7.324  0.4950 -0.0643 -0.2312
 4874TIP3    H138817   1.887   1.378   7.252  1.1122 -1.6798  0.5616
 4874TIP3    H238818   1.788   1.305   7.341 -1.6279  0.7526 -0.3225
 4875TIP3   OH238819   7.395   2.386   9.446 -0.8154  0.0671  0.2234
 4875TIP3    H138820   7.369   2.477   9.456  1.1209  0.5872  1.0415
 4875TIP3    H238821   7.448   2.384   9.367 -0.1434 -0.1582  0.6685
 4876TIP3   OH238822   2.824   7.075   1.834  0.1008 -0.4899  0.3432
 4876TIP3    H138823   2.900   7.097   1.781 -0.3740  0.0416 -0.1368
 4876TIP3    H238824   2.802   7.156   1.880 -1.1426 -0.1575 -0.7734
 4877TIP3   OH238825   7.126   3.573   0.249  0.3060 -0.1211 -0.4257
 4877TIP3    H138826   7.192   3.641   0.236 -0.1548  0.3340 -0.4600
 4877TIP3    H238827   7.170   3.504   0.299  1.3010 -0.6178 -1.9369
 4878TIP3   OH238828   7.248   0.333   8.824  0.1488  0.4417 -0.0173
 4878TIP3    H138829   7.295   0.414   8.804  1.1147  0.0948  0.7559
 4878TIP3    H238830   7.160   0.347   8.790  0.2152  1.9354  0.3615
 4879TIP3   OH238831   7.222   1.037   2.586  0.5170 -0.4499 -0.2800
 4879TIP3    H138832   7.152   1.042   2.520 -0.8714  0.6674  1.1923
 4879TIP3    H238833   7.237   0.943   2.597  0.4804 -0.6795 -1.8475
 4880TIP3   OH238834   0.840   3.341   6.778 -0.9997  0.1964 -0.0159
 4880TIP3    H138835   0.886   3.278   6.833 -1.7411  0.9303  1.5003
 4880TIP3    H238836   0.862   3.315   6.689  2.6267  0.6927  0.5754
 4881TIP3   OH238837   7.510   0.574   9.076 -0.1780 -0.1854  0.3013
 4881TIP3    H138838   7.443   0.624   9.122 -0.3433  0.1500 -0.2951
 4881TIP3    H238839   7.574   0.551   9.144 -1.0387 -0.7669  0.9317
 4882TIP3   OH238840   0.866   1.540   9.898 -0.0537  0.1940 -0.6195
 4882TIP3    H138841   0.824   1.625   9.885 -0.4370  0.3342  1.2664
 4882TIP3    H238842   0.953   1.561   9.932 -0.5326 -0.1475  0.8748
 4883TIP3   OH238843   6.756   6.662   1.753  0.2875  0.5761  0.1487
 4883TIP3    H138844   6.752   6.567   1.752  0.2561  0.5813 -0.4882
 4883TIP3    H238845   6.701   6.688   1.827 -0.2346  0.1269 -0.0832
 4884TIP3   OH238846   5.656   0.960   1.950  0.6563 -0.1853  0.0306
 4884TIP3    H138847   5.690   0.920   2.030  0.7105  1.3951  0.8298
 4884TIP3    H238848   5.715   0.930   1.881  0.9275 -1.1395  0.6645
 4885TIP3   OH238849   3.339   4.595   9.616  0.1793 -0.0519 -0.4736
 4885TIP3    H138850   3.287   4.673   9.602 -1.4472 -1.3808 -2.2340
 4885TIP3    H238851   3.411   4.602   9.554  0.1365  0.1255 -0.5025
 4886TIP3   OH238852   0.322   5.695   0.176 -0.3552  0.0556  0.0192
 4886TIP3    H138853   0.273   5.725   0.100 -0.8447 -0.0735  0.2852
 4886TIP3    H238854   0.357   5.610   0.150  1.3579  0.9755 -0.8827
 4887TIP3   OH238855   6.747   6.267   2.343  0.2933  0.1398 -0.2613
 4887TIP3    H138856   6.706   6.346   2.379 -0.5956  1.1639 -3.2196
 4887TIP3    H238857   6.832   6.298   2.311  0.5887 -0.4693 -0.0723
 4888TIP3   OH238858   0.454   5.411   8.897 -0.7853  0.0981  0.0788
 4888TIP3    H138859   0.384   5.471   8.921  0.0082  1.1874 -0.2857
 4888TIP3    H238860   0.443   5.337   8.957 -1.4773  0.8166  0.8633
 4889TIP3   OH238861   1.530   4.731   6.608 -0.0211 -1.2469 -0.3659
 4889TIP3    H138862   1.494   4.649   6.576  0.1922 -1.9884  1.2126
 4889TIP3    H238863   1.599   4.753   6.545  0.1233 -2.4328 -0.6327
 4890TIP3   OH238864   0.946   4.704   2.430 -0.2084  0.2341 -0.1208
 4890TIP3    H138865   0.960   4.799   2.431  0.5321  0.1752 -2.0900
 4890TIP3    H238866   1.005   4.671   2.498  0.6855  1.0443 -0.4820
 4891TIP3   OH238867   6.651   1.044   0.292 -0.0294  0.1380 -0.3582
 4891TIP3    H138868   6.700   1.004   0.363 -1.4142 -0.6989  0.1774
 4891TIP3    H238869   6.658   0.981   0.220  1.0462  0.8017 -0.8524
 4892TIP3   OH238870   2.777   4.849   1.887  0.5888  0.7499  0.2978
 4892TIP3    H138871   2.775   4.754   1.897  0.0852  0.5774 -1.1857
 4892TIP3    H238872   2.817   4.881   1.968  1.1295 -0.7417  0.6465
 4893TIP3   OH238873   6.300   0.006   7.403  0.3504  0.0655 -0.8488
 4893TIP3    H138874   6.346  -0.023   7.481 -0.4365  0.0387 -0.3776
 4893TIP3    H238875   6.369   0.031   7.341  1.0047 -1.2565 -0.6765
 4894TIP3   OH238876   6.364   6.386   8.220  0.2741 -0.2005  0.1005
 4894TIP3    H138877   6.453   6.422   8.216  0.5241 -0.9233 -2.0251
 4894TIP3    H238878   6.312   6.455   8.262  1.5605  0.8618  0.0028
 4895TIP3   OH238879   5.414   5.487   9.983  0.1085 -0.6361  0.1313
 4895TIP3    H138880   5.442   5.442   9.904  0.8656 -0.8632  0.5187
 4895TIP3    H238881   5.319   5.473   9.987 -0.1208  0.3313 -1.3184
 4896TIP3   OH238882   3.275   3.757   9.098 -0.0229 -0.0783 -0.0078
 4896TIP3    H138883   3.335   3.778   9.169 -0.3134  0.5189  0.0655
 4896TIP3    H238884   3.190   3.787   9.128  0.1171  1.8011 -1.2838
 4897TIP3   OH238885   4.981   0.199   1.402  0.2899  0.1086 -0.0420
 4897TIP3    H138886   5.028   0.176   1.321  2.1735 -1.6914  1.4611
 4897TIP3    H238887   5.023   0.280   1.432  0.9122 -0.2717  0.1234
 4898TIP3   OH238888   1.545   3.297   7.706 -0.3630  0.4678 -0.2977
 4898TIP3    H138889   1.607   3.290   7.779 -0.7204  1.5042  0.1243
 4898TIP3    H238890   1.474   3.352   7.740 -2.6174 -2.3922 -0.0575
 4899TIP3   OH238891   4.646   5.729   9.364  0.4170  0.1957  0.2800
 4899TIP3    H138892   4.550   5.734   9.365  0.4346  0.5146  0.5456
 4899TIP3    H238893   4.675   5.818   9.384  0.7671 -0.0715  1.0094
 4900TIP3   OH238894   3.773   5.765   6.988 -0.3607  0.5938 -0.2700
 4900TIP3    H138895   3.740   5.783   6.900 -0.1988 -2.7169 -1.1118
 4900TIP3    H238896   3.774   5.670   6.995  1.2495  0.7119  2.7345
 4901TIP3   OH238897   1.845   2.707   7.302  0.1146  0.0484  0.4902
 4901TIP3    H138898   1.779   2.764   7.263 -0.5452 -1.0762 -0.0967
 4901TIP3    H238899   1.928   2.751   7.284 -0.2740  0.1968 -1.1231
 4902TIP3   OH238900   2.168   7.636   9.916  0.0442  0.1096  0.1631
 4902TIP3    H138901   2.165   7.598  10.004 -2.7468 -0.1920  0.0444
 4902TIP3    H238902   2.121   7.719   9.924 -1.0184 -0.3170 -1.1599
 4903TIP3   OH238903   2.581   7.195   1.994  0.2044  0.3871  0.6136
 4903TIP3    H138904   2.589   7.103   1.969  2.1203  0.3579  1.1163
 4903TIP3    H238905   2.598   7.243   1.913 -1.4023  0.3259  0.2160
 4904TIP3   OH238906   1.605   1.072   1.440  0.2311  0.3581  0.0829
 4904TIP3    H138907   1.696   1.042   1.438  0.7319  1.8398 -1.5074
 4904TIP3    H238908   1.607   1.158   1.399 -1.9421  0.3013 -0.2627
 4905TIP3   OH238909   2.356   6.691   1.487  0.2872  0.1102  0.0303
 4905TIP3    H138910   2.317   6.657   1.568  0.4863 -0.6968 -0.2071
 4905TIP3    H238911   2.429   6.631   1.468 -1.5072 -1.5463 -2.3142
 4906TIP3   OH238912   3.235   7.496   1.555  0.1000 -0.3635 -0.7867
 4906TIP3    H138913   3.251   7.403   1.543  0.2964 -0.3786 -0.4255
 4906TIP3    H238914   3.306   7.526   1.612 -1.1752 -0.4698  0.9706
 4907TIP3   OH238915   4.159   6.725   9.131  0.2944 -0.0010 -0.2862
 4907TIP3    H138916   4.081   6.670   9.119  0.8907 -1.2608  1.2353
 4907TIP3    H238917   4.127   6.814   9.122 -1.2117 -0.5170 -0.3433
 4908TIP3   OH238918   4.549   6.403   2.019 -0.0815 -0.0632 -0.1782
 4908TIP3    H138919   4.591   6.390   1.934 -0.0549 -0.1359 -0.1544
 4908TIP3    H238920   4.581   6.488   2.049  2.5222 -1.4176  1.2459
 4909TIP3   OH238921   6.537   0.128   2.141 -0.5398 -1.0266  0.0630
 4909TIP3    H138922   6.447   0.109   2.116 -0.6816 -0.7192  0.3481
 4909TIP3    H238923   6.564   0.051   2.191 -0.8678 -0.8166  0.5640
 4910TIP3   OH238924   4.666   2.025   0.665 -0.1705  0.0814  0.2999
 4910TIP3    H138925   4.750   1.982   0.678 -1.7448 -2.9330  1.7516
 4910TIP3    H238926   4.666   2.098   0.727  0.0480 -2.1980  3.2101
 4911TIP3   OH238927   3.068   6.756   0.650 -0.1277  0.8937  0.2503
 4911TIP3    H138928   3.028   6.806   0.578 -1.4255  0.2320  0.4860
 4911TIP3    H238929   3.113   6.684   0.606 -1.9885 -0.2597  0.0906
 4912TIP3   OH238930   3.202   6.236   1.261  0.2689 -0.7568 -0.3708
 4912TIP3    H138931   3.249   6.168   1.310  0.1483 -0.8267 -0.3513
 4912TIP3    H238932   3.168   6.190   1.184  0.0798 -0.7458 -0.2934
 4913TIP3   OH238933   1.791   5.181   2.008  0.1432 -0.1434 -0.2520
 4913TIP3    H138934   1.815   5.243   1.939  1.2570  0.3213  0.5173
 4913TIP3    H238935   1.860   5.115   2.007  0.0299 -0.2776  0.2420
 4914TIP3   OH238936   1.041   4.081   9.617 -0.4278  0.0325  0.2909
 4914TIP3    H138937   1.129   4.044   9.619 -0.2074  0.5624  1.1045
 4914TIP3    H238938   0.983   4.008   9.641 -0.0052  0.1813  1.8249
 4915TIP3   OH238939   2.002   5.523   9.781  0.4164 -0.2094  0.9500
 4915TIP3    H138940   2.086   5.524   9.827  0.9323 -0.8126  0.0499
 4915TIP3    H238941   2.016   5.466   9.705 -0.1351  1.4405 -0.4631
 4916TIP3   OH238942   4.655   7.377   7.725  0.1603 -0.2209 -0.4198
 4916TIP3    H138943   4.640   7.386   7.630 -0.1420 -0.6133 -0.4105
 4916TIP3    H238944   4.685   7.287   7.736 -1.6490 -0.7989  0.0766
 4917TIP3   OH238945   5.521   2.326   1.880  0.1615  0.7193  0.0034
 4917TIP3    H138946   5.570   2.285   1.951 -0.8371  3.0431  2.1934
 4917TIP3    H238947   5.442   2.272   1.872 -0.4021  1.2356  1.7243
 4918TIP3   OH238948   5.322   5.920   9.540  0.3676  0.2207 -0.3733
 4918TIP3    H138949   5.306   5.989   9.605  0.7425 -0.5298  0.5509
 4918TIP3    H238950   5.288   5.841   9.581  1.8489 -0.5097 -0.5009
 4919TIP3   OH238951   2.161   5.906   2.603 -0.6865 -0.2469  0.2977
 4919TIP3    H138952   2.117   5.967   2.664 -0.7687  0.4147 -0.4079
 4919TIP3    H238953   2.128   5.931   2.517 -0.1217 -0.7886 -0.0799
 4920TIP3   OH238954   2.304   0.865   9.063  0.6567 -0.0039 -0.0671
 4920TIP3    H138955   2.228   0.923   9.066 -0.1370 -1.0403  1.9485
 4920TIP3    H238956   2.273   0.786   9.020  0.0687 -1.0127  2.0663
 4921TIP3   OH238957   0.075   6.068   9.085  0.0534  0.1445 -0.5051
 4921TIP3    H138958   0.065   6.162   9.098  1.6306  0.1667  0.9222
 4921TIP3    H238959   0.144   6.059   9.019 -1.3362 -0.0477 -2.0014
 4922TIP3   OH238960   1.362   5.716   9.935  0.2767  0.3629  0.5755
 4922TIP3    H138961   1.434   5.779   9.932  0.4829  0.1029  0.0125
 4922TIP3    H238962   1.379   5.656   9.862 -0.4233  0.2086  0.5308
 4923TIP3   OH238963   3.963   1.277   2.968  0.1115  0.4021  0.5102
 4923TIP3    H138964   4.044   1.228   2.982 -0.4071 -0.1619  1.6386
 4923TIP3    H238965   3.904   1.215   2.926 -0.3194  0.2568  1.3151
 4924TIP3   OH238966   0.557   0.999   8.581 -0.0660  0.2810  0.3501
 4924TIP3    H138967   0.619   1.005   8.653  1.5378 -1.0270 -0.8342
 4924TIP3    H238968   0.514   0.915   8.593  0.8543 -0.3618 -0.6573
 4925TIP3   OH238969   4.930   1.380   1.464 -0.1805 -0.4319  0.3815
 4925TIP3    H138970   4.869   1.315   1.500 -1.6452 -0.8230 -2.4722
 4925TIP3    H238971   4.873   1.450   1.432  1.0695  0.3270 -0.2468
 4926TIP3   OH238972   7.253   0.935   8.527 -0.2342  0.3341  0.1641
 4926TIP3    H138973   7.256   1.018   8.573 -0.0331 -0.4865  1.6843
 4926TIP3    H238974   7.175   0.941   8.471 -0.3388  1.4444  0.4125
 4927TIP3   OH238975   1.356   3.757   2.090 -0.5825  0.0600  0.1632
 4927TIP3    H138976   1.349   3.670   2.050  0.5939  0.2763 -0.5618
 4927TIP3    H238977   1.277   3.803   2.062 -1.4382 -0.8924  0.9095
 4928TIP3   OH238978   1.662   6.444   6.785 -0.0338  0.1560 -0.1412
 4928TIP3    H138979   1.737   6.498   6.809  0.0278  0.5374 -1.1837
 4928TIP3    H238980   1.642   6.468   6.695 -0.1190 -1.4205 -0.5714
 4929TIP3   OH238981   3.588   0.460   0.747  0.5215  0.8243 -0.5455
 4929TIP3    H138982   3.627   0.534   0.701  1.2215 -0.5948 -2.3391
 4929TIP3    H238983   3.663   0.410   0.781  0.2935 -0.9206 -2.4084
 4930TIP3   OH238984   2.152   6.723   9.447  0.6514  0.4930 -0.3090
 4930TIP3    H138985   2.057   6.714   9.438  0.3125  1.2654  1.9071
 4930TIP3    H238986   2.186   6.637   9.422 -0.8650 -0.6509  1.2552
 4931TIP3   OH238987   3.001   7.222   1.254  0.1796  0.3201  0.5887
 4931TIP3    H138988   3.019   7.299   1.308  1.6659  0.6566 -0.3504
 4931TIP3    H238989   2.951   7.256   1.180 -0.1186  0.1876  0.7258
 4932TIP3   OH238990   5.959   0.248   1.626 -0.3340 -0.0530 -0.0558
 4932TIP3    H138991   5.976   0.154   1.638 -0.8652 -0.3476 -1.3781
 4932TIP3    H238992   5.976   0.287   1.712  2.3595 -0.9593 -0.1002
 4933TIP3   OH238993   4.022   5.306   8.934 -0.3672  0.3129 -0.5604
 4933TIP3    H138994   4.038   5.270   9.022  1.3893  0.0880 -0.9428
 4933TIP3    H238995   3.939   5.353   8.943 -0.7924 -0.6412  0.9323
 4934TIP3   OH238996   2.954   5.717   7.365  0.2499  0.3254  0.4647
 4934TIP3    H138997   2.904   5.781   7.314  1.2086  0.2213 -0.6465
 4934TIP3    H238998   3.038   5.712   7.320 -0.2009 -2.6200 -0.2348
 4935TIP3   OH238999   1.266   0.311   8.146 -1.0717 -0.2453  0.5212
 4935TIP3    H139000   1.214   0.243   8.189 -2.9462  1.6668  1.4430
 4935TIP3    H239001   1.206   0.384   8.136  0.8707  1.3033 -0.4385
 4936TIP3   OH239002   6.928   6.913   8.902  0.0174  0.4390 -0.0086
 4936TIP3    H139003   6.847   6.953   8.932 -1.3119 -0.9187 -1.5987
 4936TIP3    H239004   6.926   6.922   8.806  1.1339 -0.6915 -0.1789
 4937TIP3   OH239005   3.881   6.399   0.430 -0.2310 -0.2463 -0.8322
 4937TIP3    H139006   3.807   6.460   0.427  1.2193  1.6132 -1.1461
 4937TIP3    H239007   3.895   6.383   0.523 -0.6729 -0.1658 -0.7475
 4938TIP3   OH239008   2.883   3.721   0.926 -0.2370  0.7183  0.2842
 4938TIP3    H139009   2.927   3.694   1.007 -0.1918 -0.4665 -0.1060
 4938TIP3    H239010   2.933   3.677   0.857  0.0229  2.0984 -0.4443
 4939TIP3   OH239011   0.733   0.483   8.921 -0.1899 -0.3103 -0.0453
 4939TIP3    H139012   0.731   0.567   8.876  2.0693  0.0545  0.4180
 4939TIP3    H239013   0.750   0.505   9.013 -2.9438 -1.1416  0.7599
 4940TIP3   OH239014   1.037   3.273   1.193  0.0136  0.0783  0.0565
 4940TIP3    H139015   0.981   3.289   1.117  1.0724 -0.7834 -0.9275
 4940TIP3    H239016   1.039   3.178   1.201  0.0302  0.1566  1.0954
 4941TIP3   OH239017   3.845   2.637   7.537  0.3178  0.2549  0.2445
 4941TIP3    H139018   3.750   2.644   7.548  0.2066 -1.2714  0.4749
 4941TIP3    H239019   3.857   2.574   7.466  1.1592  0.2310  0.3898
 4942TIP3   OH239020   6.915   3.910   7.879 -0.1732 -0.4840 -0.4882
 4942TIP3    H139021   7.005   3.888   7.903  0.3918 -0.0351 -2.0900
 4942TIP3    H239022   6.863   3.839   7.918  0.7333 -0.2741  1.2365
 4943TIP3   OH239023   1.334   4.175   9.089  0.5604  0.6300 -0.1710
 4943TIP3    H139024   1.400   4.230   9.130 -1.4296  1.7638  1.6959
 4943TIP3    H239025   1.383   4.101   9.053  2.6586  0.4103  2.8046
 4944TIP3   OH239026   3.243   3.373   8.994  0.9887 -0.2735  0.0579
 4944TIP3    H139027   3.302   3.436   8.953  0.4796 -1.2777 -2.3408
 4944TIP3    H239028   3.291   3.291   8.992  0.9655 -0.3553  1.5927
 4945TIP3   OH239029   6.245   3.237   9.276 -0.3494  0.0104  0.0080
 4945TIP3    H139030   6.299   3.314   9.260 -2.3474  0.9412 -3.1882
 4945TIP3    H239031   6.192   3.261   9.352  2.7943 -0.5576  2.5895
 4946TIP3   OH239032   2.471   2.991   9.244 -0.6175  0.0946  0.6148
 4946TIP3    H139033   2.533   3.021   9.177 -1.1807 -1.4410 -0.6840
 4946TIP3    H239034   2.426   3.070   9.273  0.7329  1.0077  0.3301
 4947TIP3   OH239035   0.613   1.621   8.983  0.2479  0.0336  0.3798
 4947TIP3    H139036   0.695   1.572   8.978 -0.3142 -0.8545 -0.3876
 4947TIP3    H239037   0.634   1.696   9.038  1.2464 -0.8455  1.2538
 4948TIP3   OH239038   3.115   6.856   9.385  0.1499  0.0146  0.5835
 4948TIP3    H139039   3.050   6.850   9.455 -1.0413 -1.2699 -0.5857
 4948TIP3    H239040   3.083   6.926   9.329  0.1908 -0.1072  0.4101
 4949TIP3   OH239041   3.659   3.369   8.113 -0.5756  0.3240 -0.5510
 4949TIP3    H139042   3.612   3.286   8.107 -0.7398  0.3674  0.0213
 4949TIP3    H239043   3.684   3.389   8.023 -2.2778  0.6613 -0.9927
 4950TIP3   OH239044   2.010   2.299   0.452 -0.1213  0.0666  0.1544
 4950TIP3    H139045   1.986   2.213   0.485 -0.7876  0.2080  0.0433
 4950TIP3    H239046   1.929   2.349   0.452 -0.4700 -0.3104 -2.9188
 4951TIP3   OH239047   0.951   5.340   0.132 -0.2349 -0.6904 -0.6792
 4951TIP3    H139048   1.043   5.367   0.133 -0.4401  0.0471  0.4023
 4951TIP3    H239049   0.904   5.413   0.173 -1.2171 -1.3478 -0.5955
 4952TIP3   OH239050   2.730   2.345   1.842  0.6549 -0.7014  0.1152
 4952TIP3    H139051   2.818   2.380   1.839  0.0432  1.0720  1.2159
 4952TIP3    H239052   2.739   2.253   1.815  2.2465  0.3701 -3.6396
 4953TIP3   OH239053   3.371   4.496   8.361  0.0402  0.2255 -0.1325
 4953TIP3    H139054   3.309   4.520   8.430 -0.0307 -0.1960 -0.0441
 4953TIP3    H239055   3.384   4.576   8.311 -0.9115  0.2084 -0.4137
 4954TIP3   OH239056   2.711   6.922   1.559 -0.0271 -0.0580 -0.2722
 4954TIP3    H139057   2.806   6.932   1.559 -0.1892  1.8303 -0.7248
 4954TIP3    H239058   2.693   6.859   1.628  1.7044 -2.3430 -1.7433
 4955TIP3   OH239059   2.870   4.026   0.812 -0.4141 -0.2279 -0.2359
 4955TIP3    H139060   2.811   4.073   0.753  0.4871  0.8162 -0.3451
 4955TIP3    H239061   2.824   3.945   0.832 -1.4911  0.1606 -1.0127
 4956TIP3   OH239062   1.857   1.699   0.636 -0.1418 -0.6216 -0.3896
 4956TIP3    H139063   1.936   1.645   0.647  0.0288 -0.3409 -0.2057
 4956TIP3    H239064   1.821   1.707   0.724 -0.9767 -1.6331 -0.6264
 4957TIP3   OH239065   3.865   2.998   7.372 -0.4902  0.1216 -0.2440
 4957TIP3    H139066   3.805   3.039   7.309  0.4448  0.5433 -0.8909
 4957TIP3    H239067   3.808   2.957   7.437 -1.4816 -0.1029 -1.2243
 4958TIP3   OH239068   6.149   0.183   0.014  0.1603 -0.5843 -0.2236
 4958TIP3    H139069   6.117   0.273   0.008  0.2027 -0.5950 -0.6764
 4958TIP3    H239070   6.244   0.191   0.007  0.4043 -0.4435  2.3517
 4959TIP3   OH239071   7.086   1.511   0.078  0.5513  0.0892  0.0457
 4959TIP3    H139072   7.009   1.532   0.129  0.6446  0.2570  0.1195
 4959TIP3    H239073   7.129   1.440   0.126 -0.5776 -1.3784 -0.9961
 4960TIP3   OH239074   2.805   6.637   9.766  0.4541  0.0123  0.3378
 4960TIP3    H139075   2.717   6.673   9.776  0.9374  1.3350  0.0222
 4960TIP3    H239076   2.791   6.546   9.737 -0.7970  0.5159 -0.7049
 4961TIP3   OH239077   7.648   1.683   0.514  0.6474  0.3314  0.3844
 4961TIP3    H139078   7.618   1.728   0.435  0.2652  3.5027  2.1684
 4961TIP3    H239079   7.743   1.697   0.514  1.8513 -5.0940 -2.4953
 4962TIP3   OH239080   4.474   4.910   7.447  0.6998  0.7658  0.6079
 4962TIP3    H139081   4.546   4.850   7.462  0.3875  0.3230  0.3504
 4962TIP3    H239082   4.418   4.901   7.524 -0.7344 -1.2659 -0.5824
 4963TIP3   OH239083   7.181   3.110   8.695 -0.0202  0.3106 -0.1514
 4963TIP3    H139084   7.176   3.196   8.654 -1.3943  0.7413  0.8559
 4963TIP3    H239085   7.109   3.109   8.758  0.2041 -1.4354  0.1295
 4964TIP3   OH239086   3.099   3.386   6.996 -0.2174 -0.2235  0.0754
 4964TIP3    H139087   3.086   3.299   6.957 -1.1123  0.2194 -0.6570
 4964TIP3    H239088   3.085   3.372   7.089 -0.2136 -0.8925 -0.0160
 4965TIP3   OH239089   4.128   7.440   1.162  0.2955 -0.4158 -0.2557
 4965TIP3    H139090   4.107   7.410   1.074 -0.6750 -1.7532  0.4005
 4965TIP3    H239091   4.206   7.390   1.187  0.3765 -0.2782 -0.2306
 4966TIP3   OH239092   7.452   5.695   8.830  0.0869  0.2261 -0.3665
 4966TIP3    H139093   7.409   5.734   8.906 -0.2222 -0.5298 -0.1500
 4966TIP3    H239094   7.531   5.748   8.817 -0.8668  1.6013 -0.7449
 4967TIP3   OH239095   5.133   0.334   2.261 -0.2726  0.1963 -0.3076
 4967TIP3    H139096   5.115   0.285   2.340 -1.9856  0.3426 -0.5659
 4967TIP3    H239097   5.071   0.408   2.264  0.8058  1.1560 -0.9433
 4968TIP3   OH239098   6.937   0.401   0.319 -0.1928 -0.3311 -0.5138
 4968TIP3    H139099   6.882   0.325   0.295 -0.1260 -0.4542 -0.2826
 4968TIP3    H239100   6.968   0.380   0.407 -0.1972 -0.0187 -0.4394
 4969TIP3   OH239101   0.806   0.764   7.684  0.4317  0.2340  0.3509
 4969TIP3    H139102   0.782   0.837   7.742  0.3452 -0.5546  1.3382
 4969TIP3    H239103   0.843   0.807   7.606 -1.5594  1.3791 -0.0208
 4970TIP3   OH239104   3.772   1.182   7.755 -0.3274 -0.0335  0.7532
 4970TIP3    H139105   3.785   1.276   7.763 -0.9363  0.1759 -0.5285
 4970TIP3    H239106   3.822   1.145   7.828  0.4446  1.2342  0.8996
 4971TIP3   OH239107   3.399   5.256   8.131 -0.1614  0.0515  0.3085
 4971TIP3    H139108   3.314   5.231   8.093  0.1260 -1.2658  0.4699
 4971TIP3    H239109   3.462   5.201   8.085  0.4216 -0.1399  1.3129
 4972TIP3   OH239110   0.012   4.909   1.347 -0.2046 -0.5736 -0.1501
 4972TIP3    H139111   0.043   4.896   1.436 -0.9718 -0.1690  0.1805
 4972TIP3    H239112   0.071   4.856   1.293  0.3692 -0.6800  0.5748
 4973TIP3   OH239113   2.181   6.975   3.083  0.0832  0.1815  0.2227
 4973TIP3    H139114   2.106   6.916   3.074  0.0044  0.1751  0.9125
 4973TIP3    H239115   2.163   7.026   3.162  1.9140 -1.4738  1.8169
 4974TIP3   OH239116   7.639   0.823   7.890  0.2748  0.4896 -0.5158
 4974TIP3    H139117   7.603   0.896   7.940 -1.5198 -1.3463  1.0360
 4974TIP3    H239118   7.657   0.755   7.956  3.0720 -0.1152 -1.7199
 4975TIP3   OH239119   2.445   3.631   0.820  0.9249 -0.0797 -0.2285
 4975TIP3    H139120   2.405   3.555   0.863  2.4626 -0.7978 -0.0052
 4975TIP3    H239121   2.379   3.700   0.828 -0.3020 -1.2341  0.0219
 4976TIP3   OH239122   1.883   3.166   8.032  0.4948 -0.3602 -0.0724
 4976TIP3    H139123   1.814   3.153   8.097 -0.0666 -0.6255 -0.7010
 4976TIP3    H239124   1.896   3.079   7.994  0.9350 -0.2425 -0.1928
 4977TIP3   OH239125   2.741   0.967   7.514 -0.1332  0.5930 -0.2316
 4977TIP3    H139126   2.701   1.053   7.502 -0.8212  0.5464  1.5038
 4977TIP3    H239127   2.829   0.986   7.548 -0.6280  0.6349  1.0933
 4978TIP3   OH239128   2.962   6.653   2.106 -0.3791 -0.4138  0.8060
 4978TIP3    H139129   2.916   6.711   2.167  1.1542  1.9282 -0.1131
 4978TIP3    H239130   2.918   6.668   2.022  0.5024  0.0554  0.4080
 4979TIP3   OH239131   3.445   4.839   7.283 -0.5370  0.3005 -0.1343
 4979TIP3    H139132   3.511   4.857   7.216 -0.7121 -1.3092 -0.7895
 4979TIP3    H239133   3.474   4.887   7.360  0.6287  0.7474 -0.8395
 4980TIP3   OH239134   2.372   7.491   7.525 -0.8519 -0.0520 -0.0760
 4980TIP3    H139135   2.459   7.490   7.486 -0.7879 -0.5069  0.0762
 4980TIP3    H239136   2.322   7.426   7.476 -1.5219  1.1643 -1.0854
 4981TIP3   OH239137   3.446   3.577   0.903 -0.2729 -0.2401  0.5994
 4981TIP3    H139138   3.364   3.568   0.853  0.4742  1.0075 -0.9479
 4981TIP3    H239139   3.508   3.520   0.858 -0.1675 -0.8966  1.5449
 4982TIP3   OH239140   4.716   2.854   7.884  0.1375 -0.1316 -0.5745
 4982TIP3    H139141   4.624   2.851   7.909  0.3168 -1.2634  0.0407
 4982TIP3    H239142   4.744   2.943   7.904 -0.3162 -0.3437  1.1667
 4983TIP3   OH239143   7.542   2.835   0.322  0.1489 -0.0143  0.5357
 4983TIP3    H139144   7.451   2.861   0.333  0.0715 -0.2721  0.5108
 4983TIP3    H239145   7.542   2.740   0.336  0.1741 -0.2454 -0.8915
 4984TIP3   OH239146   3.276   7.360   1.169 -0.0277 -0.6987 -0.2106
 4984TIP3    H139147   3.213   7.304   1.124  0.4248 -1.6363  0.2928
 4984TIP3    H239148   3.351   7.303   1.185  0.6178  0.1718 -0.0536
 4985TIP3   OH239149   6.849   3.533   7.715  0.1889 -0.3781  0.7106
 4985TIP3    H139150   6.917   3.570   7.771  0.9646 -0.0830 -0.3837
 4985TIP3    H239151   6.864   3.438   7.718  2.8708 -0.2165 -2.0832
 4986TIP3   OH239152   2.125   0.235   9.449 -0.3524 -0.2394  0.1731
 4986TIP3    H139153   2.126   0.210   9.357 -1.7705  0.1394  0.0348
 4986TIP3    H239154   2.042   0.201   9.483 -0.4933  0.8210  0.9511
 4987TIP3   OH239155   5.906   6.405   1.370 -0.3786 -0.3309  0.1572
 4987TIP3    H139156   5.949   6.442   1.447 -1.9751  1.3100  0.3387
 4987TIP3    H239157   5.977   6.370   1.316  1.1199  1.7434  0.6830
 4988TIP3   OH239158   6.711   0.089   1.703 -0.0087  0.0073 -0.1294
 4988TIP3    H139159   6.781   0.083   1.768  0.8204  4.1933 -0.3575
 4988TIP3    H239160   6.634   0.055   1.748  1.2944 -0.7930  1.6266
 4989TIP3   OH239161   0.859   5.703   9.259 -0.1534  0.0566  0.0509
 4989TIP3    H139162   0.913   5.767   9.214 -0.7279  0.5913  0.1069
 4989TIP3    H239163   0.909   5.679   9.337  0.8559 -0.8937 -0.8508
 4990TIP3   OH239164   4.963   6.391   9.939  0.4488 -0.4060 -0.2896
 4990TIP3    H139165   4.956   6.484   9.957  3.9087 -0.3172  1.5004
 4990TIP3    H239166   4.949   6.383   9.845  1.4493  2.1474 -0.7360
 4991TIP3   OH239167   4.580   3.379   0.589 -0.3618 -0.4153 -0.2769
 4991TIP3    H139168   4.655   3.350   0.642 -0.5776  0.5328  0.5902
 4991TIP3    H239169   4.548   3.299   0.547  0.1937 -1.0971  0.5559
 4992TIP3   OH239170   3.359   0.876   2.463  0.2473 -0.3014  0.0114
 4992TIP3    H139171   3.320   0.920   2.538 -0.6990 -1.5493  0.2897
 4992TIP3    H239172   3.453   0.887   2.475  0.1231 -0.6183  1.4763
 4993TIP3   OH239173   1.885   5.818   0.028  0.0590 -0.0261  0.4334
 4993TIP3    H139174   1.948   5.887   0.005 -0.1520 -0.4567 -1.7061
 4993TIP3    H239175   1.879   5.821   0.123  3.0225  0.2929  0.7130
 4994TIP3   OH239176   1.629   7.544   9.681  0.4633  0.2165 -0.4655
 4994TIP3    H139177   1.593   7.581   9.601 -1.9649 -0.0988  0.3843
 4994TIP3    H239178   1.672   7.618   9.725 -1.5235  1.3371 -0.2942
 4995TIP3   OH239179   3.186   4.392   8.604 -0.0533  0.2953  0.3182
 4995TIP3    H139180   3.150   4.413   8.691 -0.0537  0.0804  0.3702
 4995TIP3    H239181   3.168   4.299   8.593 -0.9179  0.5327 -0.3304
 4996TIP3   OH239182   6.252   1.922   7.487 -0.2128  0.1651 -0.4153
 4996TIP3    H139183   6.199   2.002   7.485 -0.8729 -0.1861  1.1547
 4996TIP3    H239184   6.239   1.882   7.401 -1.0479  1.0064 -0.6991
 4997TIP3   OH239185   4.857   0.278   2.993 -0.0407  0.3959 -0.1348
 4997TIP3    H139186   4.807   0.242   3.066  0.6807 -0.7760 -0.2107
 4997TIP3    H239187   4.947   0.249   3.008  0.1666  0.3658 -1.3395
 4998TIP3   OH239188   4.580   0.329   7.569 -0.2146 -0.1805  0.2919
 4998TIP3    H139189   4.521   0.320   7.494  2.1230  0.6792 -1.7910
 4998TIP3    H239190   4.638   0.254   7.563 -0.3568 -0.4206  1.6437
 4999TIP3   OH239191   0.820   6.448   0.122  0.4732 -0.1620  0.4365
 4999TIP3    H139192   0.869   6.470   0.043  1.9942 -2.7855  0.5450
 4999TIP3    H239193   0.875   6.479   0.194 -0.6868  1.7858  0.5700
 5000TIP3   OH239194   2.285   1.213   8.411 -0.0834 -0.3991 -0.3862
 5000TIP3    H139195   2.259   1.121   8.416 -2.4679  0.2636  0.9672
 5000TIP3    H239196   2.204   1.259   8.388 -0.2531  1.8370  3.7641
 5001TIP3   OH239197   3.850   3.491   9.690  0.0827  0.0756  0.0900
 5001TIP3    H139198   3.863   3.477   9.783 -0.3545  3.8036  0.8808
 5001TIP3    H239199   3.923   3.547   9.663 -0.1909 -0.3341 -1.6534
 5002TIP3   OH239200   7.661   1.876   9.031  0.0711  0.6178 -0.5065
 5002TIP3    H139201   7.678   1.969   9.017 -0.6647  0.6328 -1.4148
 5002TIP3    H239202   7.575   1.873   9.073  0.2722  0.3652 -0.1123
 5003TIP3   OH239203   3.862   1.441   7.720  0.0607 -0.0975 -0.5412
 5003TIP3    H139204   3.860   1.522   7.669  2.7131  0.8928  0.7723
 5003TIP3    H239205   3.954   1.419   7.727 -0.1830 -0.4900  3.2972
 5004TIP3   OH239206   1.190   4.631   9.231 -0.1962  0.4632 -0.3821
 5004TIP3    H139207   1.247   4.708   9.243 -0.3733  0.7795 -1.4274
 5004TIP3    H239208   1.157   4.611   9.319 -0.2643  1.6868 -0.1076
 5005TIP3   OH239209   1.476   0.997   6.744 -0.3542  0.4692  0.2020
 5005TIP3    H139210   1.406   0.979   6.807 -0.1748  0.5619  0.4291
 5005TIP3    H239211   1.525   1.069   6.784  0.0713  0.1782  0.1961
 5006TIP3   OH239212   5.265   2.771   9.310 -1.3472  0.2858  0.3900
 5006TIP3    H139213   5.245   2.758   9.403 -3.6279  1.0992  0.0757
 5006TIP3    H239214   5.194   2.727   9.264 -0.3632  0.0813 -0.9933
 5007TIP3   OH239215   4.612   1.448   9.884 -0.0014 -0.8551  0.0869
 5007TIP3    H139216   4.669   1.388   9.836  0.1204 -0.2081 -0.6013
 5007TIP3    H239217   4.664   1.477   9.959  0.7705  0.0824 -0.7797
 5008TIP3   OH239218   1.278   3.055   9.318 -0.0031 -0.6740 -0.3884
 5008TIP3    H139219   1.259   2.984   9.380 -0.1391 -0.0650  0.2779
 5008TIP3    H239220   1.352   3.022   9.267  0.5015 -0.9543  0.4981
 5009TIP3   OH239221   6.669   4.843   7.414  0.8452  0.3482 -0.0884
 5009TIP3    H139222   6.679   4.764   7.468 -1.9987  0.4827  0.8143
 5009TIP3    H239223   6.734   4.904   7.449  1.1260 -0.6212  1.1658
 5010TIP3   OH239224   2.382   7.625   1.059  0.2101 -0.2232  0.1508
 5010TIP3    H139225   2.455   7.645   1.000 -0.1236 -1.0933 -0.6004
 5010TIP3    H239226   2.320   7.697   1.046  0.4430 -0.0557 -0.0486
 5011TIP3   OH239227   5.643   7.548   3.156 -0.4352 -0.5779  0.4488
 5011TIP3    H139228   5.718   7.489   3.166 -0.2920 -0.7552 -1.2831
 5011TIP3    H239229   5.585   7.525   3.229  0.5931 -1.3530  1.0566
 5012TIP3   OH239230   3.241   3.422   1.646  0.2853 -0.0399  0.3190
 5012TIP3    H139231   3.192   3.424   1.564  0.0813 -1.9722  0.3496
 5012TIP3    H239232   3.179   3.454   1.712  0.5701  1.8832 -0.2890
 5013TIP3   OH239233   1.632   2.850   3.165 -0.3223 -0.2377 -0.4410
 5013TIP3    H139234   1.576   2.926   3.182  0.3723 -0.3589  3.3327
 5013TIP3    H239235   1.721   2.884   3.168 -0.0543 -0.9044 -0.5395
 5014TIP3   OH239236   2.589   0.390   0.676  0.3977 -0.1636 -0.0354
 5014TIP3    H139237   2.561   0.299   0.674 -0.0485 -0.0303 -2.2883
 5014TIP3    H239238   2.669   0.393   0.623  0.7334  0.6654  0.4836
 5015TIP3   OH239239   0.057   7.460   8.013 -0.2063 -0.4897 -0.3327
 5015TIP3    H139240   0.148   7.460   8.043 -0.1784 -0.4218 -0.4180
 5015TIP3    H239241   0.051   7.385   7.954 -1.1146 -2.7969  2.4383
 5016TIP3   OH239242   0.078   4.246   2.750 -0.1777 -0.0271  0.9147
 5016TIP3    H139243   0.010   4.199   2.702 -1.4269 -1.4973  3.8808
 5016TIP3    H239244   0.048   4.337   2.751 -2.0705 -0.5969  1.9159
 5017TIP3   OH239245   6.821   5.073   9.666  0.3533 -0.0557 -0.1616
 5017TIP3    H139246   6.802   5.144   9.605  1.8266 -1.4063 -2.3808
 5017TIP3    H239247   6.753   5.008   9.648 -1.1464  0.8069  2.0412
 5018TIP3   OH239248   6.046   2.078   8.422 -0.0884  0.4213 -0.3381
 5018TIP3    H139249   6.039   2.110   8.512 -2.4018  0.3533 -0.4353
 5018TIP3    H239250   6.109   2.137   8.381 -2.7187  3.7891  0.0248
 5019TIP3   OH239251   2.304   7.659   9.547 -0.6602  0.3784  0.3680
 5019TIP3    H139252   2.290   7.600   9.474  3.9675  0.7765 -1.1390
 5019TIP3    H239253   2.240   7.729   9.534 -2.9800 -1.7702 -0.5623
 5020TIP3   OH239254   1.094   4.881   2.039 -0.1863 -0.3917  0.3918
 5020TIP3    H139255   1.036   4.841   1.974 -1.4552  1.3114  0.4053
 5020TIP3    H239256   1.161   4.815   2.055 -0.3858 -1.2509 -1.8979
 5021TIP3   OH239257   4.712   3.103   0.605  0.7781 -1.0858 -0.1025
 5021TIP3    H139258   4.719   3.008   0.618  0.0765 -1.2908 -1.1304
 5021TIP3    H239259   4.619   3.118   0.587  0.7753 -0.1169  0.6284
 5022TIP3   OH239260   2.021   5.242   6.927 -0.2997  0.3185 -0.1232
 5022TIP3    H139261   2.018   5.147   6.934  2.2510  0.1629 -0.1442
 5022TIP3    H239262   2.021   5.273   7.017 -0.7365  0.2931 -0.1116
 5023TIP3   OH239263   3.521   5.239   9.317  0.4021 -0.3333  0.5905
 5023TIP3    H139264   3.495   5.315   9.264 -2.1649 -1.5482 -0.0357
 5023TIP3    H239265   3.590   5.196   9.266  0.6520  0.6026  0.1170
 5024TIP3   OH239266   6.171   7.442   1.681  0.4216 -1.0237  0.3631
 5024TIP3    H139267   6.214   7.400   1.607 -0.8893  0.6490 -1.4692
 5024TIP3    H239268   6.086   7.399   1.687  0.2024 -0.6000  0.3424
 5025TIP3   OH239269   2.444   0.461   1.173  0.6494  0.1020 -0.1416
 5025TIP3    H139270   2.471   0.521   1.104  1.4104  0.6472  0.6027
 5025TIP3    H239271   2.513   0.395   1.176 -0.1038 -0.7327 -0.8497
 5026TIP3   OH239272   4.939   1.384   0.086 -0.2620  0.1801  0.1675
 5026TIP3    H139273   4.843   1.381   0.077 -0.4813  1.2105  1.7525
 5026TIP3    H239274   4.955   1.361   0.178  1.1736 -1.8089 -0.5164
 5027TIP3   OH239275   3.140   7.174   9.026 -0.3514  0.0207 -0.1065
 5027TIP3    H139276   3.180   7.133   8.949  3.0078  3.2985 -0.3964
 5027TIP3    H239277   3.048   7.183   9.002  0.0014 -1.5966 -2.5111
 5028TIP3   OH239278   2.041   5.552   7.458 -0.3800 -0.0628  0.3639
 5028TIP3    H139279   2.007   5.576   7.545 -0.7062 -1.2064  0.5661
 5028TIP3    H239280   2.042   5.456   7.458  2.4532 -0.1215  0.2187
 5029TIP3   OH239281   1.589   6.984   8.853 -0.1749  0.4533  0.2236
 5029TIP3    H139282   1.630   7.051   8.798 -0.0238  0.7153  0.6494
 5029TIP3    H239283   1.496   7.006   8.854 -0.1518  0.5506  0.2158
 5030TIP3   OH239284   0.737   4.448   6.956 -0.2651  0.3464  0.3534
 5030TIP3    H139285   0.785   4.383   7.008  0.8348  0.0351 -0.9601
 5030TIP3    H239286   0.780   4.445   6.870 -1.1412  1.7869 -0.1686
 5031TIP3   OH239287   3.074   1.604   1.686  0.0960  0.1607 -0.0952
 5031TIP3    H139288   2.997   1.613   1.630 -0.1258 -1.0585 -0.0177
 5031TIP3    H239289   3.087   1.510   1.694  0.6844  0.3205  1.1401
 5032TIP3   OH239290   3.666   7.374   0.309  0.3030 -0.2654 -0.2300
 5032TIP3    H139291   3.701   7.388   0.221  0.9685  0.1947  0.1024
 5032TIP3    H239292   3.707   7.292   0.338  0.9169  0.1361  0.0568
 5033TIP3   OH239293   2.544   2.199   2.219 -0.4121  0.1113 -0.7536
 5033TIP3    H139294   2.453   2.168   2.215 -1.3978  2.7007 -0.5644
 5033TIP3    H239295   2.571   2.181   2.309 -0.8472 -0.4279 -0.7275
 5034TIP3   OH239296   3.711   4.127   8.668 -0.3246  0.6383 -0.4581
 5034TIP3    H139297   3.758   4.078   8.601 -0.1604 -1.1014  0.8495
 5034TIP3    H239298   3.621   4.133   8.636  0.1076  1.3164 -1.5785
 5035TIP3   OH239299   6.189   1.466   0.958 -0.1268 -0.3720  0.7523
 5035TIP3    H139300   6.094   1.473   0.957 -0.4166 -3.1264  0.1844
 5035TIP3    H239301   6.218   1.518   0.883 -1.4632 -1.7516 -0.7983
 5036TIP3   OH239302   7.584   4.907   1.781 -0.3232  0.1727  0.0669
 5036TIP3    H139303   7.632   4.859   1.848 -0.0913  0.1839 -0.0883
 5036TIP3    H239304   7.529   4.967   1.829  0.9126  1.2159  0.2311
 5037TIP3   OH239305   7.306   3.843   6.994 -0.0526 -0.2571  0.6706
 5037TIP3    H139306   7.281   3.935   6.988  1.2325  0.0228 -3.2327
 5037TIP3    H239307   7.237   3.796   6.949  0.5713 -0.8630  0.3215
 5038TIP3   OH239308   3.647   2.853   8.433  0.1946  0.8100 -0.1513
 5038TIP3    H139309   3.743   2.855   8.434  0.3836  0.1151 -3.5403
 5038TIP3    H239310   3.621   2.944   8.443  1.2327  1.0855  0.1344
 5039TIP3   OH239311   7.637   0.415   9.802 -0.4409 -0.1133 -0.3631
 5039TIP3    H139312   7.720   0.434   9.847 -2.1230 -1.4999  3.8358
 5039TIP3    H239313   7.588   0.497   9.807 -0.4889 -0.1659  0.0851
 5040TIP3   OH239314   6.108   0.148   0.375  0.8850  0.3651  0.0152
 5040TIP3    H139315   6.017   0.167   0.394  1.3883  1.9101  1.0917
 5040TIP3    H239316   6.124   0.190   0.291  0.8109  0.8319  0.2302
 5041TIP3   OH239317   4.015   0.422   2.812 -0.3331  0.4864  0.4063
 5041TIP3    H139318   3.999   0.357   2.882 -0.9735 -0.8563 -0.9306
 5041TIP3    H239319   4.018   0.506   2.858  0.4872 -0.4729  2.2040
 5042TIP3   OH239320   7.208   1.278   9.563 -0.1064 -1.0632  0.7182
 5042TIP3    H139321   7.123   1.260   9.602 -1.3063  1.5582 -0.4499
 5042TIP3    H239322   7.250   1.340   9.622  0.5340 -1.4921  0.7260
 5043TIP3   OH239323   6.772   3.040   8.552  0.0466  0.6680 -0.0548
 5043TIP3    H139324   6.791   3.079   8.467  0.5724  1.4531  0.4022
 5043TIP3    H239325   6.679   3.018   8.549 -0.2357  1.8474 -0.3845
 5044TIP3   OH239326   6.310   7.677   0.503  0.5138  0.5213 -0.3233
 5044TIP3    H139327   6.273   7.592   0.528 -1.0457  1.2181 -0.0985
 5044TIP3    H239328   6.246   7.713   0.442  1.2077  1.5006 -0.4920
 5045TIP3   OH239329   0.665   5.858   9.551  0.0382  0.0280 -0.0616
 5045TIP3    H139330   0.674   5.953   9.560 -0.4488  0.2623 -1.7445
 5045TIP3    H239331   0.754   5.827   9.531  0.0808  0.2210 -0.1722
 5046TIP3   OH239332   7.161   6.095   9.584 -0.0941 -1.0998 -0.8975
 5046TIP3    H139333   7.117   6.178   9.566  2.6815  0.3389 -1.6928
 5046TIP3    H239334   7.179   6.098   9.678  3.9785  1.5745 -1.5034
 5047TIP3   OH239335   6.560   7.246   9.091 -0.4102  0.1807 -0.8154
 5047TIP3    H139336   6.515   7.272   9.171  0.7122 -0.7431  0.1572
 5047TIP3    H239337   6.598   7.327   9.057  1.1406  0.2466  0.9422
 5048TIP3   OH239338   0.647   5.093   1.351 -0.0786  0.5909  0.6306
 5048TIP3    H139339   0.739   5.068   1.353 -0.0182  0.7419 -0.0012
 5048TIP3    H239340   0.647   5.187   1.367 -0.3606  0.1629  3.8134
 5049TIP3   OH239341   3.674   6.982   8.900 -0.1218 -0.1060  0.5293
 5049TIP3    H139342   3.585   6.978   8.935  0.4705 -1.5739  2.0093
 5049TIP3    H239343   3.675   6.921   8.826 -0.8522  1.5001 -0.8667
 5050TIP3   OH239344   3.595   7.314   1.432  0.1574  0.3121  0.7834
 5050TIP3    H139345   3.685   7.344   1.441  0.0362  0.6686  0.7985
 5050TIP3    H239346   3.583   7.303   1.337  0.6993 -1.2226  0.8629
 5051TIP3   OH239347   4.121   3.584   9.626  0.0491  0.1236  0.1864
 5051TIP3    H139348   4.151   3.669   9.659  1.5347  0.1905 -1.2166
 5051TIP3    H239349   4.202   3.537   9.606 -0.7655 -0.7171 -1.2737
 5052TIP3   OH239350   3.709   6.915   0.040  0.0390 -0.4074  0.0685
 5052TIP3    H139351   3.626   6.924  -0.005 -1.2059 -1.7198  1.9492
 5052TIP3    H239352   3.687   6.921   0.133  2.0393 -0.8428  0.6351
 5053TIP3   OH239353   2.235   6.129   9.155 -0.1435  0.1514 -0.1286
 5053TIP3    H139354   2.315   6.079   9.144 -1.2249 -2.0498  1.2920
 5053TIP3    H239355   2.258   6.200   9.215  0.9674  0.2238 -0.6252
 5054TIP3   OH239356   1.530   7.161   0.901 -0.2853 -0.4171 -0.1081
 5054TIP3    H139357   1.552   7.254   0.896 -0.4366 -0.3648  0.1656
 5054TIP3    H239358   1.593   7.118   0.844 -0.8236 -0.0408 -1.0209
 5055TIP3   OH239359   6.792   2.471   8.863 -0.3234 -0.4384 -0.6282
 5055TIP3    H139360   6.725   2.473   8.931 -0.7455  1.2008 -1.0463
 5055TIP3    H239361   6.744   2.477   8.781  0.2457 -1.2911 -1.0401
 5056TIP3   OH239362   0.277   6.091   3.325  0.1292 -0.1771  0.7840
 5056TIP3    H139363   0.290   5.998   3.347 -0.1384 -0.7529 -1.2766
 5056TIP3    H239364   0.183   6.105   3.335  0.4297  0.5078  3.1964
 5057TIP3   OH239365   1.990   5.665   9.232  0.7155 -0.4049 -0.2514
 5057TIP3    H139366   1.985   5.739   9.172  0.6071 -1.4249 -1.5421
 5057TIP3    H239367   2.035   5.596   9.183  3.1255 -0.4304  1.7721
 5058TIP3   OH239368   4.842   1.677   1.094 -0.8386  0.2840  0.2179
 5058TIP3    H139369   4.760   1.719   1.067 -0.4062  0.3890 -0.9782
 5058TIP3    H239370   4.890   1.746   1.140 -0.4689  0.9141 -1.0568
 5059TIP3   OH239371   1.498   6.716   9.904 -0.2044  0.3019  0.3832
 5059TIP3    H139372   1.574   6.707   9.845 -1.4939 -0.5444 -1.2353
 5059TIP3    H239373   1.488   6.810   9.916  2.4735  0.4329  2.5818
 5060TIP3   OH239374   5.801   2.428   1.122 -0.3182 -0.2399  0.0257
 5060TIP3    H139375   5.721   2.462   1.161  0.2078  0.3941  0.5936
 5060TIP3    H239376   5.846   2.506   1.089  0.4118 -0.4998  0.3818
 5061TIP3   OH239377   7.412   6.616   0.902  0.1041 -0.1016  0.1105
 5061TIP3    H139378   7.323   6.646   0.887 -0.0832 -0.7733 -0.1324
 5061TIP3    H239379   7.452   6.685   0.955  0.0695  1.2333 -1.4916
 5062TIP3   OH239380   2.099   4.685   8.904  0.2283 -0.2826 -0.2197
 5062TIP3    H139381   2.030   4.628   8.937  1.6967 -2.9661 -1.4680
 5062TIP3    H239382   2.077   4.699   8.812  0.5694  0.1259 -0.2460
 5063TIP3   OH239383   3.644   3.154   1.428 -0.3901 -0.4589 -0.8338
 5063TIP3    H139384   3.674   3.103   1.353  0.6480 -0.5796 -0.3450
 5063TIP3    H239385   3.710   3.222   1.440 -1.8877  1.2621 -1.6639
 5064TIP3   OH239386   4.214   4.603   8.340  0.6584 -0.0873 -0.0430
 5064TIP3    H139387   4.252   4.663   8.404 -1.4688  2.8166 -1.2796
 5064TIP3    H239388   4.253   4.518   8.361  1.9375  1.1803  3.4404
 5065TIP3   OH239389   3.045   3.880   9.154  0.0166  0.2036  0.1706
 5065TIP3    H139390   3.014   3.924   9.075  1.4812 -2.2888 -1.9025
 5065TIP3    H239391   2.991   3.801   9.161  3.2258 -2.3502 -1.4805
 5066TIP3   OH239392   1.766   5.701   9.023  0.2972  0.0037 -0.2081
 5066TIP3    H139393   1.802   5.626   8.976  0.6934  0.8295 -1.2551
 5066TIP3    H239394   1.754   5.768   8.956 -4.1267 -0.4681 -0.2196
 5067TIP3   OH239395   2.806   7.251   1.055 -0.3493  0.2904  0.2867
 5067TIP3    H139396   2.739   7.205   1.106 -0.7335 -0.7619 -1.1116
 5067TIP3    H239397   2.819   7.196   0.978  0.9991  1.2916 -0.2268
 5068TIP3   OH239398   1.403   5.617   7.539 -0.0947 -0.0166 -0.2102
 5068TIP3    H139399   1.341   5.666   7.485 -1.0503 -0.0215  0.8540
 5068TIP3    H239400   1.488   5.655   7.518 -0.8987  3.1096  1.5861
 5069TIP3   OH239401   2.721   2.941   8.321  0.1323 -0.3305  0.3559
 5069TIP3    H139402   2.635   2.904   8.304 -0.3730  0.6644  0.6312
 5069TIP3    H239403   2.723   3.021   8.269  1.7854 -1.4659 -1.4466
 5070TIP3   OH239404   7.076   3.174   7.262  0.0661 -0.0317 -0.1008
 5070TIP3    H139405   7.116   3.192   7.176 -0.3411  0.0911 -0.2652
 5070TIP3    H239406   7.151   3.161   7.320  0.4083  1.9223 -0.0221
 5071TIP3   OH239407   0.042   0.778   0.369 -0.1908 -0.2467 -0.2479
 5071TIP3    H139408   0.072   0.858   0.326 -0.2294  0.6201  1.3017
 5071TIP3    H239409   0.121   0.726   0.382 -0.2680 -0.9225 -2.0527
 5072TIP3   OH239410   4.521   2.252   8.312  0.0331 -0.2051 -0.2166
 5072TIP3    H139411   4.600   2.305   8.315 -0.8273  1.3651 -2.4499
 5072TIP3    H239412   4.465   2.288   8.380  0.2115  0.4846 -0.4281
 5073TIP3   OH239413   2.089   3.110   7.636  0.0016  0.3723  0.1277
 5073TIP3    H139414   2.134   3.130   7.553  3.0840 -0.4473  1.4369
 5073TIP3    H239415   2.104   3.016   7.648  0.3534  0.6233  1.9633
 5074TIP3   OH239416   6.636   6.558   2.001 -0.0644  0.2134 -0.8503
 5074TIP3    H139417   6.553   6.597   2.028  0.1460 -0.5351  1.0616
 5074TIP3    H239418   6.612   6.468   1.975  0.0648  0.1969 -0.9113
 5075TIP3   OH239419   0.626   2.787   6.609  0.4790 -0.0248 -0.0997
 5075TIP3    H139420   0.559   2.727   6.641  0.6662  0.4697  1.3048
 5075TIP3    H239421   0.592   2.818   6.525  0.2738 -1.8846 -0.7600
 5076TIP3   OH239422   2.592   3.190   9.687  0.0031 -0.3113  0.8355
 5076TIP3    H139423   2.500   3.178   9.707 -0.3792  1.6574  0.4028
 5076TIP3    H239424   2.633   3.208   9.772 -0.1010 -0.5453  0.9377
 5077TIP3   OH239425   1.852   3.216   7.743  0.4655 -0.4632  0.5636
 5077TIP3    H139426   1.836   3.186   7.833  0.5275  1.3343  1.2174
 5077TIP3    H239427   1.933   3.171   7.717  1.8321  0.7938  2.3570
 5078TIP3   OH239428   3.272   6.136   0.906  0.2652  0.2453  0.5557
 5078TIP3    H139429   3.346   6.137   0.966 -0.4983  1.7596  1.5458
 5078TIP3    H239430   3.197   6.113   0.961 -0.2435  0.2535 -0.1129
 5079TIP3   OH239431   3.712   3.886   8.470 -0.2532  0.6159  0.6704
 5079TIP3    H139432   3.793   3.936   8.456 -0.0937  1.1045  2.9622
 5079TIP3    H239433   3.643   3.940   8.432  0.0249  2.2510  2.3759
 5080TIP3   OH239434   5.726   4.922   9.607 -0.3755 -0.2588  0.1817
 5080TIP3    H139435   5.802   4.942   9.661 -0.2986  0.2583 -0.1138
 5080TIP3    H239436   5.741   4.832   9.577 -1.2944 -1.2596  2.4721
 5081TIP3   OH239437   3.370   3.281   7.244 -0.0137 -0.1429  1.0037
 5081TIP3    H139438   3.346   3.373   7.249  0.8892  0.0874  1.1487
 5081TIP3    H239439   3.372   3.252   7.336  0.9019  0.0103  1.0371
 5082TIP3   OH239440   5.621   1.185   7.750 -0.2778 -0.4472 -0.6169
 5082TIP3    H139441   5.594   1.133   7.826  0.0778  0.9005  0.4746
 5082TIP3    H239442   5.551   1.172   7.686 -0.3155 -2.0555 -0.3061
 5083TIP3   OH239443   0.023   6.339   8.661  0.1240 -0.5144  0.7415
 5083TIP3    H139444  -0.030   6.272   8.704 -0.1775 -0.3945  0.5607
 5083TIP3    H239445   0.023   6.315   8.569 -0.5321  0.0970  0.5780
 5084TIP3   OH239446   2.694   7.338   2.844 -0.2044  0.1753 -0.1592
 5084TIP3    H139447   2.622   7.314   2.785  0.0502 -1.6878  0.2476
 5084TIP3    H239448   2.650   7.371   2.923 -0.5516  1.8585 -1.0017
 5085TIP3   OH239449   4.179   2.873   1.032  0.1710  0.0921 -0.3911
 5085TIP3    H139450   4.183   2.940   1.100  2.9834  0.0577 -0.4238
 5085TIP3    H239451   4.248   2.897   0.970  2.1600 -3.4056  0.2054
 5086TIP3   OH239452   5.252   6.937   1.195 -0.4382  0.2959  0.2967
 5086TIP3    H139453   5.245   6.950   1.101  0.9266 -2.5594 -0.3097
 5086TIP3    H239454   5.347   6.933   1.211 -0.6369  1.1023  1.8851
 5087TIP3   OH239455   6.547   2.089   0.062 -0.1878 -0.0878  0.2596
 5087TIP3    H139456   6.617   2.137   0.017 -0.4158  0.4663  0.4899
 5087TIP3    H239457   6.485   2.067  -0.007 -0.0963 -0.0196  0.1552
 5088TIP3   OH239458   0.901   0.886   2.005 -0.3016 -0.3386 -0.6897
 5088TIP3    H139459   0.939   0.945   2.070  0.9067 -1.1579 -0.6282
 5088TIP3    H239460   0.811   0.918   1.994 -0.6016 -0.2626  1.4856
 5089TIP3   OH239461   0.468   7.365   2.299 -0.1165 -0.3821 -0.3314
 5089TIP3    H139462   0.482   7.291   2.359 -1.0293 -0.7528 -0.5496
 5089TIP3    H239463   0.392   7.338   2.246 -0.1162  0.4854 -0.7838
 5090TIP3   OH239464   2.893   0.180   7.668  0.3307 -0.8597  0.3648
 5090TIP3    H139465   2.814   0.233   7.680 -0.1045 -1.3254 -0.3469
 5090TIP3    H239466   2.897   0.163   7.574  3.2981  2.2069 -0.2741
 5091TIP3   OH239467   1.208   0.093   1.848 -0.0780  0.3954  0.1552
 5091TIP3    H139468   1.203   0.188   1.840  1.3803  0.5086  0.2806
 5091TIP3    H239469   1.117   0.064   1.849 -0.5457  1.7892  0.1769
 5092TIP3   OH239470   0.091   3.747   9.762  0.9338  0.4363  0.8611
 5092TIP3    H139471   0.013   3.779   9.809 -0.3612 -0.2824 -0.7128
 5092TIP3    H239472   0.141   3.826   9.743 -0.9027  1.3004 -0.6529
 5093TIP3   OH239473   5.973   0.793   1.756 -0.2259 -0.1584 -0.3990
 5093TIP3    H139474   6.045   0.802   1.819 -0.0484 -2.3193 -0.2216
 5093TIP3    H239475   6.007   0.830   1.675  0.0275  1.4354  0.3982
 5094TIP3   OH239476   1.262   4.277   0.964  0.6549 -0.1823 -0.4325
 5094TIP3    H139477   1.342   4.237   0.996 -0.8379 -0.3553  3.6426
 5094TIP3    H239478   1.246   4.351   1.023 -1.2890  0.9264 -2.2031
 5095TIP3   OH239479   7.450   6.916   7.888 -0.8360  0.1189  0.0519
 5095TIP3    H139480   7.416   6.837   7.931 -1.6549  0.8471  0.7830
 5095TIP3    H239481   7.545   6.901   7.882 -0.7572 -0.2196  1.7004
 5096TIP3   OH239482   6.985   1.168   7.688 -0.2635  0.6440 -0.8022
 5096TIP3    H139483   6.999   1.101   7.621 -0.4925  1.8220 -2.0603
 5096TIP3    H239484   7.051   1.148   7.755 -0.7220 -1.1916 -0.8362
 5097TIP3   OH239485   0.346   7.463   1.485 -0.1797  0.0940  0.6542
 5097TIP3    H139486   0.283   7.421   1.427  0.5633 -0.2122  0.0470
 5097TIP3    H239487   0.388   7.390   1.531  0.3619  0.2247  0.3819
 5098TIP3   OH239488   2.021   3.668   0.729 -0.1933  0.6820 -0.8060
 5098TIP3    H139489   1.995   3.577   0.741 -0.5397  0.7982 -0.6532
 5098TIP3    H239490   2.054   3.672   0.639 -0.7413  0.5365 -1.0171
 5099TIP3   OH239491   4.227   5.362   8.288 -0.3815  0.2000  0.0483
 5099TIP3    H139492   4.241   5.400   8.201 -0.5226  1.4713  0.5542
 5099TIP3    H239493   4.135   5.377   8.307 -0.6600 -1.2423 -0.1043
 5100TIP3   OH239494   5.645   0.605   8.175  0.2667 -0.0064  0.4910
 5100TIP3    H139495   5.609   0.529   8.220  0.1181  0.6309  1.4968
 5100TIP3    H239496   5.573   0.669   8.176 -0.0618 -0.2903 -1.5121
 5101TIP3   OH239497   6.631   2.424   7.348 -0.3672 -0.7992  0.6733
 5101TIP3    H139498   6.580   2.352   7.384 -1.1021 -1.0303 -0.7551
 5101TIP3    H239499   6.682   2.384   7.278  1.6283 -0.5218  1.8992
 5102TIP3   OH239500   1.246   4.818   2.609  0.7055  0.3380  0.4577
 5102TIP3    H139501   1.304   4.758   2.655 -0.0456 -0.8637 -0.1275
 5102TIP3    H239502   1.256   4.795   2.517 -0.2394  0.5291  0.3001
 5103TIP3   OH239503   4.317   0.255   8.606  0.5165  0.7535 -0.0210
 5103TIP3    H139504   4.284   0.217   8.525  0.4922 -1.5864  1.0260
 5103TIP3    H239505   4.413   0.250   8.597  0.5088 -0.3429  0.4558
 5104TIP3   OH239506   4.888   7.400   7.883  0.0630  0.4945 -0.2952
 5104TIP3    H139507   4.809   7.404   7.829  0.5401  0.4739 -0.9995
 5104TIP3    H239508   4.889   7.310   7.916 -0.5690  0.6865  0.2849
 5105TIP3   OH239509   6.670   7.009   8.994  0.2833 -0.1239 -0.4762
 5105TIP3    H139510   6.637   7.081   9.048 -0.8952 -0.2008 -1.0554
 5105TIP3    H239511   6.627   7.021   8.909  0.5719 -1.1354 -0.7813
 5106TIP3   OH239512   6.392   1.570   0.307  0.0102 -0.7382  0.2494
 5106TIP3    H139513   6.329   1.580   0.236 -1.0452  0.2286  1.2969
 5106TIP3    H239514   6.382   1.479   0.335 -1.9436 -0.2554  1.2923
 5107TIP3   OH239515   0.525   7.617   2.685 -0.4140  0.4695 -0.2855
 5107TIP3    H139516   0.607   7.581   2.652  0.0475 -1.6838  2.7269
 5107TIP3    H239517   0.552   7.669   2.762 -1.6491  2.5096 -1.1586
 5108TIP3   OH239518   1.550   6.756   2.785 -0.4323  0.6184  0.0386
 5108TIP3    H139519   1.613   6.692   2.820  0.4334  1.5027  0.1744
 5108TIP3    H239520   1.467   6.732   2.825 -0.2983 -0.9102 -0.5561
 5109TIP3   OH239521   0.606   5.097   1.885  0.3356  0.2929  0.4075
 5109TIP3    H139522   0.683   5.058   1.926  0.7881  1.5086  0.7863
 5109TIP3    H239523   0.568   5.027   1.832  2.2270 -0.1111 -0.5165
 5110TIP3   OH239524   0.227   1.518   1.202 -0.0082  0.1160  0.2099
 5110TIP3    H139525   0.167   1.469   1.260 -0.8027  1.1057  0.2522
 5110TIP3    H239526   0.183   1.517   1.117  1.3958 -1.7673 -0.5608
 5111TIP3   OH239527   4.928   6.567   1.393 -0.4474 -0.1709  0.1962
 5111TIP3    H139528   4.970   6.629   1.333 -0.0363 -1.8868 -1.3807
 5111TIP3    H239529   4.988   6.560   1.467  0.5679 -0.3272 -0.6305
 5112TIP3   OH239530   1.900   7.333   1.390 -0.0536 -0.1628  0.4782
 5112TIP3    H139531   1.826   7.273   1.381 -1.0157  0.7310  1.8284
 5112TIP3    H239532   1.880   7.406   1.331 -1.6271  1.2861  2.6357
 5113TIP3   OH239533   0.468   1.775   7.682  0.9045  0.4708 -0.4767
 5113TIP3    H139534   0.550   1.787   7.636  1.1161 -0.6452 -0.4183
 5113TIP3    H239535   0.401   1.776   7.614  0.7711  2.8889 -0.3895
 5114TIP3   OH239536   2.736   6.312   7.882  0.5501  0.7675 -0.3877
 5114TIP3    H139537   2.726   6.338   7.974  1.2068  0.4482 -0.2214
 5114TIP3    H239538   2.667   6.248   7.867  0.9844  0.1765  0.1280
 5115TIP3   OH239539   4.438   1.573   1.024  0.2386  0.6487 -0.5032
 5115TIP3    H139540   4.499   1.641   0.994  0.8774  0.2187 -0.2176
 5115TIP3    H239541   4.355   1.594   0.982  0.5328  1.3718 -0.7371
 5116TIP3   OH239542   0.220   0.451   7.949 -0.9930  0.9547  0.0608
 5116TIP3    H139543   0.218   0.489   7.861  1.7034  2.0550  0.3841
 5116TIP3    H239544   0.312   0.454   7.974 -1.6448  0.3599  2.7993
 5117TIP3   OH239545   0.328   2.160   0.719  0.1598 -0.2500 -0.5461
 5117TIP3    H139546   0.279   2.080   0.738  0.4104 -0.0627  1.0411
 5117TIP3    H239547   0.416   2.143   0.753 -0.4054  1.5093  2.1559
 5118TIP3   OH239548   3.321   1.264   2.861  0.2035 -0.4235 -0.6988
 5118TIP3    H139549   3.319   1.334   2.796  2.1772 -1.1069 -1.5611
 5118TIP3    H239550   3.268   1.298   2.934 -0.7163  1.0280 -1.9789
 5119TIP3   OH239551   1.778   4.164   9.368 -0.1780 -0.3259  0.4421
 5119TIP3    H139552   1.742   4.155   9.456 -0.5242 -0.9645  0.2366
 5119TIP3    H239553   1.788   4.075   9.336  0.0392 -0.1019 -0.1316
 5120TIP3   OH239554   4.950   0.401   2.443  0.7911 -0.2501  0.0114
 5120TIP3    H139555   4.965   0.413   2.536  0.3973  1.0022 -0.0729
 5120TIP3    H239556   4.875   0.342   2.438  1.8477 -1.7001  0.4534
 5121TIP3   OH239557   4.373   5.776   7.947 -0.3253  0.2301  0.5389
 5121TIP3    H139558   4.429   5.770   7.869 -2.6426  0.4129 -1.2544
 5121TIP3    H239559   4.357   5.869   7.959  0.6353  0.2600  1.7484
 5122TIP3   OH239560   4.234   0.217   7.934 -0.4173 -0.1255 -0.0740
 5122TIP3    H139561   4.270   0.296   7.975  0.8534 -1.1028  0.7878
 5122TIP3    H239562   4.306   0.181   7.883 -0.5808 -1.3517  0.4991
 5123TIP3   OH239563   7.098   5.602   8.551 -0.2810  0.1997 -0.6759
 5123TIP3    H139564   7.101   5.537   8.621  0.8279 -1.0377 -1.8186
 5123TIP3    H239565   7.181   5.648   8.558  0.8190 -1.3783 -2.4387
 5124TIP3   OH239566   6.599   0.733   3.189 -0.1650 -0.2634 -0.4379
 5124TIP3    H139567   6.600   0.828   3.201  0.3781 -0.0067 -2.2855
 5124TIP3    H239568   6.589   0.698   3.278 -1.5721  1.5252  0.1639
 5125TIP3   OH239569   1.432   3.858   8.091 -0.2014 -0.3066 -0.3985
 5125TIP3    H139570   1.479   3.876   8.172 -0.5047  0.9313 -0.4891
 5125TIP3    H239571   1.479   3.907   8.024 -1.3049  0.5685 -0.5701
 5126TIP3   OH239572   4.380   0.567   8.678 -0.0977 -0.5086  0.0746
 5126TIP3    H139573   4.335   0.488   8.646  1.1561 -1.1881 -0.0708
 5126TIP3    H239574   4.473   0.546   8.670  0.2494  0.6767  0.8441
 5127TIP3   OH239575   4.986   0.084   8.225  0.7014 -0.1170 -0.7033
 5127TIP3    H139576   5.078   0.111   8.225  0.3150  1.3584  0.5185
 5127TIP3    H239577   4.969   0.055   8.135  2.2837 -0.1905 -1.0005
 5128TIP3   OH239578   3.593   3.456   9.605  0.1177  0.5147 -0.6672
 5128TIP3    H139579   3.689   3.446   9.603  0.2048  1.3536 -1.5727
 5128TIP3    H239580   3.561   3.370   9.633  1.1796  0.6318  1.0084
 5129TIP3   OH239581   5.086   0.115   1.127  0.2771 -0.1216 -0.2090
 5129TIP3    H139582   5.004   0.159   1.105 -0.0218 -0.9465 -0.7722
 5129TIP3    H239583   5.072   0.024   1.102  1.7920 -0.0452 -1.4380
 5130TIP3   OH239584   3.104   2.009   1.727 -0.1258  0.0485  0.0904
 5130TIP3    H139585   3.064   1.993   1.642 -2.3029  0.4210  0.9713
 5130TIP3    H239586   3.110   1.923   1.768  1.1815 -0.1667 -0.5133
 5131TIP3   OH239587   2.556   2.405   8.863 -0.8690  0.0871  0.0025
 5131TIP3    H139588   2.469   2.411   8.904  0.3174 -0.2873  2.8188
 5131TIP3    H239589   2.597   2.489   8.884 -0.4497  0.1794 -1.1281
 5132TIP3   OH239590   2.460   1.344   8.560  0.3986 -0.8967 -0.1746
 5132TIP3    H139591   2.387   1.308   8.511  1.1797 -0.3079 -1.8658
 5132TIP3    H239592   2.433   1.338   8.651 -2.1240  0.0685 -0.7679
 5133TIP3   OH239593   4.172   2.230   9.658 -0.0708 -0.3098  0.0143
 5133TIP3    H139594   4.222   2.292   9.711 -0.2738  0.4616 -0.6667
 5133TIP3    H239595   4.101   2.202   9.715 -0.1280  0.2942  0.2514
 5134TIP3   OH239596   0.744   3.205   0.288  0.8041  0.1596  0.0849
 5134TIP3    H139597   0.781   3.256   0.216  3.0687 -0.3238  0.8337
 5134TIP3    H239598   0.706   3.128   0.246 -0.8581  1.3879 -0.8509
 5135TIP3   OH239599   1.943   5.445   9.413 -0.1036  0.1604 -0.3213
 5135TIP3    H139600   1.977   5.512   9.353 -2.1423 -0.6801 -2.5910
 5135TIP3    H239601   1.859   5.479   9.442  0.1100 -0.1983  0.7515
 5136TIP3   OH239602   4.265   0.298   9.192 -0.7034  0.2215  0.6762
 5136TIP3    H139603   4.215   0.236   9.140  1.3193 -1.2139  0.3503
 5136TIP3    H239604   4.326   0.338   9.130 -0.1037  0.5026  1.4319
 5137TIP3   OH239605   3.387   1.584   1.490 -0.0558 -0.3050 -0.1724
 5137TIP3    H139606   3.363   1.552   1.577 -0.5232  0.3822 -0.0404
 5137TIP3    H239607   3.387   1.680   1.498  2.4499 -0.2184 -0.2439
 5138TIP3   OH239608   7.440   5.514   7.917 -0.1677  0.4392  0.1855
 5138TIP3    H139609   7.483   5.448   7.972 -2.2735 -0.9720  0.2446
 5138TIP3    H239610   7.396   5.572   7.979 -1.1426 -0.1489  0.0532
 5139TIP3   OH239611   5.845   0.357   0.756 -0.1570 -0.0867  0.3108
 5139TIP3    H139612   5.932   0.357   0.714  1.1593  0.2562  2.8381
 5139TIP3    H239613   5.834   0.447   0.787 -1.8503  0.0931 -0.7176
 5140TIP3   OH239614   2.266   5.405   8.096 -0.0223  0.4950 -0.0372
 5140TIP3    H139615   2.197   5.350   8.058  2.3202 -1.9585 -1.0047
 5140TIP3    H239616   2.266   5.484   8.041 -0.6183 -0.4100 -1.3811
 5141TIP3   OH239617   2.698   4.323   9.459  0.6653 -0.1119 -0.0013
 5141TIP3    H139618   2.618   4.328   9.407  0.6340 -0.0837  0.0506
 5141TIP3    H239619   2.735   4.411   9.455  0.9537 -0.2501 -0.4402
 5142TIP3   OH239620   0.272   0.586   6.911  0.9487 -0.2772  0.3749
 5142TIP3    H139621   0.197   0.556   6.962  1.8467 -2.4981  0.5098
 5142TIP3    H239622   0.299   0.668   6.954 -0.8404  0.1122  0.8336
 5143TIP3   OH239623   1.689   0.282   9.967  0.1755  0.2546 -0.4332
 5143TIP3    H139624   1.616   0.327  10.011  0.8240 -0.9713  2.1039
 5143TIP3    H239625   1.758   0.281  10.033  1.8160 -0.3581 -2.0988
 5144TIP3   OH239626   5.858   2.836   9.078 -0.4146 -0.5249 -0.1626
 5144TIP3    H139627   5.820   2.754   9.048 -0.9115 -0.3759  0.0336
 5144TIP3    H239628   5.785   2.898   9.075 -0.0065 -0.0564 -0.4530
 5145TIP3   OH239629   1.570   5.082   2.722  0.3336 -0.1904  1.1261
 5145TIP3    H139630   1.508   5.059   2.791 -0.9173 -1.1291 -0.2377
 5145TIP3    H239631   1.556   5.015   2.655  1.4233  0.7572 -0.0899
 5146TIP3   OH239632   6.531   6.165   9.663  0.2351  0.1203 -0.2873
 5146TIP3    H139633   6.472   6.090   9.657 -0.2613  0.1518  2.7180
 5146TIP3    H239634   6.611   6.129   9.702 -1.0487  1.3898  4.2094
 5147TIP3   OH239635   0.679   4.629   9.292  0.0852  0.6022 -0.3108
 5147TIP3    H139636   0.606   4.570   9.308 -0.1785  0.9572 -0.1921
 5147TIP3    H239637   0.756   4.581   9.322  0.0586 -0.2426 -1.4840
 5148TIP3   OH239638   7.344   1.752   9.388 -0.2921 -0.0950  0.4535
 5148TIP3    H139639   7.348   1.832   9.440  0.8066  1.0968 -1.3399
 5148TIP3    H239640   7.435   1.721   9.384 -0.6162 -1.1093  0.6273
 5149TIP3   OH239641   6.234   6.123   9.120 -0.2281 -0.3297 -0.3503
 5149TIP3    H139642   6.244   6.031   9.145 -1.2604 -0.1644  0.7699
 5149TIP3    H239643   6.320   6.148   9.086  1.2058 -0.7324  2.6425
 5150TIP3   OH239644   5.613   5.814   9.955 -0.6288  0.6698 -0.2169
 5150TIP3    H139645   5.679   5.871   9.994 -0.4552  1.3940 -1.5084
 5150TIP3    H239646   5.560   5.785  10.029 -0.8852  2.7330  0.4861
 5151TIP3   OH239647   5.744   1.503   7.815  0.2568  0.0908 -0.1559
 5151TIP3    H139648   5.739   1.412   7.788  1.1593  0.2207 -0.8167
 5151TIP3    H239649   5.815   1.505   7.879 -1.8392 -0.2083  2.3423
 5152TIP3   OH239650   2.248   5.277   0.387 -0.3821 -0.8465  0.3933
 5152TIP3    H139651   2.207   5.335   0.322  0.5859  0.0854  0.5954
 5152TIP3    H239652   2.224   5.189   0.358  0.7214 -0.5165 -1.7580
 5153TIP3   OH239653   1.363   1.894   1.242  0.1322  0.7593  0.2560
 5153TIP3    H139654   1.322   1.977   1.217 -0.9284 -0.2719 -1.6770
 5153TIP3    H239655   1.449   1.897   1.199  0.0500  0.8250  0.0920
 5154TIP3   OH239656   7.039   5.994   9.946 -0.3948 -0.3671  0.6153
 5154TIP3    H139657   7.110   6.047   9.910  0.2272 -1.1318  0.6779
 5154TIP3    H239658   6.985   5.971   9.870 -1.1557  1.0269  0.6998
 5155TIP3   OH239659   5.468   7.319   8.895 -0.0605 -0.7020 -0.1559
 5155TIP3    H139660   5.499   7.251   8.835  2.5500 -0.3482  0.6650
 5155TIP3    H239661   5.489   7.286   8.982 -0.8301  0.1783  0.3835
 5156TIP3   OH239662   2.696   3.068   9.133  0.4671  0.2334  0.0875
 5156TIP3    H139663   2.786   3.055   9.163 -0.1262 -1.5622  1.2849
 5156TIP3    H239664   2.699   3.048   9.039  1.0864 -1.2303  0.3936
 5157TIP3   OH239665   6.249   6.548   7.569 -0.0671 -0.1172  0.8427
 5157TIP3    H139666   6.241   6.522   7.478  0.1762 -1.0449  1.0757
 5157TIP3    H239667   6.284   6.637   7.566 -0.8971  0.1930  0.0270
 5158TIP3   OH239668   2.597   3.389   2.706  0.2851 -0.0192 -0.2044
 5158TIP3    H139669   2.641   3.326   2.763  0.8206 -0.1325 -0.7317
 5158TIP3    H239670   2.630   3.369   2.618 -1.6278 -0.8191 -0.7954
 5159TIP3   OH239671   3.914   5.390   7.339  0.1694  0.3446 -0.4550
 5159TIP3    H139672   3.847   5.322   7.330  0.3316 -0.1094  1.3575
 5159TIP3    H239673   3.870   5.470   7.311 -0.4265 -0.2843 -1.4022
 5160TIP3   OH239674   0.749   3.939   7.699 -0.1252  0.0028  0.7007
 5160TIP3    H139675   0.800   3.883   7.757 -1.5440 -0.7500  1.2916
 5160TIP3    H239676   0.809   3.964   7.630  0.7686 -1.6113  0.8513
 5161TIP3   OH239677   1.089   0.477   7.354 -0.2031  0.6800  0.0575
 5161TIP3    H139678   1.137   0.517   7.427 -0.9681  1.7850 -0.0132
 5161TIP3    H239679   1.136   0.508   7.276 -0.6309  1.2314  0.0133
 5162TIP3   OH239680   5.042   6.717   1.166  0.3277 -0.4742 -0.6720
 5162TIP3    H139681   5.079   6.656   1.102  1.1689 -0.4123 -0.2684
 5162TIP3    H239682   5.096   6.796   1.157  0.6468 -0.5668  0.2912
 5163TIP3   OH239683   6.468   2.942   9.978 -0.1492 -0.0974 -0.4326
 5163TIP3    H139684   6.518   2.860   9.985 -0.3954 -0.2813 -0.8431
 5163TIP3    H239685   6.514   3.002  10.037  0.6141 -0.2376 -0.8652
 5164TIP3   OH239686   4.641   3.627   8.329 -0.4103  0.1036 -0.0908
 5164TIP3    H139687   4.554   3.590   8.310 -0.5624  0.9117 -1.0679
 5164TIP3    H239688   4.701   3.554   8.315 -0.9969 -0.8168  1.7924
 5165TIP3   OH239689   6.676   4.123   9.046 -0.4576  0.7937  0.5010
 5165TIP3    H139690   6.769   4.121   9.070 -0.0114 -0.4153 -1.1063
 5165TIP3    H239691   6.652   4.030   9.039 -2.0914  1.0720  1.8827
 5166TIP3   OH239692   4.870   3.037   9.042 -0.0119  0.5007  0.0226
 5166TIP3    H139693   4.831   3.033   8.955 -1.5096  1.9301  0.5726
 5166TIP3    H239694   4.920   3.119   9.043 -0.4629  0.7837  0.6603
 5167TIP3   OH239695   2.869   1.889   2.242 -0.2790  0.0140  0.1291
 5167TIP3    H139696   2.902   1.800   2.247  2.3753  0.9537  1.2797
 5167TIP3    H239697   2.788   1.888   2.294 -0.4445 -1.7522 -0.1179
 5168TIP3   OH239698   4.601   5.047   7.940 -0.1161  0.1641 -0.4575
 5168TIP3    H139699   4.531   4.986   7.915 -0.2759  1.0426 -2.2884
 5168TIP3    H239700   4.674   4.991   7.964 -0.7874 -0.7515 -0.4966
 5169TIP3   OH239701   2.697   2.834   9.795  0.3448  0.6261  0.0568
 5169TIP3    H139702   2.715   2.770   9.726  0.0705  1.1856 -0.5392
 5169TIP3    H239703   2.643   2.901   9.753 -1.2410  0.1403  1.2185
 5170TIP3   OH239704   3.165   1.618   8.773  0.2068 -0.4332  0.5056
 5170TIP3    H139705   3.112   1.643   8.849  0.5052  0.7105  0.3545
 5170TIP3    H239706   3.198   1.701   8.738 -0.1506 -0.8992 -1.0460
 5171TIP3   OH239707   0.901   0.793   9.656 -0.2044 -0.2387 -0.2540
 5171TIP3    H139708   0.815   0.769   9.622 -0.4596 -1.0562  0.9272
 5171TIP3    H239709   0.952   0.712   9.654  0.6982  0.3103 -1.2994
 5172TIP3   OH239710   4.048   0.406   1.759  0.0874 -0.0420  0.3981
 5172TIP3    H139711   4.097   0.397   1.678 -0.0330 -0.1689  0.3401
 5172TIP3    H239712   3.956   0.396   1.734  0.1122 -1.1845  0.7071
 5173TIP3   OH239713   3.927   0.034   8.309  0.2258 -0.3579  0.2644
 5173TIP3    H139714   4.010  -0.011   8.291  1.2511  1.7447 -0.6045
 5173TIP3    H239715   3.860  -0.030   8.286  1.5934 -1.7133 -0.1609
 5174TIP3   OH239716   5.755   0.859   2.195 -0.3308  0.0901  0.0738
 5174TIP3    H139717   5.843   0.881   2.226  0.0086 -0.1778 -0.6740
 5174TIP3    H239718   5.696   0.894   2.262  0.3846 -0.6683  1.1222
 5175TIP3   OH239719   6.269   0.904   8.688  0.1125 -0.0540 -0.1477
 5175TIP3    H139720   6.362   0.915   8.708  0.1257 -0.1283 -0.1697
 5175TIP3    H239721   6.240   0.834   8.746  0.0148  0.1280  0.0284
 5176TIP3   OH239722   2.602   0.524   0.166 -0.1333  0.3828  0.1678
 5176TIP3    H139723   2.553   0.509   0.085  0.7045 -0.5417 -0.1841
 5176TIP3    H239724   2.639   0.439   0.189  0.5769  0.8692  0.9154
 5177TIP3   OH239725   1.127   0.924   8.772 -0.5102  0.0473 -0.4096
 5177TIP3    H139726   1.127   1.000   8.831 -0.4497 -0.1183 -0.1977
 5177TIP3    H239727   1.090   0.958   8.691 -1.2461  0.0972 -0.0565
 5178TIP3   OH239728   0.499   3.387   9.731  0.0821 -0.2685 -0.0938
 5178TIP3    H139729   0.445   3.308   9.728 -0.3197 -0.0705  1.3634
 5178TIP3    H239730   0.471   3.438   9.655  0.2212 -1.4322 -0.9515
 5179TIP3   OH239731   3.930   6.029   9.442  0.1770  0.2769  0.3129
 5179TIP3    H139732   3.883   6.089   9.498  1.2896 -0.4771  2.1482
 5179TIP3    H239733   3.899   5.942   9.468 -0.8862 -0.0578 -1.7975
 5180TIP3   OH239734   4.590   5.727   8.597 -0.2138  0.4722  0.2000
 5180TIP3    H139735   4.607   5.811   8.554  0.5822  0.4800  0.5172
 5180TIP3    H239736   4.610   5.742   8.689 -1.7600  0.4097  0.5725
 5181TIP3   OH239737   1.927   1.061   8.613 -0.5212 -0.0861  0.1496
 5181TIP3    H139738   1.981   1.007   8.555 -0.4937 -0.9133  0.9192
 5181TIP3    H239739   1.985   1.081   8.687 -1.5859 -1.9720  1.5586
 5182TIP3   OH239740   1.314   1.032   9.630  0.0360  0.3564 -0.0788
 5182TIP3    H139741   1.321   0.966   9.699  1.5159 -0.0640 -0.6144
 5182TIP3    H239742   1.240   1.002   9.577  1.5990 -1.7544 -1.2009
 5183TIP3   OH239743   2.327   2.763   9.229  0.5963  0.2956  0.2873
 5183TIP3    H139744   2.380   2.685   9.247  1.9125  1.3832  1.3364
 5183TIP3    H239745   2.390   2.835   9.227 -0.6836  1.4615  0.1642
 5184TIP3   OH239746   3.375   5.790   8.715 -0.1493 -0.2738 -0.5003
 5184TIP3    H139747   3.305   5.856   8.712  1.5434  1.7948  1.6667
 5184TIP3    H239748   3.338   5.719   8.768 -0.1631  1.5599  2.1475
 5185TIP3   OH239749   0.707   1.488   0.823 -0.3523 -0.3728 -0.4201
 5185TIP3    H139750   0.701   1.573   0.779 -3.3921  0.9086  2.1093
 5185TIP3    H239751   0.798   1.483   0.853 -0.1015  1.9981 -0.6165
 5186TIP3   OH239752   0.126   2.884   8.696  0.1612  0.0942 -0.5163
 5186TIP3    H139753   0.145   2.972   8.730  0.0774 -0.1614  0.2164
 5186TIP3    H239754   0.205   2.860   8.648 -0.0201  0.7770 -1.1764
 5187TIP3   OH239755   5.651   0.240   1.638 -0.1860 -0.2747 -0.3962
 5187TIP3    H139756   5.714   0.169   1.642  0.7370  0.2043 -3.5823
 5187TIP3    H239757   5.588   0.213   1.572  0.4513  1.9298 -2.0440
 5188TIP3   OH239758   3.656   7.468   2.058  0.4304 -0.4392 -0.2536
 5188TIP3    H139759   3.750   7.484   2.066  0.4609 -1.1418  1.1937
 5188TIP3    H239760   3.616   7.555   2.060  1.0830 -0.0496 -2.0943
 5189TIP3   OH239761   3.563   4.956   8.816 -0.2805 -0.3346 -0.0483
 5189TIP3    H139762   3.514   4.983   8.894 -0.2699 -0.8977  0.1592
 5189TIP3    H239763   3.593   4.867   8.837 -1.5895 -1.1044 -1.3152
 5190TIP3   OH239764   4.220   3.987   7.977 -0.5834  0.2090 -0.5272
 5190TIP3    H139765   4.125   3.996   7.973 -0.4008  2.3437 -1.0334
 5190TIP3    H239766   4.238   3.969   8.070 -1.4504 -0.0720 -0.3991
 5191TIP3   OH239767   2.872   6.023   1.753  0.0215  0.1671  0.2633
 5191TIP3    H139768   2.957   6.031   1.710  0.8907  2.0743  2.1446
 5191TIP3    H239769   2.884   5.954   1.818 -0.3813 -0.6609 -0.5262
 5192TIP3   OH239770   2.068   0.935   0.645  0.0765 -0.1984 -0.3604
 5192TIP3    H139771   2.127   0.869   0.610  1.6860  1.2488 -0.4789
 5192TIP3    H239772   2.073   1.008   0.584  1.1463  1.4596  1.5862
 5193TIP3   OH239773   0.431   7.198   0.658 -0.3594 -0.0448  0.0319
 5193TIP3    H139774   0.484   7.151   0.723 -0.0803  0.3590  0.0993
 5193TIP3    H239775   0.370   7.250   0.711 -0.2084  0.1966 -0.0317
 5194TIP3   OH239776   1.046   0.635   7.763 -0.1212  0.5023  0.3639
 5194TIP3    H139777   1.001   0.720   7.757 -2.2952 -0.2372  3.5697
 5194TIP3    H239778   0.976   0.571   7.767  1.4570 -1.3873 -0.4400
 5195TIP3   OH239779   5.774   2.982   9.552 -0.1504 -0.2910 -0.4789
 5195TIP3    H139780   5.778   2.919   9.625  0.5696 -0.2583 -0.4749
 5195TIP3    H239781   5.779   3.068   9.594 -0.3598 -0.2525 -0.5320
 5196TIP3   OH239782   0.387   3.629   7.420 -0.5226  0.0629 -0.8294
 5196TIP3    H139783   0.454   3.618   7.353  0.1781  0.2675 -0.1806
 5196TIP3    H239784   0.425   3.590   7.499 -2.0729 -1.8779 -0.9702
 5197TIP3   OH239785   1.226   6.965   0.450  0.0632 -0.3059  0.2611
 5197TIP3    H139786   1.302   6.994   0.400  0.4209 -1.8071 -0.1165
 5197TIP3    H239787   1.157   6.956   0.384 -0.0188 -0.3712  0.3563
 5198TIP3   OH239788   2.589   0.572   9.869 -0.3849  0.1121 -0.2413
 5198TIP3    H139789   2.677   0.596   9.839  0.0726  0.6549  1.4073
 5198TIP3    H239790   2.584   0.477   9.854 -0.2922  0.3865 -2.1761
 5199TIP3   OH239791   3.561   4.899   9.779  0.6366 -0.0974  0.4064
 5199TIP3    H139792   3.614   4.848   9.840  0.4644 -0.3212  0.3721
 5199TIP3    H239793   3.577   4.990   9.803  1.5147 -0.1388 -0.0071
 5200TIP3   OH239794   4.158   2.938   7.150  0.0168  0.5660 -0.2140
 5200TIP3    H139795   4.148   3.033   7.154  1.0118  0.6292  1.2301
 5200TIP3    H239796   4.125   2.907   7.235 -1.0907 -0.4816 -0.9862
 5201TIP3   OH239797   5.779   6.308   7.178  0.1622 -0.0726 -0.0713
 5201TIP3    H139798   5.845   6.257   7.131 -0.1945  0.3149 -1.0255
 5201TIP3    H239799   5.772   6.389   7.128  2.0774  1.8079  2.4515
 5202TIP3   OH239800   4.954   1.029   9.247  0.3600 -0.3928 -0.0831
 5202TIP3    H139801   5.017   1.101   9.239 -0.9615  1.1370  2.1420
 5202TIP3    H239802   5.000   0.962   9.297  1.4669 -0.9753 -1.8173
 5203TIP3   OH239803   6.456   6.240   9.009  0.0078 -0.3647  0.1709
 5203TIP3    H139804   6.468   6.306   8.941 -0.9872  1.2541  1.4836
 5203TIP3    H239805   6.519   6.264   9.077 -0.7815 -0.4049  0.9249
 5204TIP3   OH239806   6.270   6.982   7.400  0.2296  0.5482 -0.3069
 5204TIP3    H139807   6.293   6.947   7.314 -0.2054  2.7084 -1.3667
 5204TIP3    H239808   6.175   6.986   7.400  0.1320 -0.8840  0.9297
 5205TIP3   OH239809   6.623   2.660   2.285  0.1229  0.0635  0.1093
 5205TIP3    H139810   6.689   2.609   2.331  0.0811 -1.5077 -1.4777
 5205TIP3    H239811   6.671   2.733   2.247  0.7852 -0.5922 -0.3189
 5206TIP3   OH239812   3.116   2.262   7.956  0.1469  0.1704 -0.5003
 5206TIP3    H139813   3.033   2.230   7.992 -0.7273  1.9745 -0.7753
 5206TIP3    H239814   3.129   2.210   7.876 -0.5588 -0.3578 -0.2772
 5207TIP3   OH239815   0.359   6.647   2.848  0.2840 -0.4946 -0.2112
 5207TIP3    H139816   0.323   6.560   2.866  2.1071 -1.0713  0.9137
 5207TIP3    H239817   0.290   6.707   2.874 -1.0524 -1.5700 -1.0870
 5208TIP3   OH239818   7.163   0.136   8.376 -0.1544  0.0044  0.3672
 5208TIP3    H139819   7.123   0.095   8.453 -1.0169  0.7462  0.3354
 5208TIP3    H239820   7.118   0.097   8.302 -0.8417  0.8379  0.3298
 5209TIP3   OH239821   2.943   4.551   1.234  0.5631 -0.3398 -0.3164
 5209TIP3    H139822   2.946   4.603   1.154 -0.1025  2.2526  1.1984
 5209TIP3    H239823   2.872   4.488   1.220  0.9588 -0.4525 -2.0022
 5210TIP3   OH239824   3.471   3.020   6.987  0.3110 -0.4793  0.4956
 5210TIP3    H139825   3.376   3.021   6.980  0.2487 -0.2743  1.2873
 5210TIP3    H239826   3.501   3.060   6.905 -0.1756 -2.8101 -0.9072
 5211TIP3   OH239827   0.502   1.513   1.754 -0.3319 -0.1371  0.4345
 5211TIP3    H139828   0.462   1.428   1.768  0.6903 -0.3531  2.4289
 5211TIP3    H239829   0.581   1.512   1.809  1.0652  1.1855 -1.4019
 5212TIP3   OH239830   5.259   0.223   1.916 -0.3713  0.1930 -0.1052
 5212TIP3    H139831   5.283   0.314   1.898  0.4998  0.1629  0.8215
 5212TIP3    H239832   5.288   0.208   2.006  0.8321 -1.4171 -0.7077
 5213TIP3   OH239833   7.616   7.347   2.623 -0.4464  0.1095 -0.1873
 5213TIP3    H139834   7.589   7.307   2.706  0.1163 -0.8303 -0.4406
 5213TIP3    H239835   7.645   7.273   2.569 -0.9602  0.6808 -1.2863
 5214TIP3   OH239836   1.484   4.960   1.635 -0.0417 -0.1622 -0.1356
 5214TIP3    H139837   1.493   4.962   1.540 -0.8467 -0.3633 -0.2214
 5214TIP3    H239838   1.481   5.052   1.661  0.6916 -0.0994 -0.2447
 5215TIP3   OH239839   3.768   7.002   8.554  0.6705 -0.3851 -0.1058
 5215TIP3    H139840   3.811   6.944   8.617  0.6001 -0.7613 -0.3967
 5215TIP3    H239841   3.679   7.012   8.589  0.6371 -0.5765 -0.1342
 5216TIP3   OH239842   1.090   3.355   2.362  0.5877  0.3600 -0.3112
 5216TIP3    H139843   1.089   3.259   2.368 -1.9427  0.3970  0.8897
 5216TIP3    H239844   1.109   3.384   2.452  0.2898  0.9922 -0.4506
 5217TIP3   OH239845   3.287   3.780   1.985 -0.2750 -0.3672  0.4259
 5217TIP3    H139846   3.322   3.865   2.011 -0.2189 -0.0509 -0.6244
 5217TIP3    H239847   3.365   3.727   1.968 -0.3080 -0.3498  0.2177
 5218TIP3   OH239848   6.824   6.249   8.317 -0.2292  0.0818 -0.0113
 5218TIP3    H139849   6.807   6.191   8.242 -0.5358 -1.0683  0.9207
 5218TIP3    H239850   6.875   6.321   8.280 -0.9277 -0.1161 -1.4614
 5219TIP3   OH239851   1.675   7.088   2.529 -0.5082  0.0617  0.3884
 5219TIP3    H139852   1.591   7.133   2.526 -0.8619 -0.5485  0.8979
 5219TIP3    H239853   1.692   7.076   2.623  0.2859  0.4379  0.2975
 5220TIP3   OH239854   7.228   7.337   0.112 -0.1134  0.0279 -0.1304
 5220TIP3    H139855   7.138   7.342   0.142 -0.5096 -0.2382 -1.2309
 5220TIP3    H239856   7.222   7.312   0.020  1.1702 -3.2830  0.5450
 5221TIP3   OH239857   1.655   7.450   1.719  0.4393  0.2122  0.2250
 5221TIP3    H139858   1.598   7.405   1.657  1.1071  0.1363 -0.3455
 5221TIP3    H239859   1.634   7.543   1.709  1.0777  0.2724 -0.6849
 5222TIP3   OH239860   1.493   5.156   9.568 -0.3907 -0.1225  0.1095
 5222TIP3    H139861   1.433   5.230   9.572  0.5868  0.8127 -1.5820
 5222TIP3    H239862   1.437   5.079   9.565 -1.4632  0.6426  0.1457
 5223TIP3   OH239863   5.578   6.706   7.581  0.5175 -0.6585 -0.4192
 5223TIP3    H139864   5.515   6.658   7.527 -1.4663  1.3922 -0.0556
 5223TIP3    H239865   5.640   6.743   7.518 -0.9714  0.5582 -1.2483
 5224TIP3   OH239866   1.519   6.013   1.138  0.5918 -0.3672 -0.1853
 5224TIP3    H139867   1.467   5.965   1.202 -0.0102  0.5932  0.0607
 5224TIP3    H239868   1.540   5.948   1.071 -1.4983 -0.6520 -0.6375
 5225TIP3   OH239869   1.337   6.599   9.473  0.1077  0.0114  0.2360
 5225TIP3    H139870   1.392   6.551   9.535  0.0846 -0.0410  0.2159
 5225TIP3    H239871   1.377   6.686   9.469 -0.8281  0.5410  1.5705
 5226TIP3   OH239872   1.507   7.019   7.379  0.2155 -0.4929 -0.5213
 5226TIP3    H139873   1.574   6.988   7.441 -0.4771  0.1838  0.6154
 5226TIP3    H239874   1.443   6.947   7.376 -0.6508  0.1612  0.9782
 5227TIP3   OH239875   1.765   4.354   1.047  0.0268  0.3399  0.4853
 5227TIP3    H139876   1.714   4.435   1.055 -1.5573 -0.3671 -1.5235
 5227TIP3    H239877   1.759   4.313   1.133 -0.8175  1.4205  0.9718
 5228TIP3   OH239878   0.691   4.131   2.256 -0.1840  0.1109 -0.2546
 5228TIP3    H139879   0.681   4.216   2.212  0.3468  1.0933  1.4596
 5228TIP3    H239880   0.601   4.101   2.270 -0.3773 -0.1733 -1.8239
 5229TIP3   OH239881   6.307   6.208   8.429  0.2386  0.1965  0.2254
 5229TIP3    H139882   6.212   6.201   8.417  0.1977 -0.3281  0.7733
 5229TIP3    H239883   6.338   6.257   8.353 -0.5255  0.7454  0.2576
 5230TIP3   OH239884   2.792   0.378   1.883 -0.7960 -0.0902 -0.0362
 5230TIP3    H139885   2.746   0.331   1.814 -1.8986  0.5811  0.2065
 5230TIP3    H239886   2.879   0.396   1.847 -0.4962 -1.9121 -0.2762
 5231TIP3   OH239887   4.284   1.030   0.168  0.6582  0.1516 -0.0918
 5231TIP3    H139888   4.319   1.037   0.257  1.2388 -1.3428 -0.1734
 5231TIP3    H239889   4.339   0.964   0.126 -0.7603 -0.5183 -0.9693
 5232TIP3   OH239890   4.474   2.516   1.622 -0.2731 -0.1150 -0.5402
 5232TIP3    H139891   4.553   2.548   1.665 -1.1514  0.0780  0.9974
 5232TIP3    H239892   4.411   2.588   1.631 -0.9062 -0.6046 -0.9357
 5233TIP3   OH239893   2.863   4.061   2.826 -0.3346 -0.2948  0.3767
 5233TIP3    H139894   2.853   3.966   2.821  1.0908 -0.5068  1.0718
 5233TIP3    H239895   2.887   4.088   2.738  0.4393 -0.7426  0.4440
 5234TIP3   OH239896   2.118   1.178   7.601 -0.5306  0.1301 -0.3337
 5234TIP3    H139897   2.191   1.182   7.539  0.2845 -0.6728  0.5425
 5234TIP3    H239898   2.059   1.112   7.564  0.9201 -1.8282  0.6999
 5235TIP3   OH239899   3.474   1.775   1.181  0.3618  0.1130 -0.4518
 5235TIP3    H139900   3.477   1.737   1.269  0.8961  1.9583  0.3596
 5235TIP3    H239901   3.433   1.707   1.128  1.0760 -1.5202  0.9711
 5236TIP3   OH239902   1.148   5.293   8.189 -0.2533  0.0899  0.0749
 5236TIP3    H139903   1.212   5.338   8.133 -0.0052  1.2972  1.2775
 5236TIP3    H239904   1.063   5.319   8.154 -0.0980 -0.4678 -0.7303
 5237TIP3   OH239905   3.848   4.988   0.299  0.1205  0.3251 -0.0828
 5237TIP3    H139906   3.892   4.907   0.322  1.1636  0.7618 -0.4549
 5237TIP3    H239907   3.892   5.055   0.351  1.2757  1.0544 -1.8927
 5238TIP3   OH239908   2.333   4.681   2.833 -0.1251  0.4757 -0.3328
 5238TIP3    H139909   2.317   4.604   2.887 -3.9289  0.9646 -0.4398
 5238TIP3    H239910   2.378   4.742   2.891  0.4199 -0.7949  0.6301
 5239TIP3   OH239911   1.609   5.799   8.267  0.3602 -0.4245  0.0419
 5239TIP3    H139912   1.515   5.786   8.279  0.5605 -2.2883 -0.0221
 5239TIP3    H239913   1.641   5.821   8.355  0.0736 -1.4615  0.4297
 5240TIP3   OH239914   7.325   5.298   8.998 -0.1475  0.2008  0.7813
 5240TIP3    H139915   7.359   5.236   8.934 -1.0635  0.5619 -0.0908
 5240TIP3    H239916   7.385   5.292   9.073 -0.1437 -1.6131  0.6568
 5241TIP3   OH239917   0.782   2.235   2.447  0.9785 -0.0612 -0.1215
 5241TIP3    H139918   0.865   2.268   2.414 -0.0832  0.5857 -2.2809
 5241TIP3    H239919   0.788   2.140   2.436  2.2430 -0.2752  1.8440
 5242TIP3   OH239920   6.612   1.490   0.580  0.0806  0.1931 -0.2004
 5242TIP3    H139921   6.531   1.542   0.580 -1.3141 -1.8345 -1.1901
 5242TIP3    H239922   6.636   1.482   0.672 -0.9796  0.6510  0.1258
 5243TIP3   OH239923   1.361   2.033   0.232  0.2525  0.0485  0.3132
 5243TIP3    H139924   1.294   1.982   0.278  0.6903  1.6355  2.8937
 5243TIP3    H239925   1.350   2.122   0.264  1.7204  0.9389 -1.4678
 5244TIP3   OH239926   2.943   0.225   0.214 -0.4166  0.5095 -0.3318
 5244TIP3    H139927   2.854   0.227   0.248 -0.2482 -1.2943  0.3602
 5244TIP3    H239928   2.992   0.175   0.280  0.9116  0.7462 -1.1101
 5245TIP3   OH239929   3.387   0.960   9.837  0.0479 -0.4407  0.2126
 5245TIP3    H139930   3.442   1.029   9.874  0.2122 -0.7308  0.5124
 5245TIP3    H239931   3.311   0.956   9.895  0.2526 -0.8184  0.4621
 5246TIP3   OH239932   2.847   4.242   7.570  0.3588  0.6545 -0.1363
 5246TIP3    H139933   2.816   4.262   7.658 -2.1629 -0.2246 -0.7320
 5246TIP3    H239934   2.853   4.146   7.569 -0.3268  0.6039 -1.0813
 5247TIP3   OH239935   2.207   6.704   7.570 -0.0253 -0.1007 -0.0421
 5247TIP3    H139936   2.176   6.795   7.574  0.3785  0.0261  0.2502
 5247TIP3    H239937   2.227   6.690   7.477 -1.6919 -0.4413 -0.3791
 5248TIP3   OH239938   0.174   5.321   9.240 -0.1757 -0.6995  0.4505
 5248TIP3    H139939   0.194   5.352   9.328 -0.2275  1.0693 -0.1187
 5248TIP3    H239940   0.108   5.381   9.208 -1.1609 -2.1387 -0.3273
 5249TIP3   OH239941   7.137   7.330   9.028  0.1775  0.0186  0.3283
 5249TIP3    H139942   7.176   7.415   9.009 -1.3536  0.5094 -0.7369
 5249TIP3    H239943   7.088   7.345   9.109  1.5454 -0.4285  1.2926
 5250TIP3   OH239944   6.182   4.739   8.362 -0.1635 -0.1944 -0.2078
 5250TIP3    H139945   6.188   4.818   8.416  0.0103 -0.8589  0.7722
 5250TIP3    H239946   6.091   4.736   8.333 -0.2769  0.1516  0.0990
 5251TIP3   OH239947   0.842   0.356   1.569  0.2185  0.2064  0.0172
 5251TIP3    H139948   0.818   0.371   1.477  0.0188  1.3046  0.2391
 5251TIP3    H239949   0.767   0.308   1.605 -0.3431  0.9972 -0.0536
 5252TIP3   OH239950   5.504   1.860   9.452  0.1974  0.0395 -0.2213
 5252TIP3    H139951   5.418   1.861   9.496  0.7654  0.2624  0.9141
 5252TIP3    H239952   5.536   1.771   9.465  0.2425  0.0249 -0.4370
 5253TIP3   OH239953   6.218   6.441   0.788  0.0598 -0.1525 -0.3767
 5253TIP3    H139954   6.238   6.514   0.729 -0.0136 -0.9245 -1.3860
 5253TIP3    H239955   6.190   6.370   0.730  2.1937 -1.7138  0.3335
 5254TIP3   OH239956   6.810   7.285   7.919  0.1639  0.5629  0.6486
 5254TIP3    H139957   6.893   7.241   7.935  1.4214  2.1670 -1.0367
 5254TIP3    H239958   6.817   7.369   7.966  0.1284  1.3326 -0.6773
 5255TIP3   OH239959   1.612   0.661   2.921 -0.0727  1.2244  0.2980
 5255TIP3    H139960   1.523   0.628   2.924  0.1062  0.6483 -0.4618
 5255TIP3    H239961   1.645   0.650   3.010 -0.3848  0.3832  0.3177
 5256TIP3   OH239962   4.865   4.488   8.535  0.3594  0.0725  0.0456
 5256TIP3    H139963   4.831   4.401   8.514  1.1579 -0.1723 -0.2979
 5256TIP3    H239964   4.805   4.522   8.600 -0.8440 -0.1094 -0.9408
 5257TIP3   OH239965   3.997   7.632   9.376 -0.0437 -0.4439  0.1602
 5257TIP3    H139966   3.916   7.637   9.426  0.3057  0.7376  0.6474
 5257TIP3    H239967   4.001   7.714   9.327  0.9293 -0.4005  0.2741
 5258TIP3   OH239968   6.001   3.945   8.614 -0.0630 -0.0453  0.2157
 5258TIP3    H139969   6.088   3.977   8.639  0.9978 -2.6286  0.0858
 5258TIP3    H239970   5.978   3.995   8.536  0.6646  1.6276  1.0309
 5259TIP3   OH239971   6.691   2.155   8.122 -0.2777 -0.1631 -0.1289
 5259TIP3    H139972   6.612   2.158   8.176  1.1905  2.4618  2.1346
 5259TIP3    H239973   6.762   2.179   8.181  1.6530  1.5934 -2.8953
 5260TIP3   OH239974   2.815   0.518   0.851  0.8553 -0.3870  0.1838
 5260TIP3    H139975   2.881   0.513   0.782  1.2320 -0.3497  0.5354
 5260TIP3    H239976   2.860   0.563   0.923 -0.3568  2.1034 -0.5027
 5261TIP3   OH239977   6.446   0.625   6.995 -0.4586  0.2357  0.1295
 5261TIP3    H139978   6.498   0.545   6.980  0.0444  0.7376 -0.9426
 5261TIP3    H239979   6.391   0.632   6.917  0.2799  1.5055 -0.3043
 5262TIP3   OH239980   0.750   7.292   0.434 -0.0052 -0.2374 -0.5022
 5262TIP3    H139981   0.844   7.279   0.447  0.5563  3.6122  0.5680
 5262TIP3    H239982   0.708   7.250   0.509  1.2207  1.0769  0.9634
 5263TIP3   OH239983   6.076   2.729   9.276  0.7558  0.0188  0.2376
 5263TIP3    H139984   6.011   2.795   9.251  1.0699 -0.5494 -2.3048
 5263TIP3    H239985   6.143   2.778   9.324 -0.2527  1.0513  0.6466
 5264TIP3   OH239986   3.564   6.252   2.078  0.0147 -0.3004  0.3062
 5264TIP3    H139987   3.542   6.190   2.147  1.5224 -1.0152  0.1761
 5264TIP3    H239988   3.570   6.200   1.998 -1.0955  0.4183 -0.2730
 5265TIP3   OH239989   0.245   4.982   8.161  0.1976  0.2785 -0.3828
 5265TIP3    H139990   0.244   4.894   8.123  0.3209 -0.5139  1.3188
 5265TIP3    H239991   0.311   5.030   8.111  0.1711 -0.6217 -1.2963
 5266TIP3   OH239992   4.926   1.930   1.885 -0.4370  0.6604 -0.3664
 5266TIP3    H139993   4.944   1.875   1.808 -0.3602 -1.6872  1.2360
 5266TIP3    H239994   5.009   1.933   1.932 -0.6463  1.5755 -0.0415
 5267TIP3   OH239995   0.274   3.542   6.680  0.2143  0.0833 -0.0840
 5267TIP3    H139996   0.290   3.457   6.720  1.2562  0.4150  0.2488
 5267TIP3    H239997   0.206   3.582   6.733 -0.6968 -0.7688 -0.5949
 5268TIP3   OH239998   5.568   4.424   9.269 -0.4623  0.2764 -0.0842
 5268TIP3    H139999   5.505   4.403   9.200 -3.2821  1.8919  1.7982
 5268TIP3    H240000   5.588   4.517   9.257 -0.6568  0.4753  0.9706
 5269TIP3   OH240001   6.947   0.149   1.099  0.1785 -0.0142 -0.1637
 5269TIP3    H140002   6.947   0.091   1.023  0.2539 -0.1905 -0.0292
 5269TIP3    H240003   6.883   0.217   1.077  0.4202  0.1045 -0.5136
 5270TIP3   OH240004   3.020   4.782   8.942 -0.8760  0.1594  0.5595
 5270TIP3    H140005   2.980   4.869   8.944 -2.5295 -0.5831  1.6928
 5270TIP3    H240006   3.074   4.783   8.863 -1.6839  1.8519 -0.0271
 5271TIP3   OH240007   3.947   0.403   9.989 -0.4055 -0.1689  0.5112
 5271TIP3    H140008   3.858   0.377   9.964 -0.2095 -0.2642 -0.1076
 5271TIP3    H240009   3.991   0.418   9.906 -0.3813  1.7518  0.8442
 5272TIP3   OH240010   3.036   4.550   9.387 -0.8449 -0.0387  0.1599
 5272TIP3    H140011   2.957   4.586   9.427 -0.7435  2.2396 -1.4587
 5272TIP3    H240012   3.105   4.612   9.411  0.4585 -1.8626  1.3356
 5273TIP3   OH240013   2.881   0.646   9.443  0.1078  0.2462 -0.2937
 5273TIP3    H140014   2.821   0.624   9.515  0.0734  0.0837 -0.3702
 5273TIP3    H240015   2.841   0.722   9.401  0.3648  0.6299  0.1403
 5274TIP3   OH240016   1.793   2.508   0.489  0.2212 -0.2036  0.3069
 5274TIP3    H140017   1.864   2.542   0.544  0.1997 -0.0459  0.2367
 5274TIP3    H240018   1.778   2.577   0.424 -0.2734 -0.0562  0.5741
 5275TIP3   OH240019   3.429   0.171   0.940 -0.5461 -0.9502 -0.4909
 5275TIP3    H140020   3.371   0.101   0.972 -1.3302 -0.3889 -0.6421
 5275TIP3    H240021   3.514   0.151   0.979 -0.8603 -1.7402 -0.1724
 5276TIP3   OH240022   3.782   1.421   9.577  0.2008 -0.0032  0.6758
 5276TIP3    H140023   3.760   1.329   9.593  1.3204 -0.4365 -0.1101
 5276TIP3    H240024   3.698   1.466   9.578 -0.3545 -1.0035  1.2387
 5277TIP3   OH240025   4.383   2.851   7.799 -1.1528 -0.6853  0.1184
 5277TIP3    H140026   4.290   2.841   7.822 -1.4729 -1.6559 -1.4735
 5277TIP3    H240027   4.383   2.909   7.723 -0.5475 -1.4388 -0.4717
 5278TIP3   OH240028   3.044   7.341   0.598 -0.2314 -0.1514  0.2082
 5278TIP3    H140029   3.013   7.250   0.595 -1.3128  0.2094  0.0368
 5278TIP3    H240030   3.001   7.378   0.675 -1.8968  0.9304 -1.1723
 5279TIP3   OH240031   4.435   5.134   7.310 -0.3498 -0.5786  0.1656
 5279TIP3    H140032   4.447   5.053   7.359 -0.8970  0.1436  1.5386
 5279TIP3    H240033   4.516   5.144   7.260  0.0270 -1.5920  0.5549
 5280TIP3   OH240034   0.308   7.243   7.444  0.2217  0.6837  0.4034
 5280TIP3    H140035   0.233   7.295   7.413  0.9456  0.5015 -1.7616
 5280TIP3    H240036   0.272   7.156   7.460 -0.2296  0.8550  0.3368
 5281TIP3   OH240037   4.306   7.006   1.116  0.0919  0.1986  0.6177
 5281TIP3    H140038   4.244   6.937   1.140 -0.4385  0.9506  1.4143
 5281TIP3    H240039   4.388   6.959   1.101 -0.2559 -0.6100  1.1790
 5282TIP3   OH240040   5.932   2.604   8.400  0.3343  0.0420  0.8847
 5282TIP3    H140041   6.001   2.668   8.418  0.2476  0.9908 -1.7795
 5282TIP3    H240042   5.862   2.655   8.361 -0.6540 -1.3683  0.7560
 5283TIP3   OH240043   0.842   3.040   8.397 -0.1503 -0.2608 -0.1707
 5283TIP3    H140044   0.864   2.949   8.415 -0.8910 -0.2412  0.8864
 5283TIP3    H240045   0.843   3.083   8.482 -2.9605  0.0081 -0.1740
 5284TIP3   OH240046   7.401   5.251   0.552  0.4230 -0.1619  0.0653
 5284TIP3    H140047   7.427   5.330   0.505 -0.3323  0.8894  1.3530
 5284TIP3    H240048   7.410   5.274   0.645 -0.1914 -1.4521  0.4689
 5285TIP3   OH240049   1.582   0.072   6.972 -0.9546  0.5631  0.2417
 5285TIP3    H140050   1.641   0.060   7.046  0.9538  1.3630 -1.0637
 5285TIP3    H240051   1.511   0.010   6.987  0.8948 -1.4397  1.2255
 5286TIP3   OH240052   2.683   1.483   7.280  0.2272 -0.4843 -0.1950
 5286TIP3    H140053   2.637   1.409   7.241  1.1001 -0.9547 -0.3698
 5286TIP3    H240054   2.616   1.530   7.330 -0.3434 -1.3915 -0.0809
 5287TIP3   OH240055   2.882   6.457   0.711 -0.7404  0.4741  0.5099
 5287TIP3    H140056   2.805   6.510   0.732  1.0450  2.6740  2.0603
 5287TIP3    H240057   2.946   6.479   0.779  1.7065 -0.2615 -1.3880
 5288TIP3   OH240058   5.677   7.030   7.058  0.1179 -0.1908  0.1749
 5288TIP3    H140059   5.676   6.934   7.064  0.4135 -0.2170 -0.2036
 5288TIP3    H240060   5.767   7.054   7.080  0.4439 -0.0977 -1.1573
 5289TIP3   OH240061   4.461   4.770   9.697 -0.2384 -0.9478 -0.0190
 5289TIP3    H140062   4.389   4.791   9.756  0.1490  1.3168 -0.2750
 5289TIP3    H240063   4.445   4.822   9.618  0.5619 -2.0384 -0.9541
 5290TIP3   OH240064   3.240   4.784   9.139 -0.0536 -0.0739 -0.1459
 5290TIP3    H140065   3.289   4.852   9.093 -0.2453  0.7850  0.8695
 5290TIP3    H240066   3.174   4.755   9.076 -2.0700  2.9603  0.3543
 5291TIP3   OH240067   5.741   2.371   9.327 -0.1770  0.0164 -0.3772
 5291TIP3    H140068   5.831   2.347   9.302  0.8288  2.1372  0.8940
 5291TIP3    H240069   5.747   2.465   9.348 -2.2684 -0.2223  1.5949
 5292TIP3   OH240070   0.728   4.224   0.839 -0.0606 -0.8607 -0.2910
 5292TIP3    H140071   0.741   4.239   0.932 -1.3594 -1.5473  0.0307
 5292TIP3    H240072   0.756   4.134   0.824 -1.3459 -1.2916 -0.2169
 5293TIP3   OH240073   3.655   2.917   7.569 -0.4436  0.0086 -0.4014
 5293TIP3    H140074   3.588   2.944   7.631 -0.4317 -0.5740 -0.1306
 5293TIP3    H240075   3.638   2.824   7.554  0.7344 -0.3170  0.2070
 5294TIP3   OH240076   7.179   4.413   0.423 -0.1025 -0.7342  0.4743
 5294TIP3    H140077   7.180   4.376   0.334  0.6855  0.9084 -0.2501
 5294TIP3    H240078   7.225   4.348   0.476  0.5519 -1.1643 -0.5803
 5295TIP3   OH240079   3.638   6.924   2.062 -0.1401 -0.2270  0.0157
 5295TIP3    H140080   3.650   7.019   2.060 -2.2600  0.1476  1.8107
 5295TIP3    H240081   3.726   6.890   2.079  0.4361  1.5079  0.7824
 5296TIP3   OH240082   5.146   6.304   1.702  0.5868 -0.0403  0.0695
 5296TIP3    H140083   5.066   6.309   1.649 -0.1430  1.3862  1.2373
 5296TIP3    H240084   5.210   6.264   1.644 -0.5277  0.2702 -1.4492
 5297TIP3   OH240085   6.677   1.601   8.614  0.0327 -0.5170 -0.4509
 5297TIP3    H140086   6.623   1.658   8.670  0.7822 -1.8712  1.7856
 5297TIP3    H240087   6.645   1.618   8.526 -1.4471  1.5223  0.3745
 5298TIP3   OH240088   3.659   2.508   1.721 -0.2460  0.2464  0.1983
 5298TIP3    H140089   3.690   2.422   1.692 -0.2572  0.1833  0.3744
 5298TIP3    H240090   3.574   2.491   1.761  0.0194  0.2525  0.7718
 5299TIP3   OH240091   1.858   4.526   8.196 -1.0549  0.0393 -0.2651
 5299TIP3    H140092   1.919   4.580   8.146 -0.2878 -0.8666 -0.3277
 5299TIP3    H240093   1.790   4.588   8.225  0.5048  1.3445  0.8495
 5300TIP3   OH240094   3.584   0.899   9.054  0.1864 -0.3411 -0.1420
 5300TIP3    H140095   3.501   0.912   9.007  0.9579 -1.2811 -1.8641
 5300TIP3    H240096   3.565   0.928   9.143 -1.7521  0.2560 -0.6778
 5301TIP3   OH240097   3.314   5.687   8.171 -0.0019 -0.1149  0.5022
 5301TIP3    H140098   3.357   5.770   8.152  1.0938 -0.7644  0.0341
 5301TIP3    H240099   3.276   5.660   8.088 -0.0734 -0.2423  0.5754
 5302TIP3   OH240100   2.380   3.357   0.467 -0.8727  0.0325  0.3764
 5302TIP3    H140101   2.472   3.347   0.446 -1.2650 -3.1566 -0.4563
 5302TIP3    H240102   2.371   3.323   0.556 -1.5130 -2.3641 -0.5051
 5303TIP3   OH240103   4.184   2.116   2.580  0.1592  0.5780 -0.4372
 5303TIP3    H140104   4.155   2.121   2.671  2.0470  1.5133  0.1495
 5303TIP3    H240105   4.109   2.078   2.534 -0.2740 -1.5394  1.7500
 5304TIP3   OH240106   5.905   7.452   2.570  1.1705 -0.7725  0.2393
 5304TIP3    H140107   5.903   7.469   2.664 -2.9930 -0.7415  0.3433
 5304TIP3    H240108   5.914   7.539   2.530  1.3327 -0.6168  0.6172
 5305TIP3   OH240109   7.606   1.040   8.058 -0.6569 -0.1265  0.0582
 5305TIP3    H140110   7.646   1.103   7.998  0.2866 -0.5759  0.1863
 5305TIP3    H240111   7.519   1.075   8.076 -0.7853  0.2501 -1.2166
 5306TIP3   OH240112   0.919   4.213   9.375  0.0052 -0.1122 -0.0648
 5306TIP3    H140113   0.968   4.164   9.309  1.6553  0.6906  0.5146
 5306TIP3    H240114   0.956   4.185   9.459 -1.1639 -0.1467  0.4656
 5307TIP3   OH240115   6.217   7.284   1.000  0.2656 -0.1071 -0.5233
 5307TIP3    H140116   6.270   7.357   0.967  0.7367 -0.6771 -1.0449
 5307TIP3    H240117   6.142   7.326   1.042  1.7891  0.8008  1.4581
 5308TIP3   OH240118   2.649   4.592   0.697 -1.0307 -0.0481 -0.3476
 5308TIP3    H140119   2.613   4.679   0.680 -0.5463  0.4797  1.1702
 5308TIP3    H240120   2.572   4.539   0.721 -1.0463  0.6657  1.3104
 5309TIP3   OH240121   4.164   1.672   1.801  0.7393 -0.5468 -0.4826
 5309TIP3    H140122   4.216   1.752   1.802 -1.0766  0.7341 -1.8892
 5309TIP3    H240123   4.106   1.682   1.725 -0.4713 -2.5924  0.0960
 5310TIP3   OH240124   1.737   4.734   9.595 -0.2230 -0.1374 -0.1626
 5310TIP3    H140125   1.714   4.816   9.639  0.2529  0.5775 -1.1913
 5310TIP3    H240126   1.797   4.691   9.656  1.3640  1.3790 -0.5631
 5311TIP3   OH240127   6.377   0.723   7.779 -0.0449 -0.3015  0.4525
 5311TIP3    H140128   6.286   0.716   7.809 -1.3958  2.4333 -2.3800
 5311TIP3    H240129   6.427   0.745   7.857 -1.8337 -1.4852  2.0223
 5312TIP3   OH240130   1.312   0.059   9.939 -0.1527 -0.0739 -0.3923
 5312TIP3    H140131   1.300   0.022   9.852  1.9250 -2.4323  0.2057
 5312TIP3    H240132   1.224   0.059   9.978 -1.2682  1.7835 -2.6467
 5313TIP3   OH240133   3.229   6.854   0.835  0.0572  0.3630 -0.3659
 5313TIP3    H140134   3.210   6.785   0.898 -1.2404  0.5086 -0.5817
 5313TIP3    H240135   3.165   6.841   0.765  2.1133 -0.4571 -2.2253
 5314TIP3   OH240136   1.504   7.468   1.232  0.2880  0.7415  0.5654
 5314TIP3    H140137   1.456   7.539   1.277  1.6942  2.4259 -0.4722
 5314TIP3    H240138   1.469   7.469   1.143  2.5820  2.4630 -0.4112
 5315TIP3   OH240139   5.917   4.811   8.238 -0.1696  0.5816 -0.1105
 5315TIP3    H140140   5.850   4.817   8.170 -0.4437  2.9615  0.2844
 5315TIP3    H240141   5.996   4.848   8.198 -0.1460  1.3464  0.6283
 5316TIP3   OH240142   4.794   6.234   0.631  0.1445  0.5026 -0.9559
 5316TIP3    H140143   4.853   6.297   0.590  0.6292  0.3484 -0.5169
 5316TIP3    H240144   4.707   6.254   0.596  0.4529  0.7650 -1.5749
 5317TIP3   OH240145   5.724   6.741   8.858 -0.2411 -0.2222 -0.1251
 5317TIP3    H140146   5.640   6.739   8.905 -0.9607  0.4024 -1.3584
 5317TIP3    H240147   5.723   6.661   8.805  1.0735 -1.5310  1.7050
 5318TIP3   OH240148   3.028   1.170   8.141  0.6701 -0.0492  0.1956
 5318TIP3    H140149   3.084   1.245   8.163  0.1529  0.6318 -0.6961
 5318TIP3    H240150   3.034   1.164   8.045 -0.9120  0.1697  0.0494
 5319TIP3   OH240151   2.138   2.409   9.011 -0.0588 -0.0956 -0.6495
 5319TIP3    H140152   2.044   2.413   9.030 -0.1559  1.6913 -1.3353
 5319TIP3    H240153   2.154   2.316   8.992 -1.8296 -0.3325 -1.2620
 5320TIP3   OH240154   1.541   7.002   7.783 -0.0906 -0.5635  0.2460
 5320TIP3    H140155   1.459   6.956   7.764 -0.3335  0.2247 -0.6363
 5320TIP3    H240156   1.530   7.034   7.873 -0.7804 -0.3879  0.1038
 5321TIP3   OH240157   2.227   0.787   2.313  0.0699  0.1440 -0.0228
 5321TIP3    H140158   2.191   0.792   2.224 -0.7790 -0.4875  0.2779
 5321TIP3    H240159   2.228   0.694   2.334  0.0535  0.3056  0.7160
 5322TIP3   OH240160   2.643   4.851   9.501  0.3812  0.3212 -0.6368
 5322TIP3    H140161   2.609   4.918   9.441  0.0348 -0.8505 -1.7870
 5322TIP3    H240162   2.570   4.831   9.560  0.5999  1.1936 -0.0510
 5323TIP3   OH240163   2.150   0.862   9.404  0.0729  0.4230 -0.7155
 5323TIP3    H140164   2.206   0.935   9.377 -1.0880  1.3040 -0.8420
 5323TIP3    H240165   2.136   0.876   9.498 -1.1867  1.1309 -0.9816
 5324TIP3   OH240166   6.710   0.350   0.797 -0.3696  0.3653 -0.1029
 5324TIP3    H140167   6.802   0.324   0.787 -0.1214  1.6659 -1.4913
 5324TIP3    H240168   6.662   0.267   0.788  0.6191 -0.2556  0.0851
 5325TIP3   OH240169   6.509   1.998   0.941  0.2173 -0.5047 -0.7434
 5325TIP3    H140170   6.437   1.955   0.987  1.1558 -1.0154  0.3066
 5325TIP3    H240171   6.561   2.039   1.010  0.1274  1.1707 -1.6038
 5326TIP3   OH240172   7.567   6.807   8.844  0.2503  0.2783 -0.3288
 5326TIP3    H140173   7.501   6.824   8.911  1.1569 -0.0446  0.6662
 5326TIP3    H240174   7.644   6.780   8.893  1.0384  0.3718 -1.4945
 5327TIP3   OH240175   2.834   0.081   9.080 -0.7704  0.7771  0.0314
 5327TIP3    H140176   2.850   0.004   9.026  0.8117  0.7038  0.5774
 5327TIP3    H240177   2.771   0.133   9.029 -1.5679 -0.6716 -0.5047
 5328TIP3   OH240178   5.847   0.597   6.954 -0.0470  0.1987  0.1138
 5328TIP3    H140179   5.826   0.689   6.934 -0.1503  0.0792 -0.3549
 5328TIP3    H240180   5.777   0.547   6.912 -0.4735 -0.0574  1.1166
 5329TIP3   OH240181   5.753   5.583   9.854  0.0539  0.5765 -0.3016
 5329TIP3    H140182   5.829   5.603   9.909  0.3292  0.2224 -0.5525
 5329TIP3    H240183   5.693   5.656   9.869  1.2186  1.8521 -1.5383
 5330TIP3   OH240184   0.514   1.818   3.159  0.0054 -0.0971 -0.8514
 5330TIP3    H140185   0.441   1.759   3.180 -0.3756 -0.2363 -2.4111
 5330TIP3    H240186   0.593   1.769   3.183 -0.3914  0.1335  1.0391
 5331TIP3   OH240187   1.454   0.220   7.760  0.5133 -0.0024  0.1219
 5331TIP3    H140188   1.517   0.253   7.825  1.3745 -0.5421 -0.4245
 5331TIP3    H240189   1.494   0.239   7.676 -0.3741  0.2433 -0.2521
 5332TIP3   OH240190   4.697   6.602   0.546  0.0816 -0.4991 -0.1870
 5332TIP3    H140191   4.706   6.673   0.483  0.4966  1.4708  1.9423
 5332TIP3    H240192   4.622   6.627   0.600 -0.1301 -1.9973  0.2655
 5333TIP3   OH240193   3.954   2.228   2.219 -0.1111  0.4274 -0.1425
 5333TIP3    H140194   3.989   2.243   2.132  0.9366 -1.7786 -0.1593
 5333TIP3    H240195   3.859   2.234   2.208 -0.0232 -0.4295 -1.5758
 5334TIP3   OH240196   5.007   7.172   1.149 -0.3066 -0.2757 -0.3159
 5334TIP3    H140197   4.996   7.129   1.234 -0.8533 -1.3849 -0.9331
 5334TIP3    H240198   5.101   7.186   1.141 -0.1441 -1.1683 -0.0094
 5335TIP3   OH240199   4.639   2.128   2.134 -0.3634  0.0655 -0.0679
 5335TIP3    H140200   4.642   2.204   2.192  0.7924 -0.9463  1.2589
 5335TIP3    H240201   4.641   2.165   2.046  0.6651  1.5592  0.5423
 5336TIP3   OH240202   1.815   4.968   0.267 -0.1693 -0.0492  0.1964
 5336TIP3    H140203   1.794   4.875   0.256 -0.1588 -0.0377  0.0860
 5336TIP3    H240204   1.863   4.972   0.350  0.2797 -0.2098 -0.0533
 5337TIP3   OH240205   6.879   7.401   0.658  0.2437  0.1419  0.5242
 5337TIP3    H140206   6.936   7.398   0.581 -0.6197  0.0822 -0.1233
 5337TIP3    H240207   6.796   7.435   0.625 -0.2001 -0.0833  1.3919
 5338TIP3   OH240208   3.668   1.109   3.259 -0.1058  0.4707 -0.2940
 5338TIP3    H140209   3.722   1.126   3.337 -1.0587  0.9575  0.2739
 5338TIP3    H240210   3.647   1.016   3.264 -2.0309  0.9343  1.2816
 5339TIP3   OH240211   0.188   0.537   9.899 -0.4721 -0.0041 -0.5420
 5339TIP3    H140212   0.203   0.606   9.963 -2.7997 -0.3670  0.5177
 5339TIP3    H240213   0.253   0.470   9.920 -0.3339  0.4553  0.5669
 5340TIP3   OH240214   1.942   3.338   9.964  0.1047 -0.1830 -0.1614
 5340TIP3    H140215   1.938   3.323   9.870  1.2813  0.3511 -0.3168
 5340TIP3    H240216   2.028   3.378   9.978  0.8788 -2.1941  1.3882
 5341TIP3   OH240217   1.699   3.780   7.010  0.4594 -0.1356 -0.4596
 5341TIP3    H140218   1.766   3.825   6.959  3.0817  0.4260  3.0374
 5341TIP3    H240219   1.716   3.807   7.101 -3.1160 -1.8276  0.9270
 5342TIP3   OH240220   3.734   3.622   9.986  0.2717 -0.1150  0.1964
 5342TIP3    H140221   3.729   3.661   9.898  1.8332 -1.8851 -0.7294
 5342TIP3    H240222   3.644   3.595  10.004 -0.1571  0.6371 -0.6564
 5343TIP3   OH240223   7.511   5.256   6.932  0.6465 -0.1797 -0.9255
 5343TIP3    H140224   7.477   5.315   6.999  0.4350 -0.8442 -0.4489
 5343TIP3    H240225   7.599   5.289   6.914  1.1467 -0.6858  0.5035
 5344TIP3   OH240226   5.679   2.886   7.945 -0.2055 -0.6728  0.2675
 5344TIP3    H140227   5.753   2.944   7.922 -0.4998 -0.8019 -1.1318
 5344TIP3    H240228   5.684   2.815   7.880 -0.6376 -1.5131  1.1378
 5345TIP3   OH240229   0.106   4.219   9.515 -0.3376 -0.6536 -0.8687
 5345TIP3    H140230   0.046   4.182   9.451  0.4320 -1.7822 -0.9644
 5345TIP3    H240231   0.171   4.266   9.462 -0.7340 -0.0191 -0.8019
 5346TIP3   OH240232   0.616   6.782   1.770  0.0250 -0.4301 -0.1837
 5346TIP3    H140233   0.624   6.870   1.806 -1.0286 -0.5421  0.3275
 5346TIP3    H240234   0.536   6.783   1.718 -1.2682 -1.7132  1.6808
 5347TIP3   OH240235   2.141   7.518   8.251  0.5437 -0.2170 -0.0141
 5347TIP3    H140236   2.129   7.604   8.290  1.3689  1.2354 -2.6733
 5347TIP3    H240237   2.161   7.460   8.324  0.4296  1.9275  1.8135
 5348TIP3   OH240238   3.046   7.113   9.279 -0.1337 -0.4758 -0.5911
 5348TIP3    H140239   3.072   7.188   9.332 -3.2808  1.0030 -0.9261
 5348TIP3    H240240   3.094   7.123   9.197 -0.0244  0.8268 -0.3808
 5349TIP3   OH240241   2.770   6.360   2.343  0.7266  0.5076 -0.2358
 5349TIP3    H140242   2.763   6.265   2.333  0.8624  0.0548  2.9572
 5349TIP3    H240243   2.688   6.394   2.308  0.3059 -0.8672 -0.6485
 5350TIP3   OH240244   6.522   0.262   8.515 -0.2232  0.0309  0.7373
 5350TIP3    H140245   6.438   0.301   8.537  0.1166  0.5339  1.1767
 5350TIP3    H240246   6.553   0.222   8.597 -0.6393 -1.3175  0.2548
 5351TIP3   OH240247   7.048   2.432   7.917  0.6631  0.1616  0.0495
 5351TIP3    H140248   6.962   2.411   7.953  0.2760 -1.3582 -1.6380
 5351TIP3    H240249   7.095   2.473   7.990 -2.0539  2.7635  0.5003
 5352TIP3   OH240250   2.331   2.638   1.093  0.0948  0.0538 -0.4297
 5352TIP3    H140251   2.422   2.669   1.085  0.5967 -0.9750  0.8917
 5352TIP3    H240252   2.332   2.550   1.055 -0.5578  0.3581 -1.1711
 5353TIP3   OH240253   7.162   6.333   7.493  0.0290 -0.1739 -0.4721
 5353TIP3    H140254   7.075   6.350   7.530 -0.0714  1.7344 -1.4206
 5353TIP3    H240255   7.216   6.404   7.527  0.0950  1.2702 -3.3081
 5354TIP3   OH240256   1.137   5.446   2.080  0.5618 -0.2065  0.0435
 5354TIP3    H140257   1.208   5.479   2.025 -0.1242 -0.2397 -0.8833
 5354TIP3    H240258   1.181   5.412   2.158  1.6247 -0.7267 -0.7498
 5355TIP3   OH240259   4.262   6.171   9.875 -0.0902  0.2170 -0.0520
 5355TIP3    H140260   4.290   6.081   9.894 -1.7315 -0.0927  1.0801
 5355TIP3    H240261   4.326   6.202   9.810  0.9140 -1.5173  0.0316
 5356TIP3   OH240262   3.261   1.363   8.891 -0.4491 -0.3413  0.0895
 5356TIP3    H140263   3.223   1.446   8.860  2.0435  1.1216  0.6688
 5356TIP3    H240264   3.219   1.296   8.837 -3.5437  1.1025  0.4850
 5357TIP3   OH240265   3.747   5.786   9.135 -0.3140  0.4903 -0.4554
 5357TIP3    H140266   3.691   5.745   9.069 -0.2979  2.9123 -2.1050
 5357TIP3    H240267   3.831   5.798   9.091  0.1681  0.8263  0.5322
 5358TIP3   OH240268   2.191   5.414   9.543 -0.5864 -0.3586  0.0892
 5358TIP3    H140269   2.203   5.324   9.574 -0.0125 -0.3216 -0.0002
 5358TIP3    H240270   2.099   5.419   9.517 -0.6679 -0.8662  0.2687
 5359TIP3   OH240271   0.979   1.034   2.256  0.4204 -0.5926  0.0078
 5359TIP3    H140272   1.045   0.965   2.254  2.6335  1.4253 -0.6395
 5359TIP3    H240273   0.993   1.077   2.341 -1.1063 -1.0376  0.5136
 5360TIP3   OH240274   2.273   0.096   7.618  0.0193 -0.1454 -0.3930
 5360TIP3    H140275   2.217   0.081   7.694  1.0151  0.8896  0.5915
 5360TIP3    H240276   2.303   0.009   7.592  1.0849 -0.3994  1.5430
 5361TIP3   OH240277   7.075   0.828   0.452  0.4476  0.7529  0.6359
 5361TIP3    H140278   7.107   0.828   0.542 -0.5291 -0.0349  1.0018
 5361TIP3    H240279   7.124   0.757   0.410  0.5775  0.8224  0.6697
 5362TIP3   OH240280   4.780   1.140   8.784 -0.5344  0.3399  0.3445
 5362TIP3    H140281   4.735   1.076   8.840  1.0028 -0.5717  0.6184
 5362TIP3    H240282   4.870   1.141   8.818 -0.6179  3.0856  0.6872
 5363TIP3   OH240283   1.768   7.027   2.857 -0.0801 -0.0469  0.0834
 5363TIP3    H140284   1.695   6.976   2.893  1.1215 -1.5943  0.4277
 5363TIP3    H240285   1.744   7.118   2.875 -1.1946 -0.5909  1.6222
 5364TIP3   OH240286   2.899   0.117   1.990  0.5660 -1.0093  0.2337
 5364TIP3    H140287   2.867   0.124   1.900  1.8109 -1.8901 -0.3047
 5364TIP3    H240288   2.828   0.153   2.043 -0.3796 -0.8768 -1.0626
 5365TIP3   OH240289   5.935   7.362   7.552  0.1984  0.1271 -0.4745
 5365TIP3    H140290   5.850   7.322   7.536 -0.5864  1.4772  0.1345
 5365TIP3    H240291   5.969   7.317   7.629 -0.9970  1.0609  0.6501
 5366TIP3   OH240292   0.456   1.221   9.641  0.4111 -0.0737  0.3045
 5366TIP3    H140293   0.549   1.209   9.659  0.3300 -1.7320 -0.1906
 5366TIP3    H240294   0.438   1.163   9.567 -1.3839 -1.2529  1.5583
 5367TIP3   OH240295   5.284   2.804   6.957  0.0102 -0.0618  0.9101
 5367TIP3    H140296   5.352   2.853   6.910 -0.2966 -0.0902  0.4298
 5367TIP3    H240297   5.333   2.745   7.014  0.3913 -0.0280  0.6263
 5368TIP3   OH240298   3.767   1.373   0.977  0.3562 -0.3498  0.4097
 5368TIP3    H140299   3.704   1.439   0.947 -0.1173 -1.2524 -0.6844
 5368TIP3    H240300   3.782   1.394   1.069 -0.9241  0.3932  0.4807
 5369TIP3   OH240301   6.873   4.702   8.394 -0.4660  0.3189  0.0390
 5369TIP3    H140302   6.903   4.723   8.482 -0.2349  0.4862 -0.0751
 5369TIP3    H240303   6.936   4.747   8.337 -0.6321  0.2391 -0.2087
 5370TIP3   OH240304   0.077   1.133   8.275  0.6347  0.5985 -0.0885
 5370TIP3    H140305   0.029   1.062   8.233  2.4266 -1.2953  0.9525
 5370TIP3    H240306   0.026   1.212   8.252  0.0477 -0.6012 -3.5116
 5371TIP3   OH240307   3.542   7.209   9.954  0.0163  0.5575 -0.4103
 5371TIP3    H140308   3.542   7.193   9.859  0.9021  1.2260 -0.5384
 5371TIP3    H240309   3.623   7.257   9.969  0.7709 -1.0627  0.9527
 5372TIP3   OH240310   2.400   2.487   7.903  0.4494 -0.6226 -0.2182
 5372TIP3    H140311   2.336   2.419   7.885 -2.2260  1.5739  0.3653
 5372TIP3    H240312   2.398   2.497   7.998  1.5450 -0.3538 -0.2076
 5373TIP3   OH240313   3.578   6.686   2.270  0.0829  0.8647  0.0338
 5373TIP3    H140314   3.543   6.744   2.201 -2.9663  0.2327  0.8954
 5373TIP3    H240315   3.622   6.746   2.331 -0.2444  1.8618 -0.6717
 5374TIP3   OH240316   2.582   5.745   2.396  0.4167  0.5568  0.6041
 5374TIP3    H140317   2.598   5.764   2.489  2.5390 -0.9501  0.6121
 5374TIP3    H240318   2.538   5.660   2.396  0.4140  0.5560  0.2097
 5375TIP3   OH240319   7.591   1.760   0.988  0.6675  0.3816 -0.0813
 5375TIP3    H140320   7.590   1.789   0.896 -0.4680  2.6170  0.5629
 5375TIP3    H240321   7.680   1.778   1.017  0.7702  0.5690 -0.4987
 5376TIP3   OH240322   7.551   0.723   2.661  0.2326 -0.1924 -0.4159
 5376TIP3    H140323   7.503   0.661   2.716  0.8101 -0.4059 -0.1375
 5376TIP3    H240324   7.545   0.806   2.708  1.0904 -0.4662  0.2160
 5377TIP3   OH240325   2.515   1.276   1.506 -0.0503  0.1771 -0.0913
 5377TIP3    H140326   2.432   1.323   1.509  0.0528  0.3446  0.1512
 5377TIP3    H240327   2.574   1.334   1.458 -0.5213 -0.6522 -1.7335
 5378TIP3   OH240328   2.793   3.384   7.393  0.0378 -0.7313 -0.1363
 5378TIP3    H140329   2.751   3.464   7.425 -1.6433 -0.9644 -1.5989
 5378TIP3    H240330   2.720   3.325   7.371  1.2064 -2.2636 -0.1328
 5379TIP3   OH240331   6.236   1.178   2.558 -0.6228  0.6651  0.1201
 5379TIP3    H140332   6.251   1.268   2.527 -0.3001  1.1726  1.6628
 5379TIP3    H240333   6.280   1.174   2.643 -1.1741 -0.7718  0.3687
 5380TIP3   OH240334   5.547   0.572   9.084  0.0069 -0.6858  0.0424
 5380TIP3    H140335   5.534   0.638   9.153  2.4237  1.5107 -1.4213
 5380TIP3    H240336   5.497   0.496   9.114 -1.1083  1.0263  2.9452
 5381TIP3   OH240337   2.406   5.380   2.119  0.1923  0.5887 -0.5526
 5381TIP3    H140338   2.458   5.303   2.140 -0.9516 -0.2125 -0.5425
 5381TIP3    H240339   2.354   5.354   2.042 -0.2097  1.3366 -0.5462
 5382TIP3   OH240340   2.028   4.700   8.049  0.3124  0.0896  0.0794
 5382TIP3    H140341   2.046   4.686   7.957  0.4108 -2.6508  0.4543
 5382TIP3    H240342   1.967   4.775   8.050  0.1294  0.0377 -2.1869
 5383TIP3   OH240343   0.262   6.827   0.206  0.1270 -0.5584  0.5649
 5383TIP3    H140344   0.298   6.858   0.289 -0.8911  0.3998  0.6663
 5383TIP3    H240345   0.229   6.739   0.225  0.7852 -0.7298  0.9207
 5384TIP3   OH240346   6.647   2.812   8.796 -0.4918  0.5122  0.5167
 5384TIP3    H140347   6.646   2.786   8.705  1.1601  0.3248  0.5247
 5384TIP3    H240348   6.571   2.769   8.835 -0.7742 -0.0133 -0.5920
 5385TIP3   OH240349   4.905   0.983   0.917  0.1168  0.0363  0.5178
 5385TIP3    H140350   4.891   1.059   0.975 -0.0273 -0.2652  0.8845
 5385TIP3    H240351   4.975   0.934   0.959  0.0180 -0.1808  0.4324
 5386TIP3   OH240352   2.500   1.578   1.154  0.1348  0.3001 -0.4170
 5386TIP3    H140353   2.585   1.619   1.137  0.5463 -0.4601 -0.2684
 5386TIP3    H240354   2.522   1.490   1.185 -0.7234 -0.1221 -0.9574
 5387TIP3   OH240355   0.323   7.233   9.534  0.1684  0.0253  0.3491
 5387TIP3    H140356   0.242   7.242   9.485  0.0909 -0.0844  0.4547
 5387TIP3    H240357   0.295   7.207   9.622  0.4307 -3.0964 -0.3892
 5388TIP3   OH240358   1.152   5.327   8.639 -0.2449 -0.2095  0.2417
 5388TIP3    H140359   1.062   5.331   8.607 -0.9023  0.4361  2.0687
 5388TIP3    H240360   1.144   5.322   8.734  1.6559 -0.1056  0.4469
 5389TIP3   OH240361   0.245   0.412   9.360  0.4321 -0.5332 -0.6660
 5389TIP3    H140362   0.339   0.425   9.344  0.4726  0.9988  0.5647
 5389TIP3    H240363   0.240   0.382   9.451 -0.2515 -1.3345 -0.9511
 5390TIP3   OH240364   2.319   0.382   2.662  0.5963  0.0683  0.1283
 5390TIP3    H140365   2.233   0.375   2.705  0.5081 -3.0758 -0.3772
 5390TIP3    H240366   2.302   0.356   2.572  2.1224 -0.8839  0.0957
 5391TIP3   OH240367   4.628   0.478   8.088 -0.0194 -0.3693  0.6306
 5391TIP3    H140368   4.625   0.573   8.094  0.6662 -0.2238 -0.9724
 5391TIP3    H240369   4.543   0.449   8.123 -1.3925  0.9937 -1.3584
 5392TIP3   OH240370   6.868   6.004   7.397  0.4678  0.3637 -0.1696
 5392TIP3    H140371   6.870   5.930   7.457  1.4887  1.4733  1.2222
 5392TIP3    H240372   6.775   6.025   7.387  0.3130  0.8834  1.9959
 5393TIP3   OH240373   3.140   4.696   7.432  0.0082 -0.8467 -0.1294
 5393TIP3    H140374   3.148   4.760   7.361 -0.8249 -0.1842  0.3538
 5393TIP3    H240375   3.126   4.613   7.387  0.8976 -0.6711 -0.7630
 5394TIP3   OH240376   7.594   1.871   9.623  0.1288  0.1388 -0.6365
 5394TIP3    H140377   7.670   1.909   9.578 -1.0292 -0.6542 -3.4748
 5394TIP3    H240378   7.621   1.781   9.642  0.9485  0.7283  1.2290
 5395TIP3   OH240379   2.177   2.427   0.267  0.1496 -0.0841  0.2100
 5395TIP3    H140380   2.101   2.393   0.315 -0.4580 -1.2596 -1.4775
 5395TIP3    H240381   2.189   2.515   0.301 -0.9927 -0.4297  1.6357
 5396TIP3   OH240382   7.239   3.283   1.615  0.5195  0.6783  0.6590
 5396TIP3    H140383   7.272   3.284   1.525  0.4891  0.3802  0.6462
 5396TIP3    H240384   7.257   3.372   1.648 -1.4192  1.5024 -0.3469
 5397TIP3   OH240385   1.263   3.125   7.755  0.8635 -0.0057  0.1228
 5397TIP3    H140386   1.284   3.084   7.840  0.0287  0.9976  0.8366
 5397TIP3    H240387   1.264   3.219   7.773 -0.8068  0.1788 -0.6248
 5398TIP3   OH240388   6.719   0.525   1.966  0.1344  0.1763 -0.2157
 5398TIP3    H140389   6.625   0.512   1.976  0.3509 -0.2541  1.7741
 5398TIP3    H240390   6.756   0.436   1.970  0.7348  0.4546  0.7468
 5399TIP3   OH240391   7.054   0.971   0.722  0.6559 -0.4615 -0.5703
 5399TIP3    H140392   6.998   1.035   0.680  0.7033  0.3954  0.6277
 5399TIP3    H240393   7.085   1.014   0.802  1.9472 -1.3944 -0.5244
 5400TIP3   OH240394   5.726   2.131   8.453  0.0287 -0.0797 -0.7952
 5400TIP3    H140395   5.717   2.225   8.438 -0.2754 -0.2756 -1.9723
 5400TIP3    H240396   5.820   2.118   8.468 -0.0531  0.5232  0.3874
 5401TIP3   OH240397   0.819   5.218   9.630 -0.0519  0.5832 -0.1714
 5401TIP3    H140398   0.809   5.303   9.585 -0.5412  0.0015 -1.2086
 5401TIP3    H240399   0.910   5.217   9.659  0.0497  1.3328 -0.4333
 5402TIP3   OH240400   7.533   2.093   1.541  0.0025  0.1397  0.7830
 5402TIP3    H140401   7.617   2.067   1.502 -0.2320 -0.2273  0.5273
 5402TIP3    H240402   7.524   2.185   1.516 -0.5728 -0.3261 -0.8087
 5403TIP3   OH240403   4.403   2.729   9.177  0.0705  0.0411 -0.8784
 5403TIP3    H140404   4.346   2.744   9.252 -2.2143 -0.3363 -2.4332
 5403TIP3    H240405   4.414   2.815   9.136  1.9172  0.3816  0.2058
 5404TIP3   OH240406   7.147   4.324   8.459  0.1898  0.0236 -0.6954
 5404TIP3    H140407   7.157   4.403   8.514 -2.5988 -1.1368  1.7386
 5404TIP3    H240408   7.063   4.336   8.415  0.3779 -1.0215 -1.3624
 5405TIP3   OH240409   4.370   6.196   2.090 -0.1415  0.2054 -0.1357
 5405TIP3    H140410   4.424   6.271   2.066 -0.1603 -0.1072 -1.2292
 5405TIP3    H240411   4.334   6.218   2.175 -0.6411  1.7271 -0.7031
 5406TIP3   OH240412   2.172   4.735   3.559  0.0615 -0.2701  0.3461
 5406TIP3    H140413   2.217   4.818   3.543  0.5526 -0.4749  0.6680
 5406TIP3    H240414   2.242   4.671   3.567 -0.3463 -1.3011 -2.9039
 5407TIP3   OH240415   2.052   5.311   3.464 -0.0571 -0.2603  0.2274
 5407TIP3    H140416   2.086   5.376   3.402 -0.3700 -0.6265 -0.3413
 5407TIP3    H240417   2.038   5.233   3.411  1.9418 -1.3680  1.2426
 5408TIP3   OH240418   2.037   4.698   1.817 -0.0854 -0.3465 -0.3610
 5408TIP3    H140419   2.090   4.703   1.896  0.9111  0.3780 -1.0522
 5408TIP3    H240420   1.948   4.684   1.849  0.3978 -0.8049  0.8537
 5409TIP3   OH240421   0.134   3.550   7.540 -0.1479  0.0244 -0.2613
 5409TIP3    H140422   0.139   3.645   7.528  0.9469 -0.1168 -1.0360
 5409TIP3    H240423   0.160   3.514   7.455 -1.2493 -0.9761 -0.2052
 5410TIP3   OH240424   7.294   6.676   0.591 -0.5795 -0.2826 -0.2809
 5410TIP3    H140425   7.352   6.753   0.588  0.7584 -1.2700 -0.3433
 5410TIP3    H240426   7.256   6.679   0.679  1.5585 -1.0057  0.7327
 5411TIP3   OH240427   1.637   4.645   1.371  0.3313  0.3701  0.2539
 5411TIP3    H140428   1.603   4.574   1.426  0.1125  1.5870  1.7672
 5411TIP3    H240429   1.677   4.706   1.433  2.5358  0.5191 -1.2060
 5412TIP3   OH240430   5.461   1.373   8.618  0.4257 -0.5411 -0.2353
 5412TIP3    H140431   5.482   1.318   8.543 -0.2192 -0.3473 -0.5660
 5412TIP3    H240432   5.425   1.453   8.580 -0.2955 -0.6037  0.2780
 5413TIP3   OH240433   6.713   0.683   2.594 -0.2215  0.5774 -0.2714
 5413TIP3    H140434   6.727   0.720   2.507  1.3637 -0.9304 -0.6984
 5413TIP3    H240435   6.801   0.677   2.632 -0.4806 -1.9606  0.0701
 5414TIP3   OH240436   5.781   7.105   2.151  0.2076  0.9601 -0.4027
 5414TIP3    H140437   5.777   7.155   2.233 -0.6045  0.6253 -0.2297
 5414TIP3    H240438   5.770   7.170   2.083  0.6480  1.2105 -0.2393
 5415TIP3   OH240439   6.537   1.424   2.578 -0.2707  0.3502  0.0837
 5415TIP3    H140440   6.444   1.423   2.556 -0.7018 -1.8622  1.6914
 5415TIP3    H240441   6.556   1.516   2.597 -0.8142  1.8016 -4.9402
 5416TIP3   OH240442   4.760   1.179   1.086  0.2112  0.2186  0.1195
 5416TIP3    H140443   4.670   1.202   1.110  0.2923  1.7002 -0.8336
 5416TIP3    H240444   4.802   1.263   1.066  1.4244 -0.5525 -0.7459
 5417TIP3   OH240445   0.949   4.171   8.210 -0.1971  0.6479  0.1972
 5417TIP3    H140446   1.001   4.158   8.289  0.6722  1.1007 -0.2833
 5417TIP3    H240447   0.986   4.110   8.146 -1.8702 -0.8235  0.5485
 5418TIP3   OH240448   6.176   6.937   9.401 -0.2146 -0.0936 -0.4790
 5418TIP3    H140449   6.252   6.968   9.351 -2.9263  2.8943 -3.1998
 5418TIP3    H240450   6.188   6.976   9.488  0.2876  2.3545 -1.5633
 5419TIP3   OH240451   3.355   3.960   0.462  0.2530  0.2013  0.2971
 5419TIP3    H140452   3.265   3.966   0.493  0.5143 -0.2366  1.1558
 5419TIP3    H240453   3.401   4.031   0.506  0.7782 -0.8433  1.4976
 5420TIP3   OH240454   7.447   3.165   8.749  0.8681 -0.0610  0.6810
 5420TIP3    H140455   7.468   3.076   8.719 -1.0201 -0.8139  1.3790
 5420TIP3    H240456   7.351   3.170   8.740  0.8474  1.5716  1.5413
 5421TIP3   OH240457   1.593   0.870   0.939 -0.1104  0.3302 -0.1066
 5421TIP3    H140458   1.608   0.890   1.032  0.0859  2.2427 -0.5073
 5421TIP3    H240459   1.650   0.795   0.921  0.4636  0.4502  1.1182
 5422TIP3   OH240460   4.743   2.347   9.395  0.2443  0.6285  0.7228
 5422TIP3    H140461   4.689   2.339   9.317  2.2386  1.8022 -0.8871
 5422TIP3    H240462   4.688   2.394   9.457 -0.4286  2.2981 -1.0313
 5423TIP3   OH240463   7.379   3.367   9.944 -0.5875  0.4394  0.3883
 5423TIP3    H140464   7.374   3.456   9.910 -0.9762  0.2671 -0.0189
 5423TIP3    H240465   7.454   3.368  10.004 -0.4780  0.9897  0.2471
 5424TIP3   OH240466   0.520   4.840   9.180 -0.3406  0.0005 -0.3057
 5424TIP3    H140467   0.574   4.775   9.226  0.3483  0.2927 -0.6867
 5424TIP3    H240468   0.451   4.789   9.138 -2.5910 -0.1066  3.1097
 5425TIP3   OH240469   5.079   1.335   1.221 -0.4344  0.1851 -0.4675
 5425TIP3    H140470   5.075   1.384   1.303  1.7832  0.8148 -0.6740
 5425TIP3    H240471   5.106   1.247   1.247  0.6907  0.5005 -0.5430
 5426TIP3   OH240472   3.623   7.376   0.946 -0.3050 -0.2685  0.9380
 5426TIP3    H140473   3.664   7.312   0.888  0.6803 -0.9672  2.3493
 5426TIP3    H240474   3.695   7.434   0.972 -0.7417  0.0794  1.3895
 5427TIP3   OH240475   5.333   3.718   9.519  0.3132 -0.1983  0.1521
 5427TIP3    H140476   5.343   3.733   9.613 -1.1495  0.2812  0.2589
 5427TIP3    H240477   5.289   3.797   9.487 -0.1490 -0.8014 -0.7365
 5428TIP3   OH240478   0.620   4.802   2.125  0.4024 -0.1734  0.2165
 5428TIP3    H140479   0.656   4.885   2.156 -0.0353 -0.1182  0.6046
 5428TIP3    H240480   0.692   4.740   2.132  0.2905 -0.1830  1.4801
 5429TIP3   OH240481   3.788   7.541   1.707 -0.1299 -0.2800  0.1751
 5429TIP3    H140482   3.703   7.584   1.696  0.5236  1.1662  0.5124
 5429TIP3    H240483   3.774   7.452   1.676 -1.1999  0.5320 -1.8893
 5430TIP3   OH240484   1.333   1.307   8.330  0.4907  0.2208 -0.3429
 5430TIP3    H140485   1.342   1.316   8.236  0.4612  2.3493 -0.1960
 5430TIP3    H240486   1.423   1.298   8.362  0.4316 -2.1814 -0.6315
 5431TIP3   OH240487   3.306   2.340   9.812 -0.8308 -0.4981  0.4410
 5431TIP3    H140488   3.351   2.392   9.746  0.0928 -0.4873  1.0513
 5431TIP3    H240489   3.217   2.330   9.779 -0.2891 -0.8088 -0.9626
 5432TIP3   OH240490   6.215   3.590   8.969 -0.2056 -0.1018 -0.6127
 5432TIP3    H140491   6.236   3.682   8.987 -0.8935  0.0902 -0.7778
 5432TIP3    H240492   6.223   3.582   8.874 -1.5649  0.1603 -0.7705
 5433TIP3   OH240493   0.451   3.787   0.320 -0.1200 -0.0491 -1.0091
 5433TIP3    H140494   0.470   3.871   0.361  0.9286  0.2910 -2.1299
 5433TIP3    H240495   0.357   3.788   0.305 -0.3223  0.3454  0.2053
 5434TIP3   OH240496   4.514   4.109   7.621 -0.2375 -0.1992  0.0966
 5434TIP3    H140497   4.418   4.105   7.617 -0.3047 -0.4159  1.3761
 5434TIP3    H240498   4.539   4.030   7.668  0.4776  0.4691  0.8650
 5435TIP3   OH240499   3.894   7.104   7.912 -0.1445 -0.1377  0.7651
 5435TIP3    H140500   3.883   7.124   8.005  1.9123 -0.4803  1.1150
 5435TIP3    H240501   3.973   7.050   7.908 -0.8549 -1.1071 -1.0719
 5436TIP3   OH240502   3.482   1.585   8.023  0.5704  0.3361 -0.0153
 5436TIP3    H140503   3.480   1.624   7.935 -0.2090 -0.7977 -0.5152
 5436TIP3    H240504   3.476   1.660   8.082  1.3485  1.1352 -0.9154
 5437TIP3   OH240505   3.848   7.059   0.360  0.2285 -0.4409 -0.6211
 5437TIP3    H140506   3.757   7.041   0.336  0.3418  0.5057 -1.8550
 5437TIP3    H240507   3.897   6.987   0.319  0.1282 -0.4419 -0.7424
 5438TIP3   OH240508   3.318   1.116   8.436 -0.3196 -0.4206 -0.1549
 5438TIP3    H140509   3.394   1.134   8.492  0.4906 -2.7408 -0.4268
 5438TIP3    H240510   3.353   1.064   8.364 -1.5650  1.4750 -2.2610
 5439TIP3   OH240511   7.678   1.449   9.176 -0.3598 -0.2315 -0.4203
 5439TIP3    H140512   7.641   1.503   9.106 -1.7174 -1.8234 -0.9834
 5439TIP3    H240513   7.772   1.469   9.174 -0.6585  1.2526 -1.3209
 5440TIP3   OH240514   2.903   6.655   1.122  0.2912  0.1644  0.2227
 5440TIP3    H140515   2.895   6.720   1.193  0.1883  0.0607  0.3059
 5440TIP3    H240516   2.876   6.703   1.043  0.6651  0.3600  0.2092
 5441TIP3   OH240517   0.852   1.839   8.486 -0.4530  0.3795  0.0242
 5441TIP3    H140518   0.902   1.878   8.414  0.0205 -0.2775 -0.0072
 5441TIP3    H240519   0.777   1.798   8.443 -0.6254  0.7177 -0.0039
 5442TIP3   OH240520   4.627   6.246   2.235  0.2353  0.1376 -0.3363
 5442TIP3    H140521   4.592   6.331   2.208  1.0903  0.2921 -1.0078
 5442TIP3    H240522   4.711   6.239   2.190  0.6383 -0.6351  0.5022
 5443TIP3   OH240523   6.009   0.303   7.237  0.1326  0.2793  0.1371
 5443TIP3    H140524   5.993   0.211   7.259  1.0882  0.4043  1.4925
 5443TIP3    H240525   5.990   0.309   7.144 -0.9582 -1.0558  0.2378
 5444TIP3   OH240526   6.920   6.479   0.420 -0.3518 -0.3642  0.3213
 5444TIP3    H140527   6.984   6.478   0.491  0.9122  0.2609 -0.7604
 5444TIP3    H240528   6.934   6.564   0.377 -2.5544  0.1952  0.6042
 5445TIP3   OH240529   5.308   6.634   1.323 -0.5817  0.7397  0.1731
 5445TIP3    H140530   5.226   6.605   1.284  0.5094  0.2049 -1.8646
 5445TIP3    H240531   5.369   6.642   1.249  0.9031  2.2133  1.4682
 5446TIP3   OH240532   1.308   1.457   1.983  0.0333  0.2955  0.1211
 5446TIP3    H140533   1.299   1.425   2.073  0.3047 -0.9966 -0.2872
 5446TIP3    H240534   1.313   1.378   1.930  0.0627  1.0402 -1.0228
 5447TIP3   OH240535   1.065   1.927   0.621  0.1613  0.0606  0.6272
 5447TIP3    H140536   1.096   1.879   0.544 -0.7425  0.7416 -0.1788
 5447TIP3    H240537   1.068   1.863   0.692  0.2678 -0.7961 -0.1363
 5448TIP3   OH240538   6.186   1.283   1.484 -0.3241  0.3302  0.3363
 5448TIP3    H140539   6.156   1.347   1.418  1.1034 -0.3115 -1.0060
 5448TIP3    H240540   6.193   1.334   1.565 -0.6362  1.5232 -0.3527
 5449TIP3   OH240541   1.559   3.156   9.330 -0.0849  0.0000 -0.2712
 5449TIP3    H140542   1.558   3.245   9.294 -1.4868 -0.1219 -0.5944
 5449TIP3    H240543   1.556   3.099   9.253 -2.0431 -0.2725 -0.0553
 5450TIP3   OH240544   1.920   6.025   0.576  0.7450  0.3051 -0.0955
 5450TIP3    H140545   2.007   6.019   0.614 -0.3782 -3.2308  2.4876
 5450TIP3    H240546   1.918   5.956   0.510 -1.1830 -2.8630  2.9494
 5451TIP3   OH240547   1.271   4.805   2.319  0.7783 -0.1718  0.3737
 5451TIP3    H140548   1.211   4.753   2.266 -0.0721  0.1861  0.9516
 5451TIP3    H240549   1.351   4.811   2.267 -0.2178  0.6681 -1.1399
 5452TIP3   OH240550   7.027   4.541   9.843  0.1479 -0.3928  0.2974
 5452TIP3    H140551   7.038   4.463   9.789  0.4374  0.2373 -0.5777
 5452TIP3    H240552   6.954   4.588   9.803  0.3523  0.0708  0.4615
 5453TIP3   OH240553   1.467   0.588   1.505  0.2438 -0.0029 -0.2756
 5453TIP3    H140554   1.526   0.513   1.513  0.3493  0.1554  0.5695
 5453TIP3    H240555   1.522   0.664   1.525 -0.2111  0.1607  0.3742
 5454TIP3   OH240556   6.980   0.212   8.954  0.2390 -0.6497  0.5319
 5454TIP3    H140557   7.023   0.272   9.015 -0.9697 -0.1440  0.9156
 5454TIP3    H240558   6.979   0.259   8.871  1.4812 -1.1567  0.2036
 5455TIP3   OH240559   2.441   0.578   8.233 -0.4910  0.1493 -0.3525
 5455TIP3    H140560   2.488   0.594   8.151  0.1639 -0.4763 -0.1018
 5455TIP3    H240561   2.362   0.531   8.206 -0.6793  0.6618 -0.7068
 5456TIP3   OH240562   2.041   5.131   3.206  0.0503 -0.3846 -0.4651
 5456TIP3    H140563   2.104   5.191   3.165 -1.7614  0.6789 -1.8463
 5456TIP3    H240564   2.044   5.052   3.152  0.6670 -0.6128 -0.1102
 5457TIP3   OH240565   3.360   4.946   9.603  0.1823  0.1769 -0.7246
 5457TIP3    H140566   3.300   4.990   9.662 -1.1940 -1.1190 -1.0916
 5457TIP3    H240567   3.436   4.925   9.657  0.3411  1.8430 -0.2509
 5458TIP3   OH240568   6.306   0.771   2.161 -0.1600 -0.0552  0.2900
 5458TIP3    H140569   6.359   0.840   2.199  1.5377 -2.4186  2.5705
 5458TIP3    H240570   6.245   0.746   2.230  1.3809 -2.8415  0.8066
 5459TIP3   OH240571   6.783   2.082   1.067 -0.1564  0.1990 -0.4485
 5459TIP3    H140572   6.856   2.022   1.083 -1.7591 -1.6357  0.4747
 5459TIP3    H240573   6.765   2.121   1.152 -0.9236 -0.2018 -0.4157
 5460TIP3   OH240574   1.013   6.895   2.575 -0.4314 -0.2312 -0.0190
 5460TIP3    H140575   1.038   6.983   2.547 -2.0909  0.1767 -0.3188
 5460TIP3    H240576   1.031   6.840   2.498 -1.7693  0.3037 -0.7436
 5461TIP3   OH240577   1.306   0.417   1.395 -0.1796  0.3201 -0.2818
 5461TIP3    H140578   1.331   0.503   1.428  1.1649 -0.3339  0.4711
 5461TIP3    H240579   1.306   0.426   1.300 -1.8100  1.6098 -0.2018
 5462TIP3   OH240580   1.569   3.813   1.807 -0.5234  0.5643  0.0701
 5462TIP3    H140581   1.504   3.849   1.747 -0.2526  0.9994  0.0341
 5462TIP3    H240582   1.567   3.870   1.883 -0.6593  0.1831  0.3555
 5463TIP3   OH240583   0.810   5.979   7.506 -0.0772  0.2520  0.3201
 5463TIP3    H140584   0.743   5.924   7.466  2.4825 -0.5751 -3.2741
 5463TIP3    H240585   0.860   5.920   7.562  0.4034 -0.2609 -0.6264
 5464TIP3   OH240586   3.721   5.235   0.138 -0.1299 -0.4140 -0.1102
 5464TIP3    H140587   3.742   5.252   0.230  0.6793 -0.0923 -0.3452
 5464TIP3    H240588   3.802   5.252   0.091 -0.6830 -0.0056 -0.9572
 5465TIP3   OH240589   6.353   1.282   0.290  0.4129  0.1187 -0.5730
 5465TIP3    H140590   6.281   1.311   0.346  0.8525  0.7382 -0.3129
 5465TIP3    H240591   6.411   1.234   0.350 -0.0320 -0.8132 -0.8853
 5466TIP3   OH240592   4.091   3.439   9.197  0.3770 -0.4730 -0.2300
 5466TIP3    H140593   4.085   3.517   9.252  0.4776  0.7687 -1.9063
 5466TIP3    H240594   4.180   3.405   9.213  0.6879  0.3247 -0.2302
 5467TIP3   OH240595   4.327   7.196   7.545  0.2051  0.7642 -0.3228
 5467TIP3    H140596   4.237   7.217   7.572 -0.2100 -0.2232 -0.8804
 5467TIP3    H240597   4.317   7.120   7.488  1.6538 -1.6360  2.3330
 5468TIP3   OH240598   7.463   0.734   0.418 -0.0083 -0.5088  0.0226
 5468TIP3    H140599   7.446   0.802   0.353  0.0164 -0.4009  0.1286
 5468TIP3    H240600   7.559   0.732   0.425 -0.0471  0.2311  0.8476
 5469TIP3   OH240601   6.225   6.152   0.655  0.2884 -0.0956  0.1133
 5469TIP3    H140602   6.268   6.115   0.732 -0.6884 -1.2171  0.1547
 5469TIP3    H240603   6.296   6.167   0.593  0.9897  0.0705  0.9408
 5470TIP3   OH240604   3.747   1.104   9.631 -0.0667  0.3352 -0.2090
 5470TIP3    H140605   3.803   1.057   9.569  1.8136  3.1673 -0.8570
 5470TIP3    H240606   3.658   1.093   9.597  0.7797  0.7156 -2.7401
 5471TIP3   OH240607   4.993   0.397   0.600 -0.0826 -0.1304  0.1465
 5471TIP3    H140608   5.058   0.390   0.531  0.0468 -1.0111  0.3513
 5471TIP3    H240609   4.910   0.373   0.559  0.0392 -0.9294  0.3606
 5472TIP3   OH240610   6.604   6.488   7.933  0.1923  0.1259  0.1158
 5472TIP3    H140611   6.579   6.481   8.025 -1.8085  0.8256 -0.3137
 5472TIP3    H240612   6.526   6.457   7.886  0.6542  1.1019 -1.3443
 5473TIP3   OH240613   5.520   7.289   1.088  0.3092  0.0491  0.1124
 5473TIP3    H140614   5.425   7.293   1.097  0.2847  0.1680 -0.1933
 5473TIP3    H240615   5.547   7.380   1.074  0.3184 -0.1324 -1.2273
 5474TIP3   OH240616   4.357   2.124   9.157  0.2330 -0.1483  0.1295
 5474TIP3    H140617   4.358   2.202   9.103 -0.7989 -0.4930 -0.4210
 5474TIP3    H240618   4.265   2.096   9.157  0.3643 -0.6460  1.3477
 5475TIP3   OH240619   2.403   7.134   2.489 -0.0919  0.4641  0.1120
 5475TIP3    H140620   2.322   7.088   2.507 -0.3456  0.4980 -0.8888
 5475TIP3    H240621   2.443   7.087   2.416  1.9105 -0.9063  1.9573
 5476TIP3   OH240622   6.287   6.893   1.664 -0.3655  0.4334 -0.3152
 5476TIP3    H140623   6.346   6.819   1.680 -0.7807  0.1869  0.1136
 5476TIP3    H240624   6.288   6.904   1.569  0.5809  0.6144 -0.2965
 5477TIP3   OH240625   0.449   5.455   9.732  0.7829  0.1889 -0.6492
 5477TIP3    H140626   0.464   5.364   9.756  0.8711  0.2824 -0.3386
 5477TIP3    H240627   0.408   5.451   9.646 -0.5523 -0.1939 -0.0115
 5478TIP3   OH240628   4.697   5.054   9.707  0.1424  0.1518 -0.1514
 5478TIP3    H140629   4.782   5.044   9.664 -0.5825 -0.3825 -1.5337
 5478TIP3    H240630   4.633   5.047   9.636 -1.1596 -1.4320  1.0958
 5479TIP3   OH240631   2.053   2.114   8.534  0.2861 -0.0715  0.0121
 5479TIP3    H140632   2.040   2.095   8.441 -0.3511  0.3506  0.0077
 5479TIP3    H240633   2.098   2.037   8.568 -2.0049 -1.5437 -0.0586
 5480TIP3   OH240634   5.625   2.293   0.411 -0.2674  0.0502  0.0581
 5480TIP3    H140635   5.580   2.346   0.345 -1.9177 -1.9401 -0.5189
 5480TIP3    H240636   5.586   2.320   0.494 -0.5759  0.2459 -0.1478
 5481TIP3   OH240637   0.154   7.166   2.864  0.0575 -0.0195 -0.0309
 5481TIP3    H140638   0.063   7.194   2.862 -0.4234 -1.4536  0.5398
 5481TIP3    H240639   0.172   7.148   2.957  1.0125  0.5288 -0.0951
 5482TIP3   OH240640   1.631   4.578   1.086 -0.4322  0.7591 -0.5977
 5482TIP3    H140641   1.657   4.630   1.162 -0.8207 -1.1300  0.9074
 5482TIP3    H240642   1.542   4.548   1.107  0.4158 -1.9819 -0.5022
 5483TIP3   OH240643   7.057   6.189   8.818 -0.9233 -0.1468 -0.0698
 5483TIP3    H140644   7.125   6.127   8.846 -1.2336  0.1785  1.4338
 5483TIP3    H240645   6.992   6.134   8.775  0.1534 -0.4915 -1.3474
 5484TIP3   OH240646   3.448   4.378   8.704 -0.6701 -0.7000 -1.1648
 5484TIP3    H140647   3.372   4.436   8.689  0.1534  0.2382 -1.8907
 5484TIP3    H240648   3.414   4.290   8.689 -1.5736 -0.2742 -1.7337
 5485TIP3   OH240649   3.586   1.923   0.019 -0.8117  0.7768 -0.4876
 5485TIP3    H140650   3.568   1.845  -0.034  2.6150 -0.8120  0.3735
 5485TIP3    H240651   3.604   1.992  -0.044 -1.4348  0.2156 -1.2969
 5486TIP3   OH240652   6.185   1.837   1.776 -0.7369  0.7617  0.3784
 5486TIP3    H140653   6.149   1.924   1.790 -1.2004  0.7757 -0.8028
 5486TIP3    H240654   6.197   1.831   1.681  0.2439 -0.0875  0.5334
 5487TIP3   OH240655   1.764   3.069   2.890 -0.3167 -0.2664  0.8111
 5487TIP3    H140656   1.810   3.022   2.959 -0.4748  0.6889  1.5925
 5487TIP3    H240657   1.691   3.112   2.935 -1.5023 -1.0805 -0.2646
 5488TIP3   OH240658   6.340   5.883   9.219  0.4755  0.1113 -0.3044
 5488TIP3    H140659   6.393   5.839   9.286 -3.1507 -2.2995  1.3515
 5488TIP3    H240660   6.335   5.821   9.147 -1.4467 -0.6280  0.3750
 5489TIP3   OH240661   7.133   1.623   9.613 -0.0725  0.1733  0.2677
 5489TIP3    H140662   7.184   1.697   9.582 -1.1897  0.8953  0.0823
 5489TIP3    H240663   7.098   1.583   9.533 -0.4239  0.1568  0.4267
 5490TIP3   OH240664   1.517   6.193   0.841  0.1701  0.6731  0.5323
 5490TIP3    H140665   1.556   6.177   0.927  0.6253 -0.3453  0.1499
 5490TIP3    H240666   1.590   6.181   0.779 -0.2564  0.9362 -0.0284
 5491TIP3   OH240667   3.705   0.328   9.880  0.4917 -0.6172 -0.2839
 5491TIP3    H140668   3.725   0.248   9.831 -1.0418 -0.8094 -0.6598
 5491TIP3    H240669   3.633   0.303   9.938 -1.3858  0.9136 -1.8121
 5492TIP3   OH240670   1.519   2.367   6.763  0.2727 -0.1217 -0.4971
 5492TIP3    H140671   1.603   2.320   6.771 -1.6515 -3.9698 -0.4465
 5492TIP3    H240672   1.461   2.321   6.824 -2.5324  0.6478 -2.4297
 5493TIP3   OH240673   1.099   5.598   2.932  0.2301 -0.3363 -0.1232
 5493TIP3    H140674   1.058   5.512   2.936 -0.9712  0.2322  0.3600
 5493TIP3    H240675   1.028   5.658   2.912  1.2124  0.4576 -1.4419
 5494TIP3   OH240676   5.078   3.131   8.766 -0.1583 -0.1014 -0.1277
 5494TIP3    H140677   5.102   3.198   8.702 -0.9790  1.5237  1.1896
 5494TIP3    H240678   4.983   3.136   8.772 -0.0052  2.2266  3.5602
 5495TIP3   OH240679   0.938   0.511   9.709  0.5545  0.6454 -0.2944
 5495TIP3    H140680   0.886   0.506   9.629 -0.2945  0.9538  0.2259
 5495TIP3    H240681   0.875   0.493   9.779  1.2297  0.6650  0.3246
 5496TIP3   OH240682   7.188   7.246   2.025 -0.2349 -0.7932 -0.4351
 5496TIP3    H140683   7.182   7.341   2.029  0.8939 -0.6690 -1.0691
 5496TIP3    H240684   7.139   7.221   1.947 -0.2458 -0.7015 -0.4565
 5497TIP3   OH240685   3.837   3.525   0.561 -0.2209  0.4503  0.1221
 5497TIP3    H140686   3.793   3.553   0.481  2.7223 -2.2704 -2.7828
 5497TIP3    H240687   3.814   3.432   0.569  1.9379 -0.1020  0.5957
 5498TIP3   OH240688   2.558   3.471   1.837  0.0905  0.7670  0.0492
 5498TIP3    H140689   2.491   3.404   1.820  2.8330 -1.9003 -1.0478
 5498TIP3    H240690   2.558   3.480   1.932 -2.1449  1.2620  0.0578
 5499TIP3   OH240691   2.196   0.561   1.633 -0.0964  0.1807 -0.2771
 5499TIP3    H140692   2.279   0.609   1.635  0.0984 -0.0882 -1.2807
 5499TIP3    H240693   2.215   0.477   1.675 -0.0742  0.4251  0.2104
 5500TIP3   OH240694   4.366   1.670   1.521 -0.2638 -0.0387 -0.5223
 5500TIP3    H140695   4.289   1.661   1.577  0.9819 -2.1292  1.0003
 5500TIP3    H240696   4.409   1.750   1.551 -0.1938 -0.5522  0.7796
 5501TIP3   OH240697   3.885   1.133   0.946 -0.0328  0.2510  0.4422
 5501TIP3    H140698   3.966   1.127   0.996 -1.2247 -1.7877  2.3434
 5501TIP3    H240699   3.858   1.224   0.955  0.8659  0.4215  1.8106
 5502TIP3   OH240700   2.565   4.561   7.605  0.2220  0.3991 -0.2318
 5502TIP3    H140701   2.487   4.583   7.553  0.3046  0.7017 -0.2300
 5502TIP3    H240702   2.592   4.644   7.643  0.1866  0.1877  0.2664
 5503TIP3   OH240703   3.610   6.693   8.596  0.1977 -0.0120  0.1281
 5503TIP3    H140704   3.594   6.784   8.574  1.2336  0.6300  1.8716
 5503TIP3    H240705   3.696   6.693   8.638 -0.9154 -1.3460  2.6102
 5504TIP3   OH240706   2.930   5.739   2.466  0.2721 -0.1945 -0.4536
 5504TIP3    H140707   2.897   5.691   2.542 -1.9785 -1.3036 -2.0035
 5504TIP3    H240708   3.020   5.761   2.489 -0.2270 -0.6881  2.4045
 5505TIP3   OH240709   4.365   5.838   0.104  0.0299 -0.2038 -0.5883
 5505TIP3    H140710   4.427   5.884   0.161 -0.6409  1.3976 -1.0845
 5505TIP3    H240711   4.281   5.850   0.146 -0.0267 -2.1979 -0.0243
 5506TIP3   OH240712   5.073   6.688   0.454  0.6263 -0.0147 -0.0217
 5506TIP3    H140713   5.109   6.777   0.451  2.0444 -0.4626  1.9639
 5506TIP3    H240714   5.147   6.631   0.431  0.4871 -0.8161  1.4286
 5507TIP3   OH240715   6.690   1.659   9.088 -0.6976  0.1474 -0.4657
 5507TIP3    H140716   6.719   1.597   9.155  1.5573  1.5977  0.0007
 5507TIP3    H240717   6.669   1.603   9.012 -0.2745 -1.2911  0.4335
 5508TIP3   OH240718   3.009   3.666   8.206  0.1546  0.7053  0.6556
 5508TIP3    H140719   3.062   3.655   8.285  1.0033 -2.9553 -0.2497
 5508TIP3    H240720   2.923   3.631   8.229  0.2022  0.2501  0.1688
 5509TIP3   OH240721   0.055   0.937   0.981  0.0494  0.3314 -0.1470
 5509TIP3    H140722  -0.027   0.940   0.933 -1.0543  0.4094  1.6757
 5509TIP3    H240723   0.030   0.919   1.071  2.1342 -1.0681  0.2266
 5510TIP3   OH240724   0.540   4.093   1.321  0.1834 -0.8511  0.2276
 5510TIP3    H140725   0.574   4.019   1.270  1.4311 -0.8162  0.9663
 5510TIP3    H240726   0.586   4.087   1.405 -0.4885  0.1525  0.6809
 5511TIP3   OH240727   3.701   5.008   8.574 -0.1550 -0.6847 -0.3252
 5511TIP3    H140728   3.681   5.010   8.668  0.9120 -0.3409 -0.0833
 5511TIP3    H240729   3.620   4.982   8.532 -0.5838 -1.0700  0.7196
 5512TIP3   OH240730   6.227   0.374   2.582 -0.3095  0.0559  0.5951
 5512TIP3    H140731   6.265   0.365   2.670 -2.1041 -3.1068  1.2091
 5512TIP3    H240732   6.286   0.327   2.525 -1.1827 -1.4550  0.8818
 5513TIP3   OH240733   2.741   0.429   1.202  0.1856  0.2796  0.1767
 5513TIP3    H140734   2.751   0.335   1.213 -0.8376  0.2641  1.1373
 5513TIP3    H240735   2.828   0.460   1.177  0.5928 -0.8694  0.1101
 5514TIP3   OH240736   3.059   6.191   7.624 -0.1871  0.3425  0.2207
 5514TIP3    H140737   2.997   6.263   7.615  0.9540  1.2844 -0.3350
 5514TIP3    H240738   3.144   6.234   7.631  0.4964 -0.9518  0.0429
 5515TIP3   OH240739   0.563   0.640   7.663  0.1137  0.0327  0.2260
 5515TIP3    H140740   0.652   0.675   7.660 -0.6186  2.0569  0.5281
 5515TIP3    H240741   0.520   0.680   7.587 -0.2579 -1.8471 -0.6033
 5516TIP3   OH240742   6.983   5.475   9.323 -0.4034 -0.2265 -0.2872
 5516TIP3    H140743   7.033   5.403   9.285  0.9168  0.6012 -0.1848
 5516TIP3    H240744   6.894   5.464   9.289  0.2862 -0.6549 -2.0293
 5517TIP3   OH240745   7.592   2.561   0.787  0.1878  0.2796  0.1049
 5517TIP3    H140746   7.600   2.472   0.821 -1.0130  0.6701  1.4836
 5517TIP3    H240747   7.657   2.565   0.716 -0.0813 -1.8271 -0.3248
 5518TIP3   OH240748   6.867   2.030   7.530  0.1207  0.5414  0.5541
 5518TIP3    H140749   6.950   2.056   7.490 -0.0715 -1.6460 -1.4398
 5518TIP3    H240750   6.890   1.956   7.586 -0.3793  0.4129  0.5899
 5519TIP3   OH240751   1.583   1.884   7.561 -0.2189 -1.1155 -0.3539
 5519TIP3    H140752   1.630   1.931   7.493 -1.6825 -0.8225 -1.2015
 5519TIP3    H240753   1.639   1.890   7.639  0.0707  1.1840 -0.6942
 5520TIP3   OH240754   2.604   1.470   9.860  0.0138  0.1866  0.1980
 5520TIP3    H140755   2.643   1.395   9.816 -1.3528 -0.3853 -0.1124
 5520TIP3    H240756   2.509   1.459   9.845 -0.3057  1.2155  1.3403
 5521TIP3   OH240757   1.472   0.904   8.406 -0.1917 -0.4194 -0.9187
 5521TIP3    H140758   1.478   0.971   8.338 -0.5190  0.4874 -0.0694
 5521TIP3    H240759   1.552   0.852   8.395 -0.2396 -0.2981 -1.9838
 5522TIP3   OH240760   1.622   3.971   8.420 -0.4823  0.5573 -0.0874
 5522TIP3    H140761   1.658   4.004   8.338  0.1443  1.1052  0.3896
 5522TIP3    H240762   1.698   3.964   8.478 -1.0402  1.0627  0.7298
 5523TIP3   OH240763   6.660   7.656   9.657  0.4250 -0.0804  0.1272
 5523TIP3    H140764   6.602   7.621   9.589  1.2053  0.7054 -0.9876
 5523TIP3    H240765   6.613   7.643   9.738 -0.9315 -0.2530 -0.6601
 5524TIP3   OH240766   6.637   7.326   1.238 -0.0671  0.1470  0.6089
 5524TIP3    H140767   6.575   7.253   1.239  0.1156 -0.0368 -0.3041
 5524TIP3    H240768   6.715   7.290   1.195 -0.3232  1.1443 -0.7732
 5525TIP3   OH240769   1.926   4.925   8.360 -0.3431 -0.4271 -0.7790
 5525TIP3    H140770   1.881   5.008   8.373  0.0966 -0.0056 -1.8451
 5525TIP3    H240771   1.868   4.860   8.399 -0.6536  0.3758  0.1567
 5526TIP3   OH240772   7.195   1.238   9.006 -0.0471 -0.1299 -0.8627
 5526TIP3    H140773   7.230   1.160   8.962  1.4185 -0.2314  0.3702
 5526TIP3    H240774   7.155   1.204   9.086 -0.6171  0.2628 -0.9790
 5527TIP3   OH240775   4.527   5.998   8.841  0.0606  0.0312 -0.4255
 5527TIP3    H140776   4.555   6.089   8.825  2.6873 -0.5878  0.2051
 5527TIP3    H240777   4.482   5.973   8.760 -1.3452  2.0615 -0.3647
 5528TIP3   OH240778   7.336   0.991   7.446  0.2212  1.3819  0.7331
 5528TIP3    H140779   7.275   0.951   7.384 -0.1177 -2.1055  3.0213
 5528TIP3    H240780   7.422   0.980   7.406 -0.0222 -0.4810  0.6275
 5529TIP3   OH240781   0.929   1.150   0.776  0.1926  0.0684  0.6309
 5529TIP3    H140782   0.922   1.180   0.685 -2.2563 -2.0000 -0.0054
 5529TIP3    H240783   0.940   1.055   0.768 -1.7124 -0.3649  2.4408
 5530TIP3   OH240784   0.073   6.555   7.335 -0.6398 -0.4691  0.1471
 5530TIP3    H140785   0.080   6.625   7.271 -1.3527 -1.9130 -1.5928
 5530TIP3    H240786  -0.012   6.570   7.378 -0.7655 -0.2443 -0.1764
 5531TIP3   OH240787   2.283   5.803   2.230  0.0730 -0.0540 -0.2309
 5531TIP3    H140788   2.306   5.720   2.271 -1.8786  0.2279  1.5857
 5531TIP3    H240789   2.219   5.842   2.289 -0.0699  2.1408 -1.7212
 5532TIP3   OH240790   2.273   1.407   1.471 -0.4520 -0.2587 -0.5271
 5532TIP3    H140791   2.266   1.327   1.420 -2.3367 -0.3285 -0.2376
 5532TIP3    H240792   2.241   1.476   1.413 -1.2832 -0.1240  0.0765
 5533TIP3   OH240793   6.164   5.880   7.158 -0.0465 -0.3998  0.0632
 5533TIP3    H140794   6.083   5.879   7.107  0.5926  0.5162 -1.0439
 5533TIP3    H240795   6.205   5.963   7.135  1.2221 -0.8599  0.5721
 5534TIP3   OH240796   4.629   1.219   2.349 -0.7886  0.0651  0.1887
 5534TIP3    H140797   4.642   1.225   2.444 -2.0757  0.0235  0.3809
 5534TIP3    H240798   4.705   1.171   2.317 -0.5080 -0.2058  1.2439
 5535TIP3   OH240799   6.928   3.897   8.657  0.9165  0.1715 -0.9584
 5535TIP3    H140800   6.923   3.988   8.686 -0.2433  0.1727 -1.0977
 5535TIP3    H240801   6.969   3.901   8.571 -0.9079  0.8067 -1.8568
 5536TIP3   OH240802   6.428   1.015   1.333  0.1754  0.0695 -0.3712
 5536TIP3    H140803   6.477   1.096   1.351 -1.3285  0.9291 -0.0006
 5536TIP3    H240804   6.363   1.011   1.402 -0.6886 -0.7114 -1.2140
 5537TIP3   OH240805   0.993   2.561   8.871 -0.2206  0.0325  0.5101
 5537TIP3    H140806   1.003   2.642   8.821  0.3303 -1.3394 -1.7256
 5537TIP3    H240807   0.899   2.546   8.876 -0.2880  0.3201  0.1153
 5538TIP3   OH240808   4.427   0.730   9.791 -0.1893 -0.2658 -0.3408
 5538TIP3    H140809   4.474   0.700   9.713  0.9269 -0.3577  0.3522
 5538TIP3    H240810   4.458   0.673   9.861 -0.3776  0.5039  0.3837
 5539TIP3   OH240811   5.506   0.366   2.981 -0.2350  0.4536  0.4696
 5539TIP3    H140812   5.445   0.437   2.961 -0.8484 -0.4359 -0.9372
 5539TIP3    H240813   5.450   0.289   2.996  0.4999 -0.2498 -0.2846
 5540TIP3   OH240814   5.634   7.573   1.694  0.0305  0.2627  0.3152
 5540TIP3    H140815   5.578   7.600   1.622  0.1879 -1.5007 -0.5160
 5540TIP3    H240816   5.577   7.522   1.751  0.5489 -0.7847 -0.0738
 5541TIP3   OH240817   6.632   1.679   1.295  0.1336 -0.2526  0.1682
 5541TIP3    H140818   6.674   1.761   1.321  0.1280 -0.3630  0.5282
 5541TIP3    H240819   6.632   1.682   1.200  0.1080  0.1819  0.1762
 5542TIP3   OH240820   4.082   6.571   1.543 -0.0231 -0.2536 -0.2036
 5542TIP3    H140821   4.020   6.595   1.475  0.6079  0.1313 -0.6555
 5542TIP3    H240822   4.059   6.627   1.617 -1.5171 -1.5556  0.3669
 5543TIP3   OH240823   2.209   0.058   8.761 -0.1104 -0.4025 -0.1514
 5543TIP3    H140824   2.274   0.033   8.828 -0.5097 -1.9708 -0.3088
 5543TIP3    H240825   2.125   0.029   8.798 -0.7273  1.3980 -0.0523
 5544TIP3   OH240826   2.008   0.048   7.374  0.3775  0.2360  0.0923
 5544TIP3    H140827   1.947   0.011   7.437 -0.6765 -1.4002 -1.7642
 5544TIP3    H240828   2.091   0.005   7.392 -0.3069 -1.4962 -0.5959
 5545TIP3   OH240829   1.783   2.151   7.788 -0.5912 -0.5858 -0.5111
 5545TIP3    H140830   1.702   2.183   7.748 -1.5333 -1.4027  0.6799
 5545TIP3    H240831   1.783   2.057   7.771 -0.3814 -0.7415  0.3287
 5546TIP3   OH240832   1.115   1.080   9.229 -0.0548 -0.1614  0.0073
 5546TIP3    H140833   1.101   0.990   9.259  0.6217 -0.5546 -0.8350
 5546TIP3    H240834   1.151   1.071   9.141 -0.8904  0.9632 -0.4673
 5547TIP3   OH240835   7.046   1.992   1.051 -0.1501  0.2164 -0.0433
 5547TIP3    H140836   7.120   1.971   0.993 -1.2398 -1.0372 -1.0302
 5547TIP3    H240837   7.062   2.083   1.077  0.4036  0.8441 -2.3035
 5548TIP3   OH240838   1.473   1.824   1.540  0.0525 -0.3920  0.2058
 5548TIP3    H140839   1.390   1.861   1.510  0.4438  0.9414  0.6843
 5548TIP3    H240840   1.538   1.860   1.479  0.1794 -2.4051 -0.9401
 5549TIP3   OH240841   4.608   1.692   2.817  0.5426  0.6017 -0.6287
 5549TIP3    H140842   4.631   1.741   2.737  2.6270  1.7742  0.5733
 5549TIP3    H240843   4.648   1.743   2.887  1.6302 -2.1021  0.8619
 5550TIP3   OH240844   0.664   5.879   9.915 -0.0672 -0.3857  0.3504
 5550TIP3    H140845   0.606   5.827   9.860 -1.1483 -0.4859  1.5394
 5550TIP3    H240846   0.646   5.849  10.005  0.1321  1.1908  0.9576
 5551TIP3   OH240847   7.628   4.365   1.043  0.1854  0.6931 -0.2664
 5551TIP3    H140848   7.718   4.354   1.010 -0.5054  1.0480 -2.4431
 5551TIP3    H240849   7.629   4.449   1.088  0.5994  1.5051 -1.7242
 5552TIP3   OH240850   7.130   5.254   8.440  0.2127  0.2364 -0.3311
 5552TIP3    H140851   7.163   5.343   8.443 -0.8448  0.6227  0.0603
 5552TIP3    H240852   7.201   5.204   8.399  0.5935  1.3424 -1.0680
 5553TIP3   OH240853   5.554   2.576   8.108  0.5611 -0.0329 -0.2462
 5553TIP3    H140854   5.492   2.523   8.158  0.3513 -0.0102 -0.4800
 5553TIP3    H240855   5.613   2.513   8.068  1.7895  0.0183  1.3943
 5554TIP3   OH240856   4.124   2.823   0.322 -0.1470  0.4126  0.3988
 5554TIP3    H140857   4.058   2.877   0.280  0.1227 -0.1709 -0.8433
 5554TIP3    H240858   4.189   2.808   0.253 -0.2123 -1.4470  0.6918
 5555TIP3   OH240859   6.947   3.458   9.120  0.0379  0.7046 -0.3799
 5555TIP3    H140860   6.868   3.414   9.087  0.4646  0.5381 -1.1880
 5555TIP3    H240861   7.012   3.447   9.051  0.4967  1.6395 -0.1117
 5556TIP3   OH240862   0.973   6.397   7.531 -0.5472 -0.0502 -0.2496
 5556TIP3    H140863   0.921   6.331   7.485 -1.1027 -0.5670  1.0899
 5556TIP3    H240864   0.908   6.458   7.566 -0.1269  0.3206 -0.1129
 5557TIP3   OH240865   2.437   2.163   2.764  0.7926 -0.0237  0.2407
 5557TIP3    H140866   2.382   2.103   2.815  1.1577 -0.6973 -0.1508
 5557TIP3    H240867   2.374   2.215   2.714  0.4611  0.1372  0.8057
 5558TIP3   OH240868   2.309   0.114   0.686  0.3395 -0.2033 -0.1133
 5558TIP3    H140869   2.291   0.033   0.638 -0.6416 -1.0516  1.5789
 5558TIP3    H240870   2.399   0.103   0.718  0.2420 -0.5851  0.0319
 5559TIP3   OH240871   4.219   4.479   9.747  0.4285  0.6266  0.4865
 5559TIP3    H140872   4.205   4.444   9.659  1.4610  2.8241 -0.6381
 5559TIP3    H240873   4.309   4.455   9.769 -0.7407 -2.6394  2.3902
 5560TIP3   OH240874   2.556   1.790   0.909 -0.9796  0.1813  0.0658
 5560TIP3    H140875   2.482   1.834   0.950 -1.4419 -0.5016 -0.0086
 5560TIP3    H240876   2.523   1.702   0.888  0.2998 -0.6964  1.4962
 5561TIP3   OH240877   2.268   5.967   1.993  0.0077  0.1346  0.0309
 5561TIP3    H140878   2.246   5.912   2.068  1.6105  0.7330  1.0040
 5561TIP3    H240879   2.209   5.937   1.923  0.3056 -2.3242  0.7111
 5562TIP3   OH240880   5.129   7.309   2.607  0.0940  0.1454  0.0073
 5562TIP3    H140881   5.155   7.332   2.696 -0.9956  0.6890  0.2068
 5562TIP3    H240882   5.132   7.213   2.605  2.1256  0.1624 -0.0298
 5563TIP3   OH240883   4.925   1.909   0.755  0.4972 -0.5894 -0.3209
 5563TIP3    H140884   4.975   1.975   0.706  0.4299 -0.0602  0.3035
 5563TIP3    H240885   4.955   1.919   0.846  1.1261 -2.0175 -0.3395
 5564TIP3   OH240886   5.418   5.298   7.820 -0.0490 -0.3694 -0.1929
 5564TIP3    H140887   5.421   5.236   7.746  1.6105 -0.1488 -0.3516
 5564TIP3    H240888   5.463   5.375   7.787  0.7876 -0.3011  1.0892
 5565TIP3   OH240889   2.589   4.603   9.983  0.2674  0.0353 -0.2620
 5565TIP3    H140890   2.584   4.659   9.905  0.1332 -0.9067 -0.9550
 5565TIP3    H240891   2.654   4.536   9.960 -0.2195 -0.6050  0.1982
 5566TIP3   OH240892   5.636   7.197   1.629  0.0799  0.1340 -0.3683
 5566TIP3    H140893   5.730   7.195   1.644  0.0409 -1.1526 -0.1711
 5566TIP3    H240894   5.597   7.201   1.717 -0.0559 -0.5693 -0.3909
 5567TIP3   OH240895   5.330   5.638   7.260  0.2239  0.3385 -0.0373
 5567TIP3    H140896   5.242   5.670   7.244  0.2835 -0.5453 -2.6998
 5567TIP3    H240897   5.369   5.632   7.172  1.7304 -2.5703  0.7140
 5568TIP3   OH240898   6.373   2.582   2.381 -0.0808 -0.3284 -0.3171
 5568TIP3    H140899   6.445   2.527   2.351 -0.8409 -0.4651 -2.0065
 5568TIP3    H240900   6.388   2.666   2.338  0.3721  0.4238  1.2477
 5569TIP3   OH240901   0.863   4.258   0.131  0.2921 -0.4565  0.1719
 5569TIP3    H140902   0.802   4.314   0.082 -0.6830  0.1974  2.0543
 5569TIP3    H240903   0.950   4.292   0.109 -0.1069 -0.1061 -0.9762
 5570TIP3   OH240904   3.668   2.897   1.245 -0.3508  0.5278 -0.1784
 5570TIP3    H140905   3.637   2.828   1.187  1.4607 -0.0854 -0.4815
 5570TIP3    H240906   3.649   2.865   1.333 -1.1945  0.5087 -0.3573
 5571TIP3   OH240907   1.546   1.702   0.893  1.1633 -0.1201 -0.0812
 5571TIP3    H140908   1.542   1.673   0.802  0.3190  1.9358 -0.7475
 5571TIP3    H240909   1.636   1.735   0.904  0.1461  3.6185 -1.5765
 5572TIP3   OH240910   5.936   6.820   9.405  0.1589 -0.4162  0.0285
 5572TIP3    H140911   6.021   6.865   9.403  0.4568 -0.9795 -0.7862
 5572TIP3    H240912   5.922   6.793   9.314 -0.8452 -0.4241  0.1812
 5573TIP3   OH240913   0.118   3.397   7.244  0.6788 -0.2371  0.0917
 5573TIP3    H140914   0.198   3.365   7.286  0.4641  1.3840  1.8446
 5573TIP3    H240915   0.144   3.415   7.154  2.7319  1.6258  0.9728
 5574TIP3   OH240916   3.973   5.977   1.160 -0.6665  0.2688  0.1869
 5574TIP3    H140917   4.043   6.021   1.209 -0.6903 -1.4112  1.8646
 5574TIP3    H240918   3.976   6.017   1.073  2.0357  0.6113  0.3383
 5575TIP3   OH240919   7.198   1.025   7.833 -0.3363 -0.3854 -0.4361
 5575TIP3    H140920   7.172   0.937   7.861 -1.4124  0.2850  0.7490
 5575TIP3    H240921   7.259   1.055   7.900 -1.3170  0.4331  0.1081
 5576TIP3   OH240922   4.927   7.446   1.077  0.1350 -0.4551  0.2439
 5576TIP3    H140923   5.001   7.481   1.027 -0.5474  0.6064 -0.0714
 5576TIP3    H240924   4.959   7.363   1.113  2.1639  0.8913  1.7843
 5577TIP3   OH240925   6.403   1.129   9.275 -0.6624 -0.0594  0.5253
 5577TIP3    H140926   6.333   1.130   9.340  0.6536  1.0066  1.9774
 5577TIP3    H240927   6.362   1.163   9.195 -2.4243 -1.8272  0.5841
 5578TIP3   OH240928   0.418   3.104   8.688 -0.1738  0.6792 -0.7954
 5578TIP3    H140929   0.369   3.078   8.766  2.0228 -0.6380  0.2126
 5578TIP3    H240930   0.472   3.178   8.716  2.6838 -1.4858 -0.1599
 5579TIP3   OH240931   6.448   5.425   8.729  0.3212 -0.0323 -0.5904
 5579TIP3    H140932   6.393   5.427   8.807  0.6384  1.4741 -0.3794
 5579TIP3    H240933   6.394   5.381   8.663 -0.9364  0.8772 -0.2180
 5580TIP3   OH240934   4.788   0.259   0.451  0.3040  0.2306 -0.3453
 5580TIP3    H140935   4.694   0.276   0.452  0.7558  3.3010  0.4684
 5580TIP3    H240936   4.812   0.258   0.359  0.0449  3.9819 -0.5931
 5581TIP3   OH240937   1.786   2.141   1.649 -0.1899  0.2687  0.1020
 5581TIP3    H140938   1.771   2.228   1.611 -0.9068  0.3121  0.4547
 5581TIP3    H240939   1.790   2.158   1.744 -0.8705 -0.1500  0.2081
 5582TIP3   OH240940   4.647   7.338   0.714 -0.0933 -0.7375 -0.9081
 5582TIP3    H140941   4.639   7.413   0.774 -0.4573 -2.4763  1.3473
 5582TIP3    H240942   4.728   7.355   0.666  0.6187  0.4116  0.5984
 5583TIP3   OH240943   3.515   4.950   1.009 -0.6578  0.0119  0.6114
 5583TIP3    H140944   3.461   5.029   1.010 -2.1518 -0.9620  0.4612
 5583TIP3    H240945   3.601   4.980   0.980 -1.5367  1.3943 -0.7547
 5584TIP3   OH240946   2.383   0.149   2.175  0.0097  0.4459  0.1261
 5584TIP3    H140947   2.394   0.202   2.096  0.8063 -1.2629 -0.9698
 5584TIP3    H240948   2.344   0.068   2.144 -1.1242  0.3219  1.7541
 5585TIP3   OH240949   1.045   7.345   8.560 -0.6817  0.0611  0.1738
 5585TIP3    H140950   1.108   7.307   8.621  0.2551 -0.5131 -1.0911
 5585TIP3    H240951   0.961   7.309   8.587 -0.3572  0.1687  1.3792
 5586TIP3   OH240952   2.604   1.788   2.070 -0.3410  0.2212  0.2854
 5586TIP3    H140953   2.617   1.812   2.162 -0.4797  1.8347 -0.0964
 5586TIP3    H240954   2.511   1.771   2.062 -0.4570  0.8377  0.2830
 5587TIP3   OH240955   0.954   0.499   1.157  0.3289  0.5288  0.1890
 5587TIP3    H140956   0.882   0.512   1.096 -1.0276  1.1746  1.8291
 5587TIP3    H240957   0.926   0.427   1.213 -1.3031  3.5281  3.7211
 5588TIP3   OH240958   1.556   6.837   1.813  0.2758 -0.1565 -1.1739
 5588TIP3    H140959   1.537   6.882   1.731  1.0107  1.6227 -0.4178
 5588TIP3    H240960   1.643   6.868   1.838  0.5613 -1.5671 -0.2850
 5589TIP3   OH240961   1.880   1.751   8.558  0.0801  0.7938 -0.2428
 5589TIP3    H140962   1.917   1.810   8.623  0.0065  1.1849 -0.5566
 5589TIP3    H240963   1.850   1.675   8.609 -0.6816  1.4288  0.2742
 5590TIP3   OH240964   0.905   5.142   1.300  0.1680  0.3346  0.3518
 5590TIP3    H140965   0.984   5.128   1.351 -0.1494  2.5997  1.5648
 5590TIP3    H240966   0.898   5.237   1.290 -0.5779  0.0868 -2.7248
 5591TIP3   OH240967   4.178   2.021   7.531 -0.4859  0.1315 -0.0391
 5591TIP3    H140968   4.222   1.975   7.461 -1.0530  0.8609 -0.8974
 5591TIP3    H240969   4.095   1.974   7.542 -0.1373 -0.3592  0.5857
 5592TIP3   OH240970   5.471   0.841   1.745 -0.0663 -0.0644 -0.0191
 5592TIP3    H140971   5.521   0.870   1.822  0.0088  1.6009 -0.6553
 5592TIP3    H240972   5.535   0.792   1.693  0.7416  1.3525 -0.4298
 5593TIP3   OH240973   0.698   2.257   8.741 -0.9773 -0.5079  0.2556
 5593TIP3    H140974   0.777   2.203   8.749 -0.0045  1.0241  2.0138
 5593TIP3    H240975   0.631   2.210   8.791 -0.4151 -0.5981  0.9433
 5594TIP3   OH240976   2.141   5.440   6.601 -0.1984  0.7906  0.1632
 5594TIP3    H140977   2.198   5.514   6.620  0.6130 -0.0042  0.8943
 5594TIP3    H240978   2.073   5.444   6.669  0.0257  0.6859  0.3955
 5595TIP3   OH240979   5.606   7.569   2.070  0.0112 -0.3315  0.7164
 5595TIP3    H140980   5.610   7.655   2.030  0.1565  0.7118  2.8448
 5595TIP3    H240981   5.546   7.519   2.013  0.5668  0.8716 -0.9990
 5596TIP3   OH240982   3.813   7.261   0.810 -0.0880 -0.2963 -0.7002
 5596TIP3    H140983   3.854   7.273   0.724  0.4065 -0.7064 -0.5258
 5596TIP3    H240984   3.824   7.168   0.830  0.2876 -0.1019  0.0439
 5597TIP3   OH240985   4.227   1.253   8.043 -0.5079  0.9009  0.1072
 5597TIP3    H140986   4.281   1.205   8.106  1.0437 -0.3172 -2.0480
 5597TIP3    H240987   4.285   1.319   8.006 -1.5778  2.0133  0.3407
 5598TIP3   OH240988   6.150   3.271   8.702 -0.2340  0.0316 -0.3593
 5598TIP3    H140989   6.173   3.256   8.794  1.1123  0.6458 -0.5818
 5598TIP3    H240990   6.233   3.291   8.659 -0.9840  0.7623 -1.5215
 5599TIP3   OH240991   0.717   6.019   0.328 -0.2918  0.3010 -0.0722
 5599TIP3    H140992   0.674   6.048   0.409  0.3059  0.5338  0.1688
 5599TIP3    H240993   0.805   6.058   0.332 -0.6655  1.3947 -1.4473
 5600TIP3   OH240994   4.360   0.325   1.283  0.2118 -0.5103 -0.5612
 5600TIP3    H140995   4.388   0.416   1.274  0.3661 -0.4795  0.1369
 5600TIP3    H240996   4.408   0.278   1.215  1.8720 -0.4318  0.4984
 5601TIP3   OH240997   1.391   6.472   0.392  0.7968  0.6450 -0.0582
 5601TIP3    H140998   1.404   6.566   0.380 -1.2195  0.8781 -0.9020
 5601TIP3    H240999   1.350   6.443   0.310  3.9290 -1.5809 -0.9970
 5602TIP3   OH241000   0.027   2.789   2.582  0.3312 -0.5243 -0.3920
 5602TIP3    H141001  -0.057   2.752   2.554 -1.2244  3.1737 -1.1563
 5602TIP3    H241002   0.026   2.782   2.677 -0.3566 -1.4047 -0.4532
 5603TIP3   OH241003   2.525   6.332   8.894 -0.4290  0.0699 -0.6794
 5603TIP3    H141004   2.452   6.303   8.839 -0.3261 -0.1552 -0.6955
 5603TIP3    H241005   2.546   6.420   8.860  0.1297 -0.3626 -1.5061
 5604TIP3   OH241006   0.123   1.441   1.897 -0.0095 -0.4100  0.2712
 5604TIP3    H141007   0.209   1.406   1.875  0.2027 -1.1098  2.0424
 5604TIP3    H241008   0.062   1.393   1.841  0.6281 -0.8689 -0.0386
 5605TIP3   OH241009   0.671   2.112   1.613  0.3329  0.4430  0.3313
 5605TIP3    H141010   0.673   2.134   1.520  0.7792  2.4673  0.7756
 5605TIP3    H241011   0.645   2.193   1.657 -3.5770 -1.3257  1.7748
 5606TIP3   OH241012   6.344   6.976   9.906  0.3458 -0.4861 -0.0292
 5606TIP3    H141013   6.325   6.883   9.919 -1.1736 -0.0437  1.1812
 5606TIP3    H241014   6.310   7.019   9.985  1.3149  1.0674 -0.4130
 5607TIP3   OH241015   6.951   7.589   0.846  0.1811  0.6203  0.2536
 5607TIP3    H141016   6.944   7.521   0.778  1.7327 -0.1992  0.8701
 5607TIP3    H241017   7.027   7.641   0.820  0.5417  0.5485  1.1546
 5608TIP3   OH241018   1.945   3.220   9.081 -0.2903 -0.2650 -0.1343
 5608TIP3    H141019   1.855   3.211   9.049 -0.7049  0.7172  0.7066
 5608TIP3    H241020   1.979   3.131   9.082 -1.7236 -0.8367  0.8522
 5609TIP3   OH241021   1.729   5.736   2.886 -0.0553 -0.0347  0.2739
 5609TIP3    H141022   1.676   5.808   2.921  0.1127 -0.8679  2.4357
 5609TIP3    H241023   1.819   5.767   2.893  0.0946 -0.7399  2.1493
 5610TIP3   OH241024   3.789   2.991   9.415 -0.7581 -0.3527  0.0417
 5610TIP3    H141025   3.843   3.056   9.370 -1.6396  0.4906  0.1838
 5610TIP3    H241026   3.768   2.926   9.348 -1.2153  0.3619 -0.5212
 5611TIP3   OH241027   0.339   3.524   8.457 -0.1020 -0.2219  0.3535
 5611TIP3    H141028   0.322   3.537   8.364  0.3493 -2.8978 -0.1937
 5611TIP3    H241029   0.428   3.555   8.470  1.5077 -3.6162 -1.2003
 5612TIP3   OH241030   2.848   2.696   1.621  0.3079  0.9197 -0.6634
 5612TIP3    H141031   2.882   2.739   1.700  1.0563  2.2296 -1.6591
 5612TIP3    H241032   2.884   2.607   1.625  0.6513  1.0900  0.2638
 5613TIP3   OH241033   6.752   0.236   0.192 -0.0171  0.1214 -0.1762
 5613TIP3    H141034   6.779   0.286   0.115 -1.4790  1.2857  0.0067
 5613TIP3    H241035   6.656   0.232   0.184 -0.1480 -0.1043  1.3556
 5614TIP3   OH241036   7.242   0.367   1.463 -0.6816  0.1248  0.7036
 5614TIP3    H141037   7.169   0.370   1.401 -0.8963 -2.7055  0.7132
 5614TIP3    H241038   7.320   0.356   1.409 -0.4392  1.3008  0.7900
 5615TIP3   OH241039   7.245   6.852   1.856  0.3505  0.4388  0.2011
 5615TIP3    H141040   7.286   6.918   1.912  0.0156 -0.1685  1.1812
 5615TIP3    H241041   7.161   6.833   1.898  0.5587 -0.8020  0.0982
 5616TIP3   OH241042   2.104   1.223   9.233  0.3621 -0.0817  0.1733
 5616TIP3    H141043   2.173   1.159   9.247  2.6861  1.5677 -2.4505
 5616TIP3    H241044   2.134   1.302   9.278 -0.8564  0.1232  0.6785
 5617TIP3   OH241045   2.056   1.935   0.933 -0.1442  0.0665 -0.5235
 5617TIP3    H141046   2.080   1.963   1.022 -1.1072 -0.3002 -0.1389
 5617TIP3    H241047   2.138   1.903   0.895  0.2362  0.0315  0.3067
 5618TIP3   OH241048   3.952   3.316   9.926  0.2864  0.1409 -0.4245
 5618TIP3    H141049   4.039   3.336   9.961 -0.1592  0.5433  0.4822
 5618TIP3    H241050   3.968   3.251   9.857  1.2981  0.2052 -0.2624
 5619TIP3   OH241051   6.183   1.825   9.724 -0.6075 -0.1162  0.0028
 5619TIP3    H141052   6.191   1.732   9.699  1.5042 -0.0880  0.4005
 5619TIP3    H241053   6.184   1.872   9.640  3.2130 -0.2232 -0.1840
 5620TIP3   OH241054   6.252   0.218   8.284  0.2054 -0.2756 -0.5397
 5620TIP3    H141055   6.273   0.126   8.268  2.1290 -0.0255  0.2566
 5620TIP3    H241056   6.201   0.245   8.207 -0.4568 -2.0016 -0.7401
 5621TIP3   OH241057   3.408   2.615   2.698 -0.1615  0.4181  0.5592
 5621TIP3    H141058   3.332   2.650   2.651  0.7594  0.9457 -0.5813
 5621TIP3    H241059   3.376   2.598   2.787 -1.7478  0.1040 -0.0466
 5622TIP3   OH241060   2.357   5.913   9.431 -0.1033 -0.3600 -0.3773
 5622TIP3    H141061   2.395   5.987   9.384 -2.6751  0.8126 -0.7396
 5622TIP3    H241062   2.263   5.923   9.420 -0.5947 -2.7607  1.0165
 5623TIP3   OH241063   2.471   6.033   8.482  0.2729 -0.1810  0.3939
 5623TIP3    H141064   2.523   5.952   8.478 -2.0026 -1.7815  1.1329
 5623TIP3    H241065   2.433   6.033   8.570  0.0940  1.6544  0.3518
 5624TIP3   OH241066   0.446   4.888   7.940  0.4630 -0.2647 -0.0314
 5624TIP3    H141067   0.369   4.831   7.940 -0.4367  0.9025  0.2452
 5624TIP3    H241068   0.490   4.869   7.857  0.0778 -1.2177 -0.0223
 5625TIP3   OH241069   0.990   5.432   1.733 -1.0495 -0.5660 -0.1727
 5625TIP3    H141070   0.956   5.458   1.819 -1.5916  0.2587 -0.6206
 5625TIP3    H241071   0.917   5.385   1.692 -0.8372 -0.8459 -0.2287
 5626TIP3   OH241072   7.437   4.788   8.960  0.2804 -0.1790  0.5296
 5626TIP3    H141073   7.460   4.777   9.052 -1.6743 -0.9382  0.9723
 5626TIP3    H241074   7.353   4.835   8.962  0.4414  0.1994 -0.8723
 5627TIP3   OH241075   2.615   5.525   9.960 -0.6043  0.1476  0.9573
 5627TIP3    H141076   2.637   5.551   9.871  0.0663 -1.4926  0.5909
 5627TIP3    H241077   2.685   5.563  10.014  0.4477 -0.9570  0.4244
 5628TIP3   OH241078   0.287   2.448   0.104 -0.1713  0.4397  0.1280
 5628TIP3    H141079   0.332   2.532   0.094  0.3995  0.0248 -1.1657
 5628TIP3    H241080   0.352   2.392   0.146 -0.6755  0.7160  1.3190
 5629TIP3   OH241081   1.117   2.806   8.087  0.1052 -0.4267  0.4420
 5629TIP3    H141082   1.096   2.713   8.091 -0.8660 -0.3403 -1.3239
 5629TIP3    H241083   1.054   2.842   8.023  0.0281  1.5618  1.5506
 5630TIP3   OH241084   3.824   7.611   7.224  0.2481  0.3714 -0.3888
 5630TIP3    H141085   3.883   7.659   7.166  2.8533 -1.9138  0.1661
 5630TIP3    H241086   3.857   7.521   7.223 -2.2906 -0.7048  1.2703
 5631TIP3   OH241087   1.894   5.901   7.545 -0.1934 -0.2291 -0.4076
 5631TIP3    H141088   1.830   5.840   7.510 -0.1524 -2.1637  2.5218
 5631TIP3    H241089   1.851   5.987   7.539 -1.6665 -0.9999 -1.5517
 5632TIP3   OH241090   1.576   6.353   9.434  0.5771  0.0822 -0.2624
 5632TIP3    H141091   1.662   6.317   9.452  0.1781 -1.1795 -0.7880
 5632TIP3    H241092   1.517   6.305   9.492  0.2770  1.3722  0.5577
 5633TIP3   OH241093   1.251   7.446   8.971 -0.0608 -0.5127 -0.6937
 5633TIP3    H141094   1.208   7.373   8.927 -2.4303  1.0137 -1.0705
 5633TIP3    H241095   1.243   7.519   8.909  2.0550  0.1767 -0.2429
 5634TIP3   OH241096   6.891   3.186   7.751 -0.5730 -0.5124 -0.2417
 5634TIP3    H141097   6.896   3.159   7.843 -0.9398 -1.9655 -0.6222
 5634TIP3    H241098   6.914   3.107   7.701  2.2639  0.9189 -1.3944
 5635TIP3   OH241099   1.589   2.580   8.859 -0.0499  0.3304  0.0976
 5635TIP3    H141100   1.535   2.593   8.780 -0.8328 -1.4396  0.2838
 5635TIP3    H241101   1.672   2.621   8.838 -0.2401 -0.0877 -1.6701
 5636TIP3   OH241102   3.137   0.721   0.975  0.4860  0.5205 -0.3280
 5636TIP3    H141103   3.191   0.645   0.954  1.2265  0.4468  1.6382
 5636TIP3    H241104   3.174   0.791   0.922  0.6367 -0.1739 -1.1779
 5637TIP3   OH241105   2.661   2.159   2.476  0.1026  0.6484  0.2779
 5637TIP3    H141106   2.718   2.144   2.551 -0.2333 -1.2032  0.2242
 5637TIP3    H241107   2.582   2.200   2.512 -0.4730 -1.1166  1.1545
 5638TIP3   OH241108   5.570   6.318   7.467  0.3701 -0.1190 -0.3484
 5638TIP3    H141109   5.661   6.316   7.495  0.1710 -1.3247  0.2600
 5638TIP3    H241110   5.573   6.357   7.379  1.2995  1.1660  0.2279
 5639TIP3   OH241111   5.363   2.720   8.366  0.2323  0.2852  0.1912
 5639TIP3    H141112   5.388   2.627   8.362  0.3812  0.3426 -0.2471
 5639TIP3    H241113   5.271   2.719   8.391 -0.3548 -0.0586 -1.8166
 5640TIP3   OH241114   3.146   2.117   2.353  0.5336  0.2860  0.3260
 5640TIP3    H141115   3.170   2.109   2.261 -1.1020  0.6625 -0.1704
 5640TIP3    H241116   3.142   2.027   2.385  3.1826  0.1965  0.6651
 5641TIP3   OH241117   1.360   0.229   8.472 -0.4244  0.8070 -0.0499
 5641TIP3    H141118   1.398   0.217   8.559 -1.1717  1.4290  0.3784
 5641TIP3    H241119   1.310   0.149   8.456 -0.7030  0.9057  0.3176
 5642TIP3   OH241120   1.989   6.946   2.177 -0.2222  0.6310  0.0452
 5642TIP3    H141121   1.937   6.947   2.257 -0.5213 -0.0187 -0.1355
 5642TIP3    H241122   2.039   6.865   2.182 -0.4874  0.4259 -0.5806
 5643TIP3   OH241123   3.152   0.100   1.510  0.2594 -0.1344  0.1412
 5643TIP3    H141124   3.190   0.014   1.529  1.3042  0.4393  0.7288
 5643TIP3    H241125   3.153   0.146   1.594  1.8216  1.2392 -0.5786
 5644TIP3   OH241126   4.004   3.722   9.961 -0.0293  0.2120 -0.2874
 5644TIP3    H141127   4.065   3.652   9.938  0.3865  0.9665 -1.6145
 5644TIP3    H241128   3.923   3.678   9.982  0.2874 -0.6965 -0.9090
 5645TIP3   OH241129   3.469   4.867   8.415 -0.0549  0.3981 -0.2516
 5645TIP3    H141130   3.468   4.962   8.410 -2.5861  0.6317  1.9764
 5645TIP3    H241131   3.376   4.842   8.413  0.4052 -1.7787  1.3368
 5646TIP3   OH241132   5.888   6.855   3.223 -0.1538 -0.2734  0.1905
 5646TIP3    H141133   5.866   6.914   3.295 -0.6172  2.8411 -2.2469
 5646TIP3    H241134   5.983   6.853   3.221 -0.0412  2.1139 -0.7826
 5647TIP3   OH241135   3.638   2.474   2.992 -0.5120  0.7553  0.3473
 5647TIP3    H141136   3.665   2.554   2.946  0.7979 -1.6512 -3.6226
 5647TIP3    H241137   3.543   2.469   2.976 -0.1417  0.1327 -2.1789
 5648TIP3   OH241138   0.845   0.540   9.166 -0.0604 -0.4200 -0.0440
 5648TIP3    H141139   0.820   0.631   9.182  1.7994  0.6102 -2.3082
 5648TIP3    H241140   0.907   0.520   9.237 -0.0540  0.2830  0.1601
 5649TIP3   OH241141   2.466   3.623   2.549 -0.3267 -0.2002 -0.1172
 5649TIP3    H141142   2.394   3.686   2.557  0.0864  0.1743  0.7704
 5649TIP3    H241143   2.543   3.677   2.530  0.1333 -0.3694  1.2037
 5650TIP3   OH241144   1.920   1.283   2.348 -0.1318  0.2818  0.2085
 5650TIP3    H141145   1.916   1.225   2.423 -2.5965 -1.3471 -1.0643
 5650TIP3    H241146   1.930   1.225   2.272  0.9081  1.7748 -0.8735
 5651TIP3   OH241147   6.644   6.711   9.387  0.2434 -0.5782 -0.6203
 5651TIP3    H141148   6.590   6.670   9.320  0.6360 -0.7255 -0.8509
 5651TIP3    H241149   6.581   6.750   9.448 -0.2089 -2.3725  0.1617
 5652TIP3   OH241150   5.136   2.263   7.662 -0.1211  0.1397  0.0325
 5652TIP3    H141151   5.096   2.234   7.579 -1.3880  0.3227  0.5605
 5652TIP3    H241152   5.111   2.195   7.725  0.3263  0.3149  0.4015
 5653TIP3   OH241153   6.131   4.935   8.127 -0.6199 -0.2291  0.0839
 5653TIP3    H141154   6.140   5.020   8.084  0.2842 -1.1641 -1.7077
 5653TIP3    H241155   6.216   4.921   8.169 -0.5832 -0.4644 -0.0674
 5654TIP3   OH241156   4.441   0.344   0.737  0.3052 -0.3679 -0.4040
 5654TIP3    H141157   4.501   0.271   0.728 -1.0484 -1.4218 -1.1681
 5654TIP3    H241158   4.356   0.310   0.710 -0.1027  1.8812 -2.4116
 5655TIP3   OH241159   7.246   4.992   9.011 -0.0079 -0.1493  0.0030
 5655TIP3    H141160   7.156   4.999   8.982 -0.2312 -1.0839  0.4193
 5655TIP3    H241161   7.241   4.946   9.095  0.9291 -1.3897 -0.5706
 5656TIP3   OH241162   2.466   4.343   2.671  0.0149  0.2284 -0.0682
 5656TIP3    H141163   2.436   4.256   2.641  2.7026 -0.8680  0.1925
 5656TIP3    H241164   2.409   4.404   2.624 -2.0778 -1.6378 -0.1576
 5657TIP3   OH241165   0.436   7.662   1.320 -0.2605  0.1942  0.6308
 5657TIP3    H141166   0.407   7.599   1.386 -1.5612 -1.9732 -1.8104
 5657TIP3    H241167   0.357   7.681   1.269  0.7542  1.4653 -0.5589
 5658TIP3   OH241168   7.639   2.477   2.747 -0.4822  0.0225  0.0673
 5658TIP3    H141169   7.583   2.462   2.671 -1.0027 -1.9646  0.8062
 5658TIP3    H241170   7.583   2.521   2.811  0.1161  2.2639 -0.8291
 5659TIP3   OH241171   6.680   0.574   8.631 -0.3891  0.6028  0.0244
 5659TIP3    H141172   6.689   0.502   8.692 -1.3644 -0.3695 -0.9363
 5659TIP3    H241173   6.733   0.644   8.668  0.5812 -0.5997  0.9810
 5660TIP3   OH241174   2.072   6.874   0.972 -0.0578 -0.2251  0.3283
 5660TIP3    H141175   2.023   6.792   0.974 -1.0105  0.3560  1.9233
 5660TIP3    H241176   2.139   6.864   1.039  0.3641 -0.0038 -0.0498
 5661TIP3   OH241177   1.547   5.063   7.761  0.3119 -0.0685  0.1390
 5661TIP3    H141178   1.598   4.982   7.759  1.8510  0.7938  1.2408
 5661TIP3    H241179   1.486   5.051   7.833  0.4084 -0.3251  0.1793
 5662TIP3   OH241180   2.181   5.707   7.960  0.7130  0.1920 -0.6342
 5662TIP3    H141181   2.194   5.782   8.019 -1.1619 -1.3202  1.9159
 5662TIP3    H241182   2.101   5.665   7.992  0.0510 -1.2851 -3.8083
 5663TIP3   OH241183   6.459   3.504   0.011 -0.0865 -0.2944  0.1647
 5663TIP3    H141184   6.535   3.486   0.066  0.3396 -0.2297 -0.3878
 5663TIP3    H241185   6.435   3.594   0.031  0.7380  0.0989 -0.5237
 5664TIP3   OH241186   5.370   5.824   9.293  0.2920  0.2648 -0.0475
 5664TIP3    H141187   5.343   5.828   9.384  1.0852 -2.5125  0.4144
 5664TIP3    H241188   5.288   5.819   9.243 -0.1489 -1.3879  0.7912
 5665TIP3   OH241189   1.266   4.769   8.399 -0.1002  0.5104 -0.5318
 5665TIP3    H141190   1.272   4.815   8.316  1.2314 -1.9107 -1.8927
 5665TIP3    H241191   1.335   4.807   8.453  0.1468  0.9531 -1.1539
 5666TIP3   OH241192   4.337   7.588   1.739  0.0865  0.1465 -0.5793
 5666TIP3    H141193   4.261   7.619   1.789 -1.3664 -1.4071 -1.6948
 5666TIP3    H241194   4.371   7.667   1.697  0.2562  1.1874  1.3622
 5667TIP3   OH241195   0.096   3.358   0.478  0.4511  0.2545 -0.0219
 5667TIP3    H141196   0.085   3.408   0.397  0.5505  0.0946 -0.1343
 5667TIP3    H241197   0.047   3.408   0.544 -1.0059 -0.4512 -0.5238
 5668TIP3   OH241198   3.368   2.766   8.338 -0.5628 -0.4199  0.3163
 5668TIP3    H141199   3.436   2.813   8.388 -0.3562 -1.2992  0.8845
 5668TIP3    H241200   3.327   2.834   8.285  0.9081  0.1135 -0.2111
 5669TIP3   OH241201   6.977   1.849   2.863  0.1599  0.1290  0.3986
 5669TIP3    H141202   6.969   1.872   2.770  1.9366  0.4908  0.3131
 5669TIP3    H241203   7.042   1.909   2.897  0.7660 -1.1082  1.5001
 5670TIP3   OH241204   6.337   2.361   9.722  0.2368 -0.1703  0.1370
 5670TIP3    H141205   6.262   2.307   9.747  0.2107 -0.0692  0.2782
 5670TIP3    H241206   6.413   2.314   9.758  0.2564 -0.3582 -0.1483
 5671TIP3   OH241207   2.040   6.632   7.772  0.0317  0.4330  0.4469
 5671TIP3    H141208   2.076   6.652   7.686 -0.6686  0.2011  0.0858
 5671TIP3    H241209   2.010   6.717   7.806 -1.4504  0.2798 -0.3818
 5672TIP3   OH241210   7.408   2.962   1.155 -0.1268  0.0004  0.2570
 5672TIP3    H141211   7.471   2.902   1.116 -1.6471 -1.5618  0.0653
 5672TIP3    H241212   7.382   3.019   1.083  0.0857 -0.2023  0.0183
 5673TIP3   OH241213   1.437   5.202   2.999 -0.5532  0.3270  0.1011
 5673TIP3    H141214   1.435   5.236   3.089  1.1945  0.5943  0.0627
 5673TIP3    H241215   1.463   5.110   3.009  2.2143  0.9925 -0.2265
 5674TIP3   OH241216   2.604   2.245   9.988  0.3236  0.0178 -0.1854
 5674TIP3    H141217   2.543   2.267   9.918 -0.3790 -2.5222 -0.4721
 5674TIP3    H241218   2.663   2.181   9.949  0.8249 -0.3573  1.1326
 5675TIP3   OH241219   5.299   5.257   7.345  0.0084 -0.5509  0.3807
 5675TIP3    H141220   5.238   5.191   7.313 -0.4865  1.0420 -2.2331
 5675TIP3    H241221   5.346   5.287   7.267  1.1519  1.2430  1.6665
 5676TIP3   OH241222   5.574   4.587   8.199 -0.3987 -0.1201  0.4047
 5676TIP3    H141223   5.623   4.610   8.278  0.3142 -0.0287 -0.0612
 5676TIP3    H241224   5.609   4.502   8.173  0.8077  0.7643 -0.9607
 5677TIP3   OH241225   7.244   6.687   9.691 -0.1696 -0.7083 -0.0986
 5677TIP3    H141226   7.335   6.704   9.667 -0.3918 -1.1260 -1.3118
 5677TIP3    H241227   7.197   6.684   9.608 -0.9387 -2.5271  0.3446
 5678TIP3   OH241228   4.105   0.874   7.135  0.0645 -0.1501 -0.0229
 5678TIP3    H141229   4.015   0.853   7.160 -0.5318  0.6521 -1.4147
 5678TIP3    H241230   4.116   0.836   7.048  0.7251  0.6454 -0.3073
 5679TIP3   OH241231   7.524   3.449   8.737  0.0421 -0.2920  0.4020
 5679TIP3    H141232   7.508   3.373   8.793  1.7224  0.0053  1.3834
 5679TIP3    H241233   7.541   3.520   8.799  0.3135  0.4399 -0.4983
 5680TIP3   OH241234   3.665   2.692   8.672  0.1880 -0.0143 -0.1909
 5680TIP3    H141235   3.586   2.640   8.660  0.3970 -0.6855  1.1646
 5680TIP3    H241236   3.634   2.775   8.707  0.0715 -0.2140  0.1793
 5681TIP3   OH241237   0.347   0.503   2.170  0.2445  0.2502 -0.2268
 5681TIP3    H141238   0.310   0.575   2.222 -1.4863 -1.3254  0.8596
 5681TIP3    H241239   0.418   0.469   2.224  1.2865  1.3193 -0.8947
 5682TIP3   OH241240   0.394   5.892   0.713 -0.2606  0.1826 -0.0431
 5682TIP3    H141241   0.393   5.842   0.631 -1.0696  0.3448 -0.1409
 5682TIP3    H241242   0.437   5.974   0.690 -0.1173  0.0650 -0.2038
 5683TIP3   OH241243   0.509   7.391   9.345 -0.0411  0.0030  0.0937
 5683TIP3    H141244   0.491   7.314   9.398 -2.4918  0.4822  0.0707
 5683TIP3    H241245   0.481   7.367   9.257  0.6497  0.4189 -0.2505
 5684TIP3   OH241246   5.676   4.020   9.577 -0.2786 -0.3928  0.7904
 5684TIP3    H141247   5.648   4.105   9.608 -0.8113 -0.1253 -0.3734
 5684TIP3    H241248   5.734   4.039   9.503 -1.0703 -1.0401 -0.0186
 5685TIP3   OH241249   0.981   2.387   0.000 -0.0265  0.1165 -0.5102
 5685TIP3    H141250   1.070   2.361  -0.022  0.6079  0.4116  1.4556
 5685TIP3    H241251   0.936   2.392  -0.084  1.9560  0.5515 -1.6282
 5686TIP3   OH241252   4.312   6.826   0.090  0.0809 -0.2740 -0.4606
 5686TIP3    H141253   4.372   6.870   0.030 -0.4578 -1.4663 -1.9515
 5686TIP3    H241254   4.329   6.733   0.076 -1.6994 -0.6306 -0.4951
 5687TIP3   OH241255   0.939   3.566   9.858  0.3767 -0.0130 -0.0966
 5687TIP3    H141256   1.031   3.546   9.876 -0.2293 -2.2099  0.8451
 5687TIP3    H241257   0.907   3.489   9.812 -1.1620  0.4551  0.1500
 5688TIP3   OH241258   4.154   0.547   9.012 -0.3083  0.0299 -0.2059
 5688TIP3    H141259   4.216   0.482   8.981  2.1112  2.7340 -1.5290
 5688TIP3    H241260   4.090   0.556   8.941 -0.2345 -0.3714 -0.3218
 5689TIP3   OH241261   5.852   0.607   0.892  0.4389 -0.2357  0.1323
 5689TIP3    H141262   5.795   0.613   0.969 -0.9417  1.0449 -0.9219
 5689TIP3    H241263   5.898   0.691   0.890 -1.1589  0.6894 -1.5668
 5690TIP3   OH241264   0.768   7.563   1.315 -0.5657 -0.3671  0.0933
 5690TIP3    H141265   0.726   7.485   1.350 -1.4589 -0.2743 -0.7106
 5690TIP3    H241266   0.752   7.631   1.380  0.2536 -0.8561  0.8142
 5691TIP3   OH241267   6.208   0.145   1.430  0.0206  0.0579 -0.5511
 5691TIP3    H141268   6.122   0.107   1.411 -0.4871  1.3602 -0.9898
 5691TIP3    H241269   6.263   0.117   1.357  0.0760 -1.0475 -0.1062
 5692TIP3   OH241270   5.809   0.935   1.287  0.2526 -0.1171  0.0301
 5692TIP3    H141271   5.862   0.999   1.334 -1.0453  0.3603  0.8974
 5692TIP3    H241272   5.802   0.970   1.199  0.2983  0.4746  0.2590
 5693TIP3   OH241273   3.330   6.196   8.873 -0.4525  0.7646  0.8487
 5693TIP3    H141274   3.280   6.180   8.953 -0.7739  0.3454  0.5663
 5693TIP3    H241275   3.355   6.288   8.879 -1.7390  1.1406  0.7358
 5694TIP3   OH241276   3.144   2.710   8.949  0.2361  0.5266  0.1794
 5694TIP3    H141277   3.192   2.631   8.972  0.7707  0.8839  0.3256
 5694TIP3    H241278   3.157   2.721   8.855  0.9109  0.9229  0.3146
 5695TIP3   OH241279   3.009   3.752   1.915 -0.1277  0.2138  0.4406
 5695TIP3    H141280   2.970   3.818   1.973  1.9619  2.1812 -0.2197
 5695TIP3    H241281   3.103   3.757   1.934  0.7130  1.1421 -3.1937
 5696TIP3   OH241282   0.479   7.002   8.658  0.0119 -0.1943 -0.6785
 5696TIP3    H141283   0.461   7.094   8.636 -0.0492 -0.7533 -3.3773
 5696TIP3    H241284   0.444   6.991   8.746 -1.3106  1.9930 -0.8492
 5697TIP3   OH241285   2.728   2.798   8.902  0.6530 -0.5569 -0.6657
 5697TIP3    H141286   2.633   2.811   8.902  0.6223 -0.7765 -0.5972
 5697TIP3    H241287   2.742   2.722   8.847  0.6251 -1.6507  0.7756
 5698TIP3   OH241288   7.462   5.977   7.425  0.0681  1.3021 -0.2183
 5698TIP3    H141289   7.532   5.936   7.375 -0.4721  0.3578 -0.2333
 5698TIP3    H241290   7.499   5.990   7.512 -0.0625 -0.2265  0.1000
 5699TIP3   OH241291   0.108   4.969   0.866 -0.2943  0.4347  0.0492
 5699TIP3    H141292   0.025   4.924   0.849  0.0041  0.5346 -1.8203
 5699TIP3    H241293   0.175   4.902   0.850  0.0657  0.9536 -0.6752
 5700TIP3   OH241294   4.791   3.280   7.583  0.4199  0.2999  0.0704
 5700TIP3    H141295   4.822   3.320   7.665 -2.7213  2.0471  0.5686
 5700TIP3    H241296   4.779   3.188   7.605  0.7249  0.5193  1.2650
 5701TIP3   OH241297   0.465   0.556   6.709 -0.1920 -0.0572  0.1723
 5701TIP3    H141298   0.485   0.463   6.698 -0.8438  0.0687 -2.9407
 5701TIP3    H241299   0.371   0.559   6.727  0.0495 -0.0140  1.5363
 5702TIP3   OH241300   7.005   2.900   6.821 -0.3516  0.2325  0.3781
 5702TIP3    H141301   6.973   2.931   6.736  0.5685  0.9046  0.2570
 5702TIP3    H241302   6.979   2.808   6.825  0.3928 -0.0560 -1.0305
 5703TIP3   OH241303   2.628   5.972   8.850 -0.0376  0.4270 -0.3243
 5703TIP3    H141304   2.674   5.889   8.834  0.7656  0.2651  2.3195
 5703TIP3    H241305   2.551   5.967   8.794  0.3564 -1.7895 -0.7882
 5704TIP3   OH241306   5.623   0.541   6.807  0.0845  0.1649  0.4031
 5704TIP3    H141307   5.531   0.551   6.783  0.3464  1.0841 -0.2878
 5704TIP3    H241308   5.658   0.482   6.741 -0.7411 -3.0759  2.6515
 5705TIP3   OH241309   1.680   2.985   1.175 -0.2060 -0.2556 -0.4946
 5705TIP3    H141310   1.768   3.002   1.208  0.3567 -0.9073 -1.5821
 5705TIP3    H241311   1.649   3.070   1.144 -0.1144  0.0488  0.2393
 5706TIP3   OH241312   4.523   6.921   7.890 -0.1640 -0.4258 -0.7794
 5706TIP3    H141313   4.453   6.861   7.864 -0.0799 -0.7091 -0.3537
 5706TIP3    H241314   4.598   6.894   7.838 -0.1916 -0.5388 -0.7606
 5707TIP3   OH241315   1.110   7.341   9.365 -0.3881  0.2065  0.2275
 5707TIP3    H141316   1.072   7.289   9.295 -0.3986 -1.6287  1.5329
 5707TIP3    H241317   1.036   7.390   9.402 -0.6375  0.1203 -0.1553
 5708TIP3   OH241318   0.220   1.264   9.764  0.1465  0.5802 -0.0344
 5708TIP3    H141319   0.303   1.252   9.719  0.5439 -0.8404  1.0007
 5708TIP3    H241320   0.239   1.328   9.833  1.0016 -1.3086  1.5742
 5709TIP3   OH241321   5.942   2.682   7.249 -0.1066 -0.3299 -0.0271
 5709TIP3    H141322   5.903   2.667   7.163  1.6610 -0.0164 -0.9445
 5709TIP3    H241323   5.968   2.774   7.247  0.6895 -0.5338  0.5062
 5710TIP3   OH241324   5.920   3.691   8.704 -0.0471 -0.2453  0.7695
 5710TIP3    H141325   5.851   3.718   8.764 -1.5278 -1.2497 -0.4209
 5710TIP3    H241326   5.950   3.773   8.664 -0.0516  0.2684  1.7964
 5711TIP3   OH241327   5.771   1.278   8.071  0.0253 -0.1540 -0.1718
 5711TIP3    H141328   5.753   1.198   8.120 -0.0136 -0.0283  0.0174
 5711TIP3    H241329   5.691   1.293   8.020  0.2226 -0.5173 -0.5981
 5712TIP3   OH241330   7.243   2.170   9.543  0.3287 -0.1033  0.4668
 5712TIP3    H141331   7.292   2.100   9.501 -0.1393 -0.0373 -0.2058
 5712TIP3    H241332   7.282   2.250   9.508 -0.8939 -0.0497 -0.8717
 5713TIP3   OH241333   6.634   0.397   8.235  0.8820  0.7586 -0.1873
 5713TIP3    H141334   6.590   0.370   8.316  0.3246 -1.0494 -1.0524
 5713TIP3    H241335   6.677   0.479   8.258  1.0768  0.0866  2.0590
 5714TIP3   OH241336   4.884   4.073   8.769 -0.1353 -0.2005 -0.0990
 5714TIP3    H141337   4.965   4.098   8.814  0.9410 -2.1922 -0.8343
 5714TIP3    H241338   4.913   4.027   8.691 -1.9823 -1.3716 -0.1497
 5715TIP3   OH241339   2.426   2.111   7.063  0.2711  0.2189 -0.1109
 5715TIP3    H141340   2.418   2.174   7.135 -1.7658 -0.0213 -0.0530
 5715TIP3    H241341   2.336   2.095   7.036  0.9322 -0.4916 -2.0481
 5716TIP3   OH241342   0.600   0.121   7.531 -0.3605 -0.2860 -0.3461
 5716TIP3    H141343   0.649   0.153   7.455 -0.6847  1.4001  0.1150
 5716TIP3    H241344   0.604   0.192   7.594 -1.6851 -0.9076  0.4925
 5717TIP3   OH241345   2.843   0.624   7.606  0.3675 -0.2194  0.3906
 5717TIP3    H141346   2.811   0.544   7.649  2.0537 -0.5523  1.1211
 5717TIP3    H241347   2.781   0.691   7.632 -0.5208 -1.0911  0.5968
 5718TIP3   OH241348   2.355   4.010   9.297 -0.2410  0.1064 -0.2383
 5718TIP3    H141349   2.426   3.965   9.344  1.0027  2.3525  0.1563
 5718TIP3    H241350   2.360   3.974   9.208 -0.7365 -2.0830  0.5641
 5719TIP3   OH241351   5.559   0.069   8.814  0.0164  0.5531 -0.0874
 5719TIP3    H141352   5.471   0.038   8.793  0.3275 -0.8000  0.4862
 5719TIP3    H241353   5.612  -0.011   8.822  1.2849  1.3263 -0.3423
 5720TIP3   OH241354   3.889   1.749   8.606  0.0011  0.2006  0.8054
 5720TIP3    H141355   3.802   1.729   8.639 -0.2725 -0.2860 -0.1705
 5720TIP3    H241356   3.910   1.677   8.547  1.2419  0.0948  1.3310
 5721TIP3   OH241357   2.921   6.127   9.947 -0.2676 -0.1424  0.0271
 5721TIP3    H141358   2.945   6.048   9.899  0.2405  0.3373 -0.5431
 5721TIP3    H241359   3.002   6.178   9.949 -0.8128  0.7620 -0.4082
 5722TIP3   OH241360   0.206   7.350   2.216 -0.0923  0.4263 -0.2156
 5722TIP3    H141361   0.173   7.345   2.127 -1.7019 -0.3290  0.3837
 5722TIP3    H241362   0.175   7.269   2.258  1.6036  0.2244  0.7154
 5723TIP3   OH241363   6.553   2.370   2.667 -0.5072  0.0691  0.6206
 5723TIP3    H141364   6.500   2.296   2.695 -0.1679 -0.1135  0.7870
 5723TIP3    H241365   6.490   2.438   2.644 -0.8872 -0.7636 -0.9375
 5724TIP3   OH241366   6.421   2.655   8.861  0.5123  0.1706  0.3629
 5724TIP3    H141367   6.368   2.714   8.808  0.1375  0.5274  1.1236
 5724TIP3    H241368   6.419   2.572   8.813 -1.9589 -0.2586  1.0772
 5725TIP3   OH241369   1.853   2.356   8.978 -0.2149  0.1214  1.1366
 5725TIP3    H141370   1.764   2.345   8.946  0.7691 -0.9502 -1.4420
 5725TIP3    H241371   1.882   2.268   9.001  1.4569 -0.2219 -1.8794
 5726TIP3   OH241372   2.539   6.186   9.814 -0.0132 -0.1764 -0.1767
 5726TIP3    H141373   2.498   6.184   9.728 -2.0666  2.2729  0.6394
 5726TIP3    H241374   2.573   6.097   9.826 -1.6747 -1.2252 -2.5363
 5727TIP3   OH241375   4.359   2.732   8.827  0.6241  0.5937  0.2416
 5727TIP3    H141376   4.302   2.716   8.902  0.9525  0.3793  0.4472
 5727TIP3    H241377   4.305   2.710   8.751 -0.1560  2.0732  0.3277
 5728TIP3   OH241378   7.368   4.322   9.423 -0.5923 -0.1830 -0.3249
 5728TIP3    H141379   7.382   4.234   9.387 -0.8617  0.0756 -1.0965
 5728TIP3    H241380   7.434   4.376   9.379 -1.2591  0.2401 -0.8329
 5729TIP3   OH241381   2.049   2.101   8.268  0.0094  0.6784 -0.1377
 5729TIP3    H141382   1.994   2.177   8.254  0.1454  0.4809 -1.9740
 5729TIP3    H241383   2.115   2.106   8.199 -2.0352 -2.9251 -2.6858
 5730TIP3   OH241384   1.853   1.645   1.842  0.0003 -0.0143  0.0758
 5730TIP3    H141385   1.757   1.636   1.840 -0.0129  0.2958 -0.9524
 5730TIP3    H241386   1.881   1.632   1.752  0.8036  1.2104  0.1219
 5731TIP3   OH241387   4.139   1.738   1.143  0.6295  0.4855  0.2355
 5731TIP3    H141388   4.150   1.689   1.061 -0.0139  0.6806  0.0297
 5731TIP3    H241389   4.118   1.827   1.114  1.5402  0.8288  0.6069
 5732TIP3   OH241390   1.226   1.874   9.752 -0.2914  0.3269  0.0650
 5732TIP3    H141391   1.173   1.836   9.682 -0.1439 -1.5990  0.9259
 5732TIP3    H241392   1.297   1.919   9.706 -0.0380 -1.1308 -1.0663
 5733TIP3   OH241393   0.713   2.646   1.971  0.2453  0.1314 -0.3455
 5733TIP3    H141394   0.649   2.617   2.036  1.2168 -1.8173 -0.1871
 5733TIP3    H241395   0.796   2.648   2.018  0.8857 -0.8567 -1.3889
 5734TIP3   OH241396   4.550   6.069   9.624  0.5399 -0.4540 -0.0945
 5734TIP3    H141397   4.502   6.090   9.543 -0.8381  1.2608  1.0938
 5734TIP3    H241398   4.497   6.001   9.665 -0.1870  0.4684  0.5490
 5735TIP3   OH241399   6.062   3.400   9.113 -0.7139  0.1040 -0.0131
 5735TIP3    H141400   6.088   3.480   9.068 -0.6417 -0.3546 -0.8021
 5735TIP3    H241401   6.135   3.339   9.099 -1.0378 -0.3050  0.0547
 5736TIP3   OH241402   3.257   5.304   9.669 -0.5134  0.2002 -0.6188
 5736TIP3    H141403   3.214   5.227   9.708 -0.2380  0.9235  1.2020
 5736TIP3    H241404   3.348   5.277   9.659 -0.6410 -0.0861 -1.0575
 5737TIP3   OH241405   5.157   0.679   0.467  0.2641 -0.3005 -0.3056
 5737TIP3    H141406   5.074   0.688   0.515  0.3100  1.0788 -0.4597
 5737TIP3    H241407   5.224   0.692   0.534  0.3456 -0.2252 -0.4019
 5738TIP3   OH241408   1.425   3.103   7.530 -0.5992 -0.5320  0.1008
 5738TIP3    H141409   1.485   3.169   7.565 -1.1486  0.7167 -1.2094
 5738TIP3    H241410   1.401   3.050   7.606  0.7197  0.0788  0.9802
 5739TIP3   OH241411   6.254   0.745   6.836 -0.1751  0.4788  0.3072
 5739TIP3    H141412   6.282   0.780   6.751  0.2233  0.6558  0.5072
 5739TIP3    H241413   6.202   0.815   6.874 -1.3527 -0.0536 -0.2908
 5740TIP3   OH241414   3.537   1.168   9.440  0.1334  0.0852 -0.5490
 5740TIP3    H141415   3.445   1.171   9.415 -0.2133  0.0135  0.6368
 5740TIP3    H241416   3.573   1.251   9.410 -0.8967  1.1560  1.0019
 5741TIP3   OH241417   2.488   3.648   8.357 -0.1560 -0.2511  0.1615
 5741TIP3    H141418   2.452   3.565   8.388 -0.6562  0.5479  1.8291
 5741TIP3    H241419   2.413   3.708   8.358  0.6554  0.7844  1.1519
 5742TIP3   OH241420   4.418   5.208   9.710 -0.7728 -0.2305  0.2406
 5742TIP3    H141421   4.405   5.128   9.660  0.7699 -0.8475  0.7526
 5742TIP3    H241422   4.476   5.182   9.782  3.8816  2.1443 -2.1651
 5743TIP3   OH241423   5.855   7.352   7.052  0.3529  0.4123 -0.2220
 5743TIP3    H141424   5.927   7.289   7.041 -1.7771 -2.3689  0.4120
 5743TIP3    H241425   5.881   7.406   7.126  1.8227 -0.5224 -0.0176
 5744TIP3   OH241426   3.972   6.782   0.286 -0.9126 -0.1364 -0.0661
 5744TIP3    H141427   3.886   6.743   0.307 -1.0494 -0.2418 -0.7939
 5744TIP3    H241428   3.985   6.761   0.194 -0.1883  0.0571 -0.0093
 5745TIP3   OH241429   4.529   2.112   8.075 -0.2826  0.0361 -0.3114
 5745TIP3    H141430   4.449   2.142   8.032  0.9647  1.7726 -1.5480
 5745TIP3    H241431   4.544   2.175   8.145  0.1360 -0.1043 -0.2691
 5746TIP3   OH241432   2.436   2.487   8.598  0.1229 -0.4644 -0.2402
 5746TIP3    H141433   2.386   2.568   8.609 -0.0570 -0.5813 -0.1967
 5746TIP3    H241434   2.374   2.417   8.619 -0.6903 -0.8108 -3.3729
 5747TIP3   OH241435   6.945   2.739   0.516 -0.2372 -0.6881  0.4209
 5747TIP3    H141436   7.031   2.767   0.547 -0.3563  0.5302 -0.2816
 5747TIP3    H241437   6.883   2.786   0.571 -0.4481  1.1656 -1.2971
 5748TIP3   OH241438   4.348   2.490   6.989  0.1820  0.2182  0.1224
 5748TIP3    H141439   4.264   2.514   7.029  1.6566  1.1550  2.9365
 5748TIP3    H241440   4.359   2.554   6.918 -1.4968 -0.0337 -0.4297
 5749TIP3   OH241441   5.198   6.084   9.727  0.3919 -0.1773  0.1360
 5749TIP3    H141442   5.207   6.160   9.785  1.4071 -1.0802  1.2222
 5749TIP3    H241443   5.130   6.031   9.769  1.9443 -1.4003  1.2001
 5750TIP3   OH241444   6.071   6.350   9.530 -0.5007  0.0721 -0.2088
 5750TIP3    H141445   6.023   6.414   9.477  0.6847 -1.4390 -3.4191
 5750TIP3    H241446   6.003   6.299   9.574 -1.6363  0.7559 -1.1092
 5751TIP3   OH241447   5.324   7.197   7.748  0.1384  0.1949  0.1393
 5751TIP3    H141448   5.239   7.240   7.735 -0.3504 -0.3095  1.5555
 5751TIP3    H241449   5.330   7.134   7.676 -0.0319  1.2084 -0.7930
 5752TIP3   OH241450   5.160   7.324   1.768 -0.2777  0.3805 -0.4039
 5752TIP3    H141451   5.213   7.343   1.690 -0.3061  2.1006 -0.0388
 5752TIP3    H241452   5.099   7.257   1.739 -0.5310  1.2415 -1.9923
 5753TIP3   OH241453   6.780   2.182   9.326  0.3770 -0.3930  0.1650
 5753TIP3    H141454   6.731   2.262   9.305 -0.4787 -1.1066 -0.6128
 5753TIP3    H241455   6.726   2.111   9.291  0.7123 -1.3847  1.5767
 5754TIP3   OH241456   3.692   1.096   8.825 -0.1384 -0.0645 -0.3786
 5754TIP3    H141457   3.713   1.013   8.867  0.6131 -0.4067 -1.3914
 5754TIP3    H241458   3.613   1.127   8.871  1.5528  0.4319  2.4153
 5755TIP3   OH241459   5.994   2.947   7.322 -0.6424 -0.2000  0.1161
 5755TIP3    H141460   5.952   2.998   7.391 -0.1188 -1.4650  1.4234
 5755TIP3    H241461   6.084   2.935   7.352 -0.3287 -0.5451 -0.9218
 5756TIP3   OH241462   2.634   3.857   8.290  0.0435 -0.3460  0.3230
 5756TIP3    H141463   2.622   3.928   8.353  1.6658 -0.4976  0.8579
 5756TIP3    H241464   2.584   3.784   8.326 -1.5053  0.4246 -0.1485
 5757TIP3   OH241465   6.766   0.634   0.607 -0.2111  0.1318 -0.4133
 5757TIP3    H141466   6.782   0.566   0.542  0.1685  0.8498 -1.0855
 5757TIP3    H241467   6.812   0.604   0.685 -0.1594 -0.4450 -0.6629
 5758TIP3   OH241468   3.310   0.791   6.977 -0.7021 -0.0366  0.4226
 5758TIP3    H141469   3.317   0.844   6.897 -3.1212  0.4384  0.4351
 5758TIP3    H241470   3.249   0.721   6.954  0.5251 -1.4001  1.1579
 5759TIP3   OH241471   5.558   0.738   8.450  0.2054 -0.4301  0.2382
 5759TIP3    H141472   5.570   0.655   8.496 -0.1760 -1.1450 -0.9167
 5759TIP3    H241473   5.508   0.715   8.371 -0.0816  0.9261  0.0049
 5760TIP3   OH241474   1.600   5.530   2.400  0.2647 -0.0603  0.2892
 5760TIP3    H141475   1.582   5.530   2.493  0.1200  1.9373  0.3135
 5760TIP3    H241476   1.663   5.602   2.388 -0.7315  0.6066 -1.2906
 5761TIP3   OH241477   5.520   3.419   8.398  0.4060 -0.3692  0.4523
 5761TIP3    H141478   5.527   3.352   8.331 -1.6272 -0.6775  0.4752
 5761TIP3    H241479   5.585   3.395   8.464  2.9054  0.3194 -1.6375
 5762TIP3   OH241480   7.627   0.028   8.911  0.2978  0.5206  0.3440
 5762TIP3    H141481   7.689   0.096   8.938 -1.0706  1.3480  1.5163
 5762TIP3    H241482   7.542   0.073   8.908 -0.2403 -0.4950 -1.5477
 5763TIP3   OH241483   0.142   3.488   6.424  0.2623 -0.0973 -0.4047
 5763TIP3    H141484   0.203   3.496   6.497  1.2197 -0.0797 -1.1957
 5763TIP3    H241485   0.100   3.574   6.418 -0.1261 -0.2216  0.3695
 5764TIP3   OH241486   7.386   0.488   2.025 -0.1670  0.7414  0.1196
 5764TIP3    H141487   7.349   0.457   1.942  1.0240  0.2792 -0.2529
 5764TIP3    H241488   7.382   0.583   2.018 -1.6616  0.7148  0.2747
 5765TIP3   OH241489   4.182   4.259   9.532  0.0411 -0.1976 -0.2749
 5765TIP3    H141490   4.189   4.297   9.444  0.7101 -2.8563 -1.4667
 5765TIP3    H241491   4.102   4.207   9.529 -1.1537  1.4244  1.4937
 5766TIP3   OH241492   1.277   2.319   9.992  0.2701  0.2934 -0.3603
 5766TIP3    H141493   1.328   2.316  10.074  0.5564 -0.3832 -0.5487
 5766TIP3    H241494   1.291   2.407   9.958 -0.8095  0.9935  0.9085
 5767TIP3   OH241495   4.339   0.078   1.059  0.1149  0.0984  0.4004
 5767TIP3    H141496   4.364   0.021   1.132  1.0823  0.1047  0.0926
 5767TIP3    H241497   4.405   0.147   1.059  1.1842 -0.8409 -1.5333
 5768TIP3   OH241498   7.335   1.677   0.296  0.4144  0.0126 -0.0594
 5768TIP3    H141499   7.354   1.692   0.389  0.3346  1.7313 -0.2894
 5768TIP3    H241500   7.302   1.588   0.293 -0.1084  0.1035  1.6505
 5769TIP3   OH241501   1.665   0.550   7.522 -0.0051  0.4965 -0.0576
 5769TIP3    H141502   1.673   0.464   7.563  2.1323  0.5883 -0.1536
 5769TIP3    H241503   1.684   0.612   7.592  1.2022  0.7476 -0.5720
 5770TIP3   OH241504   1.727   7.244   2.264  0.0895 -0.0862  0.2708
 5770TIP3    H141505   1.724   7.154   2.297  1.0854 -0.4290 -0.5149
 5770TIP3    H241506   1.643   7.282   2.291 -0.6147 -1.4339  0.0881
 5771TIP3   OH241507   6.323   3.179   0.138 -0.0818  0.3467 -0.4543
 5771TIP3    H141508   6.340   3.228   0.218 -0.6146  0.9002 -0.6731
 5771TIP3    H241509   6.409   3.166   0.098  0.4415 -1.5167  1.0995
 5772TIP3   OH241510   6.914   3.741   9.122  0.4810  0.1925 -0.4914
 5772TIP3    H141511   6.936   3.648   9.120  1.3670  0.3239 -4.0771
 5772TIP3    H241512   6.994   3.786   9.094 -0.1318  1.9867  0.4509
 5773TIP3   OH241513   1.694   4.730   0.167  0.1099 -0.0321 -0.6791
 5773TIP3    H141514   1.642   4.728   0.087 -1.0222 -2.0449  0.0227
 5773TIP3    H241515   1.747   4.650   0.163 -1.0864 -0.9840  1.2352
 5774TIP3   OH241516   1.559   3.379   2.786 -0.3309 -0.6904 -0.1137
 5774TIP3    H141517   1.510   3.332   2.718 -1.8201  0.2544  0.2681
 5774TIP3    H241518   1.538   3.332   2.867 -1.6334  0.4274  0.2335
 5775TIP3   OH241519   1.391   2.637   0.188  0.1712  0.4553 -0.4936
 5775TIP3    H141520   1.431   2.563   0.143 -0.8685 -0.5514  0.1923
 5775TIP3    H241521   1.313   2.657   0.137 -0.9603 -0.6281  0.7564
 5776TIP3   OH241522   1.608   6.923   9.122  0.0652 -0.2618 -0.4054
 5776TIP3    H141523   1.604   6.965   9.036 -0.2293  2.7931  0.9610
 5776TIP3    H241524   1.516   6.905   9.144 -0.1482  1.4830  0.3185
 5777TIP3   OH241525   7.458   5.117   1.935 -0.1635 -0.0536 -0.5059
 5777TIP3    H141526   7.455   5.207   1.902 -2.7546 -0.3892 -1.4365
 5777TIP3    H241527   7.426   5.123   2.025 -2.4232 -0.1897 -1.2227
 5778TIP3   OH241528   6.509   6.890   1.962 -0.3181 -0.1826 -0.3804
 5778TIP3    H141529   6.514   6.918   1.871  0.0146  0.9676 -0.0270
 5778TIP3    H241530   6.466   6.804   1.958 -0.9433  0.1551 -1.5533
 5779TIP3   OH241531   6.648   7.355   8.169  0.1334  0.1716  0.4237
 5779TIP3    H141532   6.610   7.276   8.130 -0.6520  0.5534  0.4155
 5779TIP3    H241533   6.619   7.426   8.112  0.5283  0.5168  0.6497
 5780TIP3   OH241534   6.378   7.104   9.522  0.1689  0.4687  0.2411
 5780TIP3    H141535   6.330   7.176   9.562  0.0202 -0.0851  1.0732
 5780TIP3    H241536   6.404   7.138   9.436 -2.8752  0.3605 -0.8553
 5781TIP3   OH241537   7.368   4.487   8.909  0.0605  0.4213 -0.1997
 5781TIP3    H141538   7.396   4.575   8.884 -1.1246  0.7183 -0.5312
 5781TIP3    H241539   7.399   4.431   8.839  2.4031  0.2597  0.8654
 5782TIP3   OH241540   7.324   2.232   7.458 -0.1191 -0.0022 -0.1283
 5782TIP3    H141541   7.395   2.173   7.485 -1.5076 -2.0811 -0.7830
 5782TIP3    H241542   7.318   2.296   7.530  1.8206 -0.2776  0.3383
 5783TIP3   OH241543   0.788   2.311   8.400  0.5409 -0.0523  0.1325
 5783TIP3    H141544   0.735   2.322   8.478 -0.6599  1.6636 -0.8575
 5783TIP3    H241545   0.745   2.240   8.351  1.2369 -1.0579  0.9405
 5784TIP3   OH241546   5.779   3.872   8.212  0.1051 -0.4686  0.7369
 5784TIP3    H141547   5.865   3.835   8.232  1.5074  1.7743 -0.6622
 5784TIP3    H241548   5.745   3.903   8.295  0.7126 -1.2250  1.2776
 5785TIP3   OH241549   6.467   4.471   9.170 -0.6756  0.1163  0.1325
 5785TIP3    H141550   6.492   4.538   9.234  0.7779 -0.0325 -0.2584
 5785TIP3    H241551   6.452   4.520   9.089  2.6702 -0.1666 -0.7962
 5786TIP3   OH241552   2.307   7.215   7.509 -0.2866 -0.1328  0.0478
 5786TIP3    H141553   2.292   7.152   7.438  1.7841  1.9896 -2.4603
 5786TIP3    H241554   2.388   7.185   7.551  0.1225  0.2535 -0.4583
 5787TIP3   OH241555   1.742   7.494   8.265  0.3902 -0.0058  1.0965
 5787TIP3    H141556   1.686   7.569   8.287 -1.1880 -0.6848 -0.3394
 5787TIP3    H241557   1.770   7.510   8.175  0.7375 -0.7084  1.0717
 5788TIP3   OH241558   2.849   4.384   0.668 -0.2686 -0.3662 -0.5177
 5788TIP3    H141559   2.791   4.460   0.677 -0.4729 -0.4052 -1.4702
 5788TIP3    H241560   2.802   4.324   0.611 -0.1243 -1.2390  0.2656
 5789TIP3   OH241561   0.853   1.391   7.532  0.5195  0.1362  0.5665
 5789TIP3    H141562   0.893   1.309   7.559 -2.2099 -1.3464  0.4586
 5789TIP3    H241563   0.861   1.391   7.436  0.4723 -0.0413  0.5616
 5790TIP3   OH241564   5.212   2.372   0.596 -0.6809 -0.7751 -0.0802
 5790TIP3    H141565   5.305   2.393   0.605 -0.2176 -2.3022 -0.9258
 5790TIP3    H241566   5.168   2.457   0.604  0.6618 -0.1640  1.5869
 5791TIP3   OH241567   5.810   3.428   8.196  0.3420 -0.4637  0.2430
 5791TIP3    H141568   5.741   3.489   8.170 -1.2024 -2.4569 -0.5484
 5791TIP3    H241569   5.852   3.470   8.272 -1.6922  0.8469  0.7153
 5792TIP3   OH241570   7.403   6.077   8.960  0.0118  0.3621  0.1052
 5792TIP3    H141571   7.402   6.163   9.003 -0.8018  0.3628  0.0883
 5792TIP3    H241572   7.395   6.015   9.032  1.3119  0.2551  0.1888
 5793TIP3   OH241573   1.322   4.037   9.460 -0.0198  0.5257 -0.1597
 5793TIP3    H141574   1.281   4.063   9.377 -0.5610 -1.1249 -0.4581
 5793TIP3    H241575   1.398   3.984   9.433 -1.4758 -1.9538  0.3184
 5794TIP3   OH241576   0.093   6.607   8.638  0.1396 -0.2505 -0.0287
 5794TIP3    H141577   0.086   6.660   8.718 -1.6166  1.0779 -0.9935
 5794TIP3    H241578   0.111   6.519   8.670 -0.4998  0.2445  1.8422
 5795TIP3   OH241579   2.842   2.497   0.627  0.1584 -0.3989 -0.2964
 5795TIP3    H141580   2.792   2.468   0.703  0.5190  1.2233  0.5845
 5795TIP3    H241581   2.800   2.452   0.553  0.0481 -2.2997  0.8624
 5796TIP3   OH241582   5.407   7.606   7.832  0.2645  0.1875 -0.0715
 5796TIP3    H141583   5.323   7.647   7.813 -0.6950 -2.4150 -2.1359
 5796TIP3    H241584   5.389   7.544   7.903  0.3004 -0.6404 -0.7619
 5797TIP3   OH241585   0.409   0.378   7.481 -0.3888  0.1784 -0.5682
 5797TIP3    H141586   0.460   0.327   7.418  0.1869  0.8300 -0.6351
 5797TIP3    H241587   0.443   0.351   7.566  1.7044  2.2242 -0.6487
 5798TIP3   OH241588   6.985   5.620   7.759 -0.3118  0.5056  0.4791
 5798TIP3    H141589   7.052   5.588   7.820 -1.2910  0.0720  1.3596
 5798TIP3    H241590   6.939   5.688   7.808 -0.7838  0.5018  0.0394
 5799TIP3   OH241591   3.417   7.319   9.414  0.2699 -0.2991 -0.5807
 5799TIP3    H141592   3.340   7.274   9.449 -0.2259  1.7620  1.1809
 5799TIP3    H241593   3.389   7.351   9.328 -0.6114 -0.1844 -0.2635
 5800TIP3   OH241594   2.441   7.031   9.614  0.6149 -0.2578 -0.2020
 5800TIP3    H141595   2.500   7.104   9.633  0.0002  0.8755 -2.3892
 5800TIP3    H241596   2.496   6.969   9.566  0.8932 -0.8471  0.8430
 5801TIP3   OH241597   2.610   3.648   3.135 -0.2484 -0.3584 -0.1350
 5801TIP3    H141598   2.637   3.615   3.049 -0.0372  0.3503 -0.3455
 5801TIP3    H241599   2.516   3.664   3.126  0.1880  2.1099 -1.0625
 5802TIP3   OH241600   1.893   1.060   1.399 -0.3949 -0.5593  0.4418
 5802TIP3    H141601   1.913   0.978   1.445  2.4848 -0.1522  0.0606
 5802TIP3    H241602   1.939   1.127   1.448  1.1834  0.1510 -1.8388
 5803TIP3   OH241603   6.720   5.514   8.661 -0.1362 -0.1673  0.4189
 5803TIP3    H141604   6.630   5.487   8.681 -0.3778  0.8495  0.7277
 5803TIP3    H241605   6.764   5.432   8.636 -0.5643 -1.0411  2.3443
 5804TIP3   OH241606   7.456   5.891   9.940  0.4890  0.0972 -0.2409
 5804TIP3    H141607   7.484   5.982   9.941  1.6356 -0.2446  0.4847
 5804TIP3    H241608   7.458   5.864  10.032  1.6074 -1.0639 -0.5663
 5805TIP3   OH241609   4.274   2.178   7.998 -0.0663  0.1048 -0.1137
 5805TIP3    H141610   4.199   2.193   8.056  0.1977 -0.0980  0.2842
 5805TIP3    H241611   4.243   2.112   7.936 -0.4872  0.6206 -0.4767
 5806TIP3   OH241612   2.214   4.945   8.062 -0.1823  0.1925 -0.3899
 5806TIP3    H141613   2.279   4.894   8.111 -1.5562 -0.8710  0.4032
 5806TIP3    H241614   2.186   4.887   7.991  1.0230  1.3366 -1.8785
 5807TIP3   OH241615   0.047   6.792   9.863 -0.8631  0.2703 -0.1074
 5807TIP3    H141616   0.142   6.778   9.868 -1.0381 -0.6544  1.2552
 5807TIP3    H241617   0.036   6.884   9.887 -0.4264 -0.1593  1.9462
 5808TIP3   OH241618   6.791   1.565   2.790  0.1445 -0.1427  0.4119
 5808TIP3    H141619   6.764   1.621   2.717  1.2740  0.9240  0.7738
 5808TIP3    H241620   6.711   1.523   2.819 -0.3798 -0.4089 -1.2873
 5809TIP3   OH241621   3.290   6.803   3.064 -0.4833  0.3926  0.2812
 5809TIP3    H141622   3.250   6.835   2.983 -0.7953 -0.6799 -0.0122
 5809TIP3    H241623   3.356   6.868   3.086 -1.1787  1.2796 -0.2074
 5810TIP3   OH241624   4.689   2.892   8.511 -0.2846 -0.0365  0.2959
 5810TIP3    H141625   4.636   2.898   8.432 -0.7907  1.4339  0.7076
 5810TIP3    H241626   4.704   2.798   8.523 -0.4415 -0.3044 -1.3652
 5811TIP3   OH241627   5.168   2.116   9.729 -0.3409 -0.2030 -0.9510
 5811TIP3    H141628   5.253   2.107   9.771  0.6904  0.6867 -2.7466
 5811TIP3    H241629   5.105   2.105   9.800  1.2383 -1.3897  0.3300
 5812TIP3   OH241630   3.704   0.324   1.263  0.2251  0.0058 -0.0002
 5812TIP3    H141631   3.664   0.374   1.333 -0.1673 -0.3751  0.0482
 5812TIP3    H241632   3.793   0.306   1.294  1.3073  2.8808 -1.0856
 5813TIP3   OH241633   1.410   0.721   7.842 -0.3700  0.4117 -0.3862
 5813TIP3    H141634   1.355   0.798   7.829  0.2979  0.8950 -0.3366
 5813TIP3    H241635   1.494   0.744   7.803  0.6919  0.7189  1.9700
 5814TIP3   OH241636   3.490   4.236   9.294 -0.0098  0.3500  0.0657
 5814TIP3    H141637   3.453   4.212   9.380  0.4095  1.0811  0.4551
 5814TIP3    H241638   3.419   4.282   9.250 -0.2010  0.0441  0.0535
 5815TIP3   OH241639   6.249   0.188   9.333  0.4515 -0.1641  0.2318
 5815TIP3    H141640   6.229   0.095   9.321  2.2086 -0.5125 -0.2286
 5815TIP3    H241641   6.181   0.234   9.285 -0.9350 -1.1659  1.1648
 5816TIP3   OH241642   3.072   5.716   1.821  0.1700 -0.3065  0.1079
 5816TIP3    H141643   3.042   5.773   1.892  0.0020 -1.1833  0.7522
 5816TIP3    H241644   2.992   5.682   1.783  0.2039  1.1121 -1.3310
 5817TIP3   OH241645   6.061   6.382   7.708 -0.5135 -0.0093 -0.1372
 5817TIP3    H141646   6.031   6.452   7.767  0.8163 -0.5524  1.2501
 5817TIP3    H241647   6.118   6.426   7.646  1.3708  0.0246  1.5207
 5818TIP3   OH241648   0.182   5.149   1.788 -0.5565  1.2520 -0.5067
 5818TIP3    H141649   0.137   5.173   1.869  0.9415 -3.7842  2.2402
 5818TIP3    H241650   0.116   5.158   1.720 -4.0732 -0.3765  2.3488
 5819TIP3   OH241651   1.466   1.594   7.516  0.1349  0.2983  0.2133
 5819TIP3    H141652   1.547   1.610   7.467  0.7109 -0.5718  0.8720
 5819TIP3    H241653   1.420   1.679   7.514  0.4409  0.4605 -1.2570
 5820TIP3   OH241654   1.330   6.797   1.430 -0.2267 -0.6184  0.5902
 5820TIP3    H141655   1.240   6.810   1.461  0.1328 -0.3267  1.5684
 5820TIP3    H241656   1.365   6.728   1.487  0.3131 -0.3984  0.5343
 5821TIP3   OH241657   2.293   2.787   9.901  0.6811  0.2089 -0.2434
 5821TIP3    H141658   2.373   2.741   9.876 -0.1197 -0.7032 -1.2041
 5821TIP3    H241659   2.316   2.831   9.983  1.3906 -2.2522  0.9938
 5822TIP3   OH241660   0.285   5.973   1.595  0.2465  0.3444  0.0787
 5822TIP3    H141661   0.268   6.067   1.592  1.5626  0.5917 -0.2063
 5822TIP3    H241662   0.212   5.937   1.645  0.4423  1.6894  1.3936
 5823TIP3   OH241663   4.643   5.245   0.013  0.6664  0.2728  0.3572
 5823TIP3    H141664   4.592   5.276   0.088 -0.1607  0.3999 -0.2431
 5823TIP3    H241665   4.626   5.151   0.010 -1.1738  0.5965 -1.0173
 5824TIP3   OH241666   1.155   0.228   0.504  0.2307  0.0713  0.4825
 5824TIP3    H141667   1.226   0.202   0.564  1.4649  2.6750  0.3170
 5824TIP3    H241668   1.113   0.302   0.548 -0.3518  0.5502 -0.8250
 5825TIP3   OH241669   5.500   4.006   9.167  0.0963  0.1960  0.3252
 5825TIP3    H141670   5.539   4.094   9.167 -1.4359  0.9040  0.0512
 5825TIP3    H241671   5.522   3.971   9.253 -2.9495  2.6069  2.3121
 5826TIP3   OH241672   0.735   5.250   1.667 -0.9712 -0.5019 -0.6944
 5826TIP3    H141673   0.665   5.227   1.728 -0.8613 -0.8079 -0.6812
 5826TIP3    H241674   0.792   5.173   1.666 -0.4925 -0.1554 -0.5034
 5827TIP3   OH241675   1.185   0.362   1.861 -0.6810  0.0699 -0.2988
 5827TIP3    H141676   1.164   0.407   1.943  2.6595  0.1518  0.6737
 5827TIP3    H241677   1.210   0.432   1.801 -0.7393 -0.1415 -0.5697
 5828TIP3   OH241678   5.044   4.462   8.897  0.0901 -0.0538 -0.4521
 5828TIP3    H141679   5.084   4.521   8.961  3.7189  0.0238 -2.4923
 5828TIP3    H241680   5.009   4.520   8.830 -0.2970 -0.1619 -0.3409
 5829TIP3   OH241681   7.625   2.400   8.622  0.3578  0.2246 -0.5947
 5829TIP3    H141682   7.695   2.382   8.559  1.8616 -1.0235  1.3137
 5829TIP3    H241683   7.544   2.384   8.573  1.4488 -0.3798 -2.2831
 5830TIP3   OH241684   3.803   0.906   8.254 -0.6492 -0.4952  0.2371
 5830TIP3    H141685   3.890   0.901   8.213 -0.2121  1.0441  0.8801
 5830TIP3    H241686   3.768   0.818   8.247 -0.0091 -0.6276 -2.1271
 5831TIP3   OH241687   7.032   1.612   9.033  0.0359 -0.0924  0.0290
 5831TIP3    H141688   7.079   1.607   9.116  0.6992  0.3926 -0.3124
 5831TIP3    H241689   6.962   1.547   9.042  0.3781 -0.3747  0.7858
 5832TIP3   OH241690   1.645   6.815   0.960  0.1533  0.3046 -0.1178
 5832TIP3    H141691   1.567   6.869   0.969  0.6694  0.8267  1.6368
 5832TIP3    H241692   1.699   6.860   0.895 -0.6827  0.3112 -0.8215
 5833TIP3   OH241693   6.019   6.561   1.582 -0.0267 -0.6045 -0.2791
 5833TIP3    H141694   6.097   6.556   1.527  0.0287  0.2017 -0.2819
 5833TIP3    H241695   6.031   6.492   1.647  1.1901  0.1673  0.3492
 5834TIP3   OH241696   3.332   5.390   2.165 -0.1864  0.2674 -0.7585
 5834TIP3    H141697   3.359   5.347   2.246 -0.0670 -0.1028 -0.9957
 5834TIP3    H241698   3.339   5.484   2.185  0.0106  0.1787 -0.3986
 5835TIP3   OH241699   1.755   2.431   8.491 -0.4275 -0.3055 -0.5863
 5835TIP3    H141700   1.812   2.362   8.526  0.9723 -0.0593 -2.2549
 5835TIP3    H241701   1.668   2.410   8.526  0.2384 -2.0616  0.1434
 5836TIP3   OH241702   0.616   6.689   3.083 -0.4704  0.2733  0.0190
 5836TIP3    H141703   0.599   6.632   3.159 -4.5908  0.1995 -0.7649
 5836TIP3    H241704   0.617   6.630   3.008 -1.6870  0.8717 -0.4899
 5837TIP3   OH241705   2.949   7.496   7.409  0.2258  0.2294 -0.1024
 5837TIP3    H141706   2.981   7.559   7.345  0.8425  0.5309  0.4829
 5837TIP3    H241707   2.873   7.455   7.367  0.7144  0.2991 -1.0775
 5838TIP3   OH241708   7.116   3.231   9.302  0.0877 -0.1980  0.0331
 5838TIP3    H141709   7.121   3.284   9.382 -0.7634 -0.5612  0.3339
 5838TIP3    H241710   7.062   3.283   9.243  0.2975 -0.1622 -0.1285
 5839TIP3   OH241711   6.733   3.267   9.439  0.3632 -0.0958 -0.0373
 5839TIP3    H141712   6.661   3.231   9.491  1.1078 -1.5294  0.0440
 5839TIP3    H241713   6.721   3.230   9.352  0.8587 -0.1801 -0.0773
 5840TIP3   OH241714   7.048   5.488   1.114  0.0332 -0.3394 -0.0886
 5840TIP3    H141715   7.102   5.486   1.034 -0.9264 -2.4049 -0.7521
 5840TIP3    H241716   7.095   5.432   1.176  0.5464  0.9047  0.6967
 5841TIP3   OH241717   0.432   2.453   2.564 -0.3563 -0.1020 -0.2609
 5841TIP3    H141718   0.452   2.374   2.514 -1.0067 -1.1629  1.0843
 5841TIP3    H241719   0.349   2.483   2.529 -1.3112 -1.4041  0.7770
 5842TIP3   OH241720   5.212   6.536   0.969  0.3532 -0.3195 -0.0495
 5842TIP3    H141721   5.165   6.548   0.886  1.1076 -0.0941 -0.4495
 5842TIP3    H241722   5.266   6.458   0.955  0.8614  0.0068  0.0458
 5843TIP3   OH241723   2.218   0.360   8.259  0.0728  0.1033  0.0132
 5843TIP3    H141724   2.271   0.370   8.338  0.2009 -0.2809 -0.0244
 5843TIP3    H241725   2.269   0.303   8.202  1.2456  2.4981 -1.4696
 5844TIP3   OH241726   6.749   7.312   1.495 -0.0084  0.5030  0.1529
 5844TIP3    H141727   6.841   7.294   1.472  0.4021  1.0712  1.2502
 5844TIP3    H241728   6.701   7.235   1.465  0.6336  0.7085 -1.5163
 5845TIP3   OH241729   6.292   1.126   2.113  0.3538  0.2793 -0.2517
 5845TIP3    H141730   6.361   1.069   2.145 -0.6637  0.0168  1.6172
 5845TIP3    H241731   6.313   1.212   2.150  0.0150  0.3284 -0.1668
 5846TIP3   OH241732   0.126   1.339   2.426  0.0550  0.0868 -0.7564
 5846TIP3    H141733   0.215   1.321   2.455 -0.2371  0.9335  0.7890
 5846TIP3    H241734   0.117   1.434   2.432 -1.6037 -0.1185  1.3227
 5847TIP3   OH241735   3.440   2.031   0.744 -0.2613 -0.6889 -0.1597
 5847TIP3    H141736   3.508   2.050   0.809 -1.0727 -0.2421  0.5835
 5847TIP3    H241737   3.488   1.994   0.670  0.9253  0.6248 -0.0982
 5848TIP3   OH241738   4.481   5.376   8.413 -0.1021 -0.8389 -0.0694
 5848TIP3    H141739   4.528   5.337   8.340  0.2050 -0.3169 -0.1533
 5848TIP3    H241740   4.388   5.369   8.389  0.0390  0.3770 -1.0493
 5849TIP3   OH241741   5.386   2.777   8.051 -0.2238 -0.4571 -0.4901
 5849TIP3    H141742   5.442   2.701   8.036 -0.8709 -0.9261 -0.5783
 5849TIP3    H241743   5.380   2.784   8.147 -2.2285 -2.1074 -0.4287
 5850TIP3   OH241744   4.986   0.391   1.876  0.2315 -0.3102  0.2087
 5850TIP3    H141745   5.064   0.422   1.923 -0.2681 -0.6017  1.2657
 5850TIP3    H241746   5.016   0.378   1.786  1.3309 -0.1321  0.5289
 5851TIP3   OH241747   7.465   0.084   1.122 -0.1950  0.2854 -0.0847
 5851TIP3    H141748   7.370   0.090   1.123 -0.2712 -0.2399  1.9875
 5851TIP3    H241749   7.484   0.015   1.059 -1.4197 -1.5887  1.4552
 5852TIP3   OH241750   4.255   0.204   9.971 -0.3278 -0.1682  0.3229
 5852TIP3    H141751   4.253   0.160   9.886 -0.5548  0.8322 -0.2132
 5852TIP3    H241752   4.269   0.296   9.949 -2.0388  0.3567  1.2493
 5853TIP3   OH241753   6.660   1.978   2.635 -0.2106  0.3860 -0.2320
 5853TIP3    H141754   6.586   2.038   2.647 -0.4239  0.2794 -0.9748
 5853TIP3    H241755   6.737   2.029   2.660 -0.2496  1.4054 -2.0391
 5854TIP3   OH241756   7.424   4.041   9.394 -0.0926 -0.5570 -0.0765
 5854TIP3    H141757   7.489   4.055   9.325  0.7698 -1.0539  0.6152
 5854TIP3    H241758   7.372   3.967   9.363 -1.0411  0.4991 -1.1248
 5855TIP3   OH241759   2.031   5.299   8.955  0.5132  0.5634 -0.5582
 5855TIP3    H141760   2.013   5.225   8.897  1.9503 -0.5574  0.3491
 5855TIP3    H241761   2.006   5.268   9.042  0.6879  1.3337 -0.2254
 5856TIP3   OH241762   5.909   6.897   2.300  0.3258  0.0978  0.6075
 5856TIP3    H141763   5.862   6.938   2.227  0.1088 -0.5618  0.3755
 5856TIP3    H241764   5.992   6.945   2.305 -0.3781  1.3194  1.0539
 5857TIP3   OH241765   2.511   4.045   2.263 -0.5422 -0.0319  0.3356
 5857TIP3    H141766   2.508   4.087   2.177 -1.2508  1.2870  0.9643
 5857TIP3    H241767   2.472   4.110   2.322  0.2234 -0.7760  1.7045
 5858TIP3   OH241768   2.879   7.225   8.953 -0.3511  0.1896  0.2059
 5858TIP3    H141769   2.798   7.258   8.993 -0.5034 -0.2145  0.2298
 5858TIP3    H241770   2.872   7.252   8.861 -0.0582  1.0083  0.4169
 5859TIP3   OH241771   1.479   2.307   2.237 -0.1469 -0.1789  0.0998
 5859TIP3    H141772   1.511   2.396   2.225 -0.2198 -0.0163  1.0344
 5859TIP3    H241773   1.412   2.314   2.306  0.7679 -1.1423  1.1370
 5860TIP3   OH241774   1.800   2.032   7.411 -0.0834  0.2212  0.0438
 5860TIP3    H141775   1.840   2.108   7.369  0.9461 -0.3163  0.0315
 5860TIP3    H241776   1.853   2.016   7.489  0.5159 -1.2289 -0.6116
 5861TIP3   OH241777   1.167   3.656   0.936  0.6251  0.1083 -0.1945
 5861TIP3    H141778   1.195   3.681   0.848 -3.0261  0.5208 -1.4473
 5861TIP3    H241779   1.191   3.731   0.991 -1.2027  2.0943 -1.9000
 5862TIP3   OH241780   3.447   4.366   2.178 -0.4028  0.2896  1.0007
 5862TIP3    H141781   3.511   4.327   2.119  0.2780  1.8601  0.6676
 5862TIP3    H241782   3.486   4.358   2.265  0.1343  0.9980  0.8303
 5863TIP3   OH241783   6.819   7.182   1.081 -0.4532  0.1333  0.1902
 5863TIP3    H141784   6.772   7.099   1.083 -0.8557  0.3698  1.5315
 5863TIP3    H241785   6.857   7.186   0.993 -0.2795 -1.5433  0.1477
 5864TIP3   OH241786   4.463   2.795   8.043 -0.1048  0.4473 -0.2419
 5864TIP3    H141787   4.437   2.825   7.956  0.6289  1.8363  0.0047
 5864TIP3    H241788   4.413   2.850   8.103 -0.1768 -0.1271  0.2413
 5865TIP3   OH241789   7.492   7.262   9.107  0.6732 -0.1228 -0.1986
 5865TIP3    H141790   7.496   7.342   9.054 -0.9808 -1.4375 -2.5228
 5865TIP3    H241791   7.471   7.193   9.044 -1.7357 -1.8028  2.2321
 5866TIP3   OH241792   7.278   5.814   1.163 -0.2752  0.1329 -0.0232
 5866TIP3    H141793   7.227   5.856   1.232  0.0721  2.6245 -1.1806
 5866TIP3    H241794   7.224   5.821   1.085 -0.2758 -1.8281 -0.2331
 5867TIP3   OH241795   1.869   4.618   0.608  0.8367 -0.1083 -0.1833
 5867TIP3    H141796   1.807   4.686   0.634  0.4386 -0.4255 -0.2933
 5867TIP3    H241797   1.896   4.577   0.691  0.8712  0.0052 -0.1384
 5868TIP3   OH241798   2.174   2.311   0.731  0.2097 -0.1990  0.3969
 5868TIP3    H141799   2.137   2.295   0.644  1.9749 -0.2214 -0.3815
 5868TIP3    H241800   2.228   2.234   0.748  0.5731  0.2117  1.1365
 5869TIP3   OH241801   5.178   2.708   8.729  1.0232 -0.5300  0.5717
 5869TIP3    H141802   5.223   2.745   8.805  0.3732  2.1626 -0.2565
 5869TIP3    H241803   5.086   2.706   8.754  1.0090 -1.3787  0.4872
 5870TIP3   OH241804   4.848   0.332   6.998 -0.2448 -0.0263  0.2262
 5870TIP3    H141805   4.795   0.282   7.059  0.7827  0.2935  1.4188
 5870TIP3    H241806   4.810   0.420   7.000 -0.5831 -0.1626 -0.0667
 5871TIP3   OH241807   0.031   0.617   8.063 -0.6402  0.0974  0.1652
 5871TIP3    H141808  -0.029   0.544   8.045 -0.2405  0.0733 -1.1774
 5871TIP3    H241809   0.118   0.580   8.049 -0.4419  0.8664 -0.7938
 5872TIP3   OH241810   6.214   1.938   9.138 -0.4434 -0.0912 -0.3251
 5872TIP3    H141811   6.179   1.899   9.218 -3.7014 -0.6995 -1.8559
 5872TIP3    H241812   6.286   1.881   9.112  0.5835  0.0336  2.0240
 5873TIP3   OH241813   0.511   4.403   0.519  0.3716  0.2063 -0.3299
 5873TIP3    H141814   0.542   4.327   0.471 -1.4591  0.9990 -2.9863
 5873TIP3    H241815   0.464   4.367   0.594 -0.4731 -1.3538 -1.5366
 5874TIP3   OH241816   2.046   1.728   8.037  0.6902 -0.2230 -0.1136
 5874TIP3    H141817   2.053   1.633   8.032 -0.6943 -0.3209 -0.6284
 5874TIP3    H241818   2.023   1.745   8.128  1.2394 -0.3443  0.0540
 5875TIP3   OH241819   1.070   4.559   8.177 -0.0525 -0.1687  0.3518
 5875TIP3    H141820   1.047   4.651   8.190 -0.4599  0.4134 -3.4724
 5875TIP3    H241821   1.104   4.531   8.262 -0.1001  3.4256  1.7334
 5876TIP3   OH241822   3.447   3.743   8.613 -0.1963  0.8380 -0.2464
 5876TIP3    H141823   3.465   3.654   8.644  1.4221  1.1277 -0.2569
 5876TIP3    H241824   3.525   3.766   8.562 -1.2145  1.7486 -1.4318
 5877TIP3   OH241825   5.582   7.004   0.580 -0.2006  0.0374  0.0355
 5877TIP3    H141826   5.653   6.990   0.642 -0.8448  1.6104  1.1839
 5877TIP3    H241827   5.518   7.057   0.628 -1.6620 -0.4149 -1.3136
 5878TIP3   OH241828   7.432   3.710   1.611 -0.1847  0.0978 -0.2521
 5878TIP3    H141829   7.385   3.659   1.678  0.4917  1.1801  1.1070
 5878TIP3    H241830   7.378   3.702   1.533 -2.2536  0.6604  1.0326
 5879TIP3   OH241831   3.165   3.566   8.434  0.1443  0.9443 -0.0898
 5879TIP3    H141832   3.238   3.569   8.373  0.4320 -0.1033  0.1690
 5879TIP3    H241833   3.198   3.516   8.509 -0.7200  0.7576  0.1861
 5880TIP3   OH241834   2.389   3.017   1.563 -0.1408  0.7908  0.1254
 5880TIP3    H141835   2.470   3.013   1.512 -0.8237  2.6851 -1.2410
 5880TIP3    H241836   2.416   3.002   1.653  1.1018 -3.0276 -0.6814
 5881TIP3   OH241837   0.748   5.559   0.177 -0.0579  0.2191  0.0660
 5881TIP3    H141838   0.677   5.510   0.217 -0.6301  0.7474 -0.2897
 5881TIP3    H241839   0.710   5.597   0.098  0.6787  0.3177 -0.2478
 5882TIP3   OH241840   5.617   1.342   2.179 -0.5381 -0.1705  0.2121
 5882TIP3    H141841   5.603   1.353   2.085  1.2872  3.1574  0.1904
 5882TIP3    H241842   5.530   1.346   2.217 -1.0741  2.9804 -1.0603
 5883TIP3   OH241843   0.609   4.622   7.407 -0.2791 -0.6252 -0.4300
 5883TIP3    H141844   0.556   4.701   7.417  0.5317 -0.0362 -0.6945
 5883TIP3    H241845   0.579   4.564   7.477 -1.2488 -0.3012 -0.5528
 5884TIP3   OH241846   7.502   6.119   6.494 -0.6207 -0.0686  0.2010
 5884TIP3    H141847   7.466   6.198   6.454 -1.0315 -0.3660 -0.0272
 5884TIP3    H241848   7.550   6.150   6.570 -0.6093  0.4194 -0.0000
 5885TIP3   OH241849   2.674   0.936   8.702 -0.2524 -0.1268  0.4877
 5885TIP3    H141850   2.625   0.859   8.731  0.5914 -1.3254 -1.0574
 5885TIP3    H241851   2.630   0.963   8.621 -1.0457  1.5690  1.4540
 5886TIP3   OH241852   1.774   2.824   0.641  0.0021 -0.5753  0.0594
 5886TIP3    H141853   1.850   2.880   0.625 -0.5308  0.2957  0.5028
 5886TIP3    H241854   1.726   2.824   0.559  0.8056 -1.6672 -0.4362
 5887TIP3   OH241855   6.449   3.102   9.751  0.0394  0.6480  0.0092
 5887TIP3    H141856   6.452   3.029   9.812 -1.8039  0.2772 -0.2974
 5887TIP3    H241857   6.402   3.171   9.798  1.6801  1.6632  0.2660
 5888TIP3   OH241858   2.251   7.083   0.621  0.7669 -0.5444 -0.0935
 5888TIP3    H141859   2.271   7.110   0.531 -1.3488 -0.0116 -0.4497
 5888TIP3    H241860   2.318   7.018   0.642  0.7531 -1.4080 -2.4162
 5889TIP3   OH241861   1.812   7.095   7.063  0.0733  0.4372  0.0536
 5889TIP3    H141862   1.742   7.111   6.999 -0.2598  1.3986  0.6398
 5889TIP3    H241863   1.858   7.018   7.029 -0.1333  0.8878 -1.3084
 5890TIP3   OH241864   7.563   2.032   9.969  0.5321  0.4313  0.4542
 5890TIP3    H141865   7.539   1.947  10.007 -0.4905  0.5677  0.1566
 5890TIP3    H241866   7.547   2.094  10.040  1.1873  0.3859  0.6405
 5891TIP3   OH241867   4.844   5.561   9.384 -0.5127  0.5307  0.8831
 5891TIP3    H141868   4.885   5.565   9.470 -0.9765 -0.6735  1.1775
 5891TIP3    H241869   4.757   5.598   9.396 -1.1804 -1.1022  1.3347
 5892TIP3   OH241870   2.739   0.592   8.646 -0.4283 -0.3557  0.9486
 5892TIP3    H141871   2.821   0.634   8.621 -0.7967  1.5359  2.7030
 5892TIP3    H241872   2.746   0.579   8.740 -0.6149 -3.7877  0.5978
 5893TIP3   OH241873   3.953   4.286   0.248 -0.7011 -0.7001 -0.8746
 5893TIP3    H141874   4.025   4.241   0.205 -1.1615 -1.9760 -0.3695
 5893TIP3    H241875   3.902   4.216   0.289 -1.3348  0.3098  0.1260
 5894TIP3   OH241876   5.835   5.104   8.719 -0.3188  0.0290  0.0677
 5894TIP3    H141877   5.837   5.089   8.624 -1.8864 -0.1277  0.0364
 5894TIP3    H241878   5.877   5.189   8.731  0.3814 -0.1937 -0.7001
 5895TIP3   OH241879   6.933   3.840   7.241  0.2933 -0.0369 -0.4053
 5895TIP3    H141880   6.847   3.809   7.270  0.5200 -0.7503 -0.4617
 5895TIP3    H241881   6.964   3.771   7.182  0.8248  0.3033 -0.5264
 5896TIP3   OH241882   6.948   5.134   0.655 -0.0263  0.3279 -0.3564
 5896TIP3    H141883   6.991   5.187   0.721 -1.3216  1.4556 -0.3766
 5896TIP3    H241884   6.999   5.053   0.651 -0.2692 -0.0354  2.4454
 5897TIP3   OH241885   6.830   0.194   8.689  0.3907  0.5753  0.0189
 5897TIP3    H141886   6.822   0.283   8.724 -0.6407  0.3583  0.3622
 5897TIP3    H241887   6.760   0.145   8.732 -0.6713  0.1967 -2.0063
 5898TIP3   OH241888   0.276   3.018   1.536 -0.2585 -0.4524 -0.1960
 5898TIP3    H141889   0.324   3.023   1.453 -2.0929 -1.9913 -1.4693
 5898TIP3    H241890   0.203   3.079   1.524 -0.7801 -1.0061  0.0660
 5899TIP3   OH241891   0.018   2.163   9.047  0.6424 -0.1782 -0.4151
 5899TIP3    H141892  -0.068   2.203   9.060  0.1129 -0.2315 -3.1509
 5899TIP3    H241893   0.060   2.169   9.133 -1.9998 -0.0109  0.9754
 5900TIP3   OH241894   0.789   3.580   2.041  0.0329  0.5950  0.1187
 5900TIP3    H141895   0.718   3.516   2.043  0.1157  0.3993 -1.6733
 5900TIP3    H241896   0.790   3.617   2.130 -2.7062  1.0546  0.0644
 5901TIP3   OH241897   2.416   0.746   2.016  0.3246 -0.4288 -0.1536
 5901TIP3    H141898   2.463   0.790   2.086  0.6130  0.4988 -0.9143
 5901TIP3    H241899   2.324   0.767   2.032  0.5606  1.8309 -1.3859
 5902TIP3   OH241900   4.681   0.998   1.610  0.0467 -0.2921 -0.0916
 5902TIP3    H141901   4.633   1.059   1.553 -1.3626 -0.5333  0.7844
 5902TIP3    H241902   4.615   0.932   1.634  0.8198 -0.6172  1.1886
 5903TIP3   OH241903   6.866   1.421   0.516 -0.3658  0.8400 -0.0046
 5903TIP3    H141904   6.786   1.470   0.536 -0.4497 -0.5424  4.0882
 5903TIP3    H241905   6.850   1.334   0.553  1.9221 -0.4678 -1.8628
 5904TIP3   OH241906   6.856   5.577   8.336  0.4622  0.4542 -0.5781
 5904TIP3    H141907   6.917   5.564   8.262 -0.2309 -0.7578 -0.9536
 5904TIP3    H241908   6.904   5.635   8.395  0.9993  1.5637 -2.0228
 5905TIP3   OH241909   0.099   4.588   2.205 -0.0494 -0.7520  0.0615
 5905TIP3    H141910   0.032   4.612   2.268 -0.5896 -2.9221  0.4057
 5905TIP3    H241911   0.177   4.637   2.232 -1.1028  0.7428  0.4791
 5906TIP3   OH241912   5.326   2.903   7.535 -0.0405 -0.0324  0.5645
 5906TIP3    H141913   5.280   2.819   7.546  1.5037 -1.0264 -0.2613
 5906TIP3    H241914   5.330   2.916   7.441  0.2143  0.7094  0.6711
 5907TIP3   OH241915   1.614   4.940   1.208  0.1357 -0.4482 -0.0260
 5907TIP3    H141916   1.556   5.015   1.224  2.4078  1.8301 -1.6352
 5907TIP3    H241917   1.657   4.925   1.292  0.5425  0.9552  0.0532
 5908TIP3   OH241918   2.166   5.866   0.703 -0.1102 -0.2383  0.0520
 5908TIP3    H141919   2.260   5.876   0.686  0.3941  0.4656  2.7664
 5908TIP3    H241920   2.146   5.776   0.676  0.4656  0.5977 -3.7570
 5909TIP3   OH241921   7.384   6.664   7.957 -0.2842  0.0628 -0.2371
 5909TIP3    H141922   7.330   6.648   7.879  1.2219 -0.4370 -1.2090
 5909TIP3    H241923   7.458   6.605   7.948 -0.2623 -0.2900  1.8007
 5910TIP3   OH241924   6.803   6.936   9.489 -0.2273 -0.0841  0.2181
 5910TIP3    H141925   6.744   6.971   9.556 -0.2198 -1.2466  0.8556
 5910TIP3    H241926   6.749   6.874   9.440 -0.7460  1.9535 -2.0126
 5911TIP3   OH241927   1.339   3.588   6.951 -0.1091 -0.6859  0.2494
 5911TIP3    H141928   1.420   3.558   6.992 -0.1326 -0.8146  0.2030
 5911TIP3    H241929   1.304   3.510   6.908 -0.7132 -0.8466  1.0062
 5912TIP3   OH241930   5.156   3.850   7.044  0.0226  0.4586  0.3374
 5912TIP3    H141931   5.170   3.790   6.970 -0.1090  1.1091 -0.2271
 5912TIP3    H241932   5.066   3.831   7.072  0.4489 -0.5799  1.0768
 5913TIP3   OH241933   5.892   2.284   7.570  0.1060  0.6158 -0.2137
 5913TIP3    H141934   5.929   2.364   7.532 -0.3591  0.6038 -0.6986
 5913TIP3    H241935   5.798   2.289   7.552 -0.0425  0.3210  0.4186
 5914TIP3   OH241936   7.543   3.317   0.988 -0.4396 -0.0504 -0.6469
 5914TIP3    H141937   7.581   3.310   0.900  0.1632 -0.4784 -0.3544
 5914TIP3    H241938   7.616   3.342   1.044 -0.6786 -0.4620 -0.1464
 5915TIP3   OH241939   1.202   6.607   0.755  0.4773 -0.3091  0.3883
 5915TIP3    H141940   1.282   6.638   0.796  1.2233 -1.1267 -0.3815
 5915TIP3    H241941   1.140   6.596   0.827  1.2319 -0.1707  1.0738
 5916TIP3   OH241942   4.581   1.828   0.186  0.0788  0.4563 -0.0115
 5916TIP3    H141943   4.547   1.915   0.165  2.4124  0.9370 -2.1214
 5916TIP3    H241944   4.569   1.821   0.281  1.1747  3.7244  0.4907
 5917TIP3   OH241945   7.605   2.781   7.744 -0.1885 -0.0627 -0.8132
 5917TIP3    H141946   7.526   2.774   7.798  1.0575 -0.1138  1.0745
 5917TIP3    H241947   7.589   2.859   7.690 -1.1360  0.5023  0.2289
 5918TIP3   OH241948   5.091   7.238   3.168  0.8725  0.5165  0.4990
 5918TIP3    H141949   5.109   7.325   3.202  4.1452  0.1072  0.1656
 5918TIP3    H241950   5.057   7.252   3.080  0.5344  1.4341  0.7711
 5919TIP3   OH241951   3.479   6.920   9.853  0.0014  0.5030  0.3122
 5919TIP3    H141952   3.409   6.982   9.872  0.3233  1.4491 -1.3535
 5919TIP3    H241953   3.529   6.962   9.783  0.7740 -1.2506 -0.2393
 5920TIP3   OH241954   6.961   6.864   1.175 -0.1660  0.1734  0.2844
 5920TIP3    H141955   7.022   6.937   1.175 -1.5284  1.3455  0.7313
 5920TIP3    H241956   7.005   6.797   1.228  0.5745  1.1032  0.8822
 5921TIP3   OH241957   0.060   1.458   1.438  0.2854 -0.0944  0.0319
 5921TIP3    H141958   0.133   1.505   1.478 -0.6895  2.1273 -0.6747
 5921TIP3    H241959  -0.018   1.510   1.459 -0.8648 -1.3575 -0.8652
 5922TIP3   OH241960   2.855   6.324   8.519  0.1151 -0.4833 -0.2894
 5922TIP3    H141961   2.858   6.299   8.611  0.7462  0.1406 -0.1303
 5922TIP3    H241962   2.904   6.255   8.474 -1.1633 -1.3952 -0.3154
 5923TIP3   OH241963   6.967   4.534   8.056 -0.2350 -0.1803  0.9710
 5923TIP3    H141964   6.873   4.529   8.072 -0.6285  0.0702 -1.0498
 5923TIP3    H241965   6.981   4.620   8.016  0.0909 -1.8717 -2.9373
 5924TIP3   OH241966   5.898   1.641   9.880 -0.2366 -0.0001 -0.3587
 5924TIP3    H141967   5.964   1.617   9.814 -2.4778 -0.7652 -2.4729
 5924TIP3    H241968   5.847   1.711   9.838 -1.4883 -0.2230  0.7340
 5925TIP3   OH241969   0.008   2.513   8.090  0.1611  0.0367  0.1565
 5925TIP3    H141970   0.071   2.500   8.161 -0.3847 -0.6631  0.5333
 5925TIP3    H241971   0.045   2.466   8.016 -0.3732 -1.2694  0.6682
 5926TIP3   OH241972   0.122   6.113   9.730  0.0697 -0.1664 -0.2775
 5926TIP3    H141973   0.140   6.045   9.666  0.0171  0.6712 -1.2154
 5926TIP3    H241974   0.201   6.116   9.784 -0.0461 -1.1563 -0.0340
 5927TIP3   OH241975   1.523   5.926   1.601  0.0753 -0.2250  0.0270
 5927TIP3    H141976   1.552   5.839   1.628  4.0143  1.1905  0.9843
 5927TIP3    H241977   1.496   5.969   1.683 -2.7749 -0.7013 -0.5536
 5928TIP3   OH241978   0.220   7.259   0.828  0.3102  0.4654  0.1921
 5928TIP3    H141979   0.130   7.288   0.843  0.0562 -0.0290 -0.3765
 5928TIP3    H241980   0.221   7.167   0.854  0.7935  0.6080  0.7187
 5929TIP3   OH241981   3.078   5.209   0.907  0.5608 -0.3874  0.1156
 5929TIP3    H141982   3.098   5.297   0.875 -1.3003 -0.2710 -0.8894
 5929TIP3    H241983   3.063   5.220   1.001  1.8245  0.0662  0.2850
 5930TIP3   OH241984   0.724   4.341   9.895 -0.3801  0.0431  0.6121
 5930TIP3    H141985   0.730   4.435   9.880 -0.5620 -0.1361 -0.6599
 5930TIP3    H241986   0.639   4.316   9.860 -0.5519 -0.5295  1.3962
 5931TIP3   OH241987   2.642   2.919   7.658 -0.5076 -0.1599 -0.5074
 5931TIP3    H141988   2.648   2.830   7.623  0.4895 -0.5356  0.5511
 5931TIP3    H241989   2.700   2.971   7.602 -1.5913 -0.0015 -1.5401
 5932TIP3   OH241990   5.236   3.879   9.147 -0.0640  0.0483 -0.1945
 5932TIP3    H141991   5.191   3.963   9.142 -0.7539 -0.3700 -1.2247
 5932TIP3    H241992   5.310   3.895   9.206  1.1149  1.9741 -2.0575
 5933TIP3   OH241993   6.621   6.569   2.692  0.0686  0.0074  0.3959
 5933TIP3    H141994   6.689   6.504   2.708 -0.4853 -0.3032  1.6485
 5933TIP3    H241995   6.545   6.536   2.741 -0.9393  0.4116 -0.8470
 5934TIP3   OH241996   3.642   1.843   2.556  0.0741  0.2998  0.8508
 5934TIP3    H141997   3.626   1.891   2.638 -1.5220  1.9251 -0.3128
 5934TIP3    H241998   3.594   1.761   2.566 -0.2124  0.5429  1.5128
 5935TIP3   OH241999   0.626   2.526   0.824  0.3331 -0.1368  0.2884
 5935TIP3    H142000   0.668   2.464   0.884  2.3633  4.0697  3.7543
 5935TIP3    H242001   0.542   2.546   0.866  1.0822  1.6572  1.0501
 5936TIP3   OH242002   0.615   7.541   1.682  0.1864 -0.5317  0.4351
 5936TIP3    H142003   0.592   7.543   1.775 -0.1804  1.1107  0.3475
 5936TIP3    H242004   0.569   7.464   1.647  0.2399 -1.1002  1.5737
 5937TIP3   OH242005   3.407   4.326   7.550 -0.3305  0.4469 -0.3253
 5937TIP3    H142006   3.370   4.363   7.470 -0.4381  0.6772 -0.1691
 5937TIP3    H242007   3.385   4.389   7.619  1.3895  1.2095 -0.4195
 5938TIP3   OH242008   1.484   1.027   9.257 -0.3733  0.0133 -0.1567
 5938TIP3    H142009   1.455   0.939   9.281 -2.1815  1.2906  3.0249
 5938TIP3    H242010   1.444   1.044   9.172  0.5820 -2.4067 -1.1784
 5939TIP3   OH242011   4.182   0.200   7.253 -0.1472 -0.0810 -0.1787
 5939TIP3    H142012   4.151   0.291   7.252  0.1134  0.0130  0.0056
 5939TIP3    H242013   4.118   0.152   7.201 -2.2325 -0.4208  2.4669
 5940TIP3   OH242014   7.576   3.313   9.657  0.2495  0.4898  0.2198
 5940TIP3    H142015   7.546   3.402   9.678 -0.5690 -0.0644  1.5620
 5940TIP3    H242016   7.584   3.312   9.562 -1.9588  1.3383 -0.0315
 5941TIP3   OH242017   4.913   6.265   2.722  0.3331 -0.0653  0.3731
 5941TIP3    H142018   4.877   6.216   2.796 -1.3896  0.2816 -0.1770
 5941TIP3    H242019   4.845   6.259   2.654  0.9300  1.4073 -0.4015
 5942TIP3   OH242020   1.084   3.058   0.153  0.6957  0.4086  0.1732
 5942TIP3    H142021   1.124   3.029   0.071 -0.4402  0.6455 -0.4989
 5942TIP3    H242022   0.998   3.016   0.154 -0.1320  2.0115  0.2176
 5943TIP3   OH242023   2.830   7.538   3.178  0.0997 -0.0775  0.0907
 5943TIP3    H142024   2.861   7.595   3.108  0.5516  2.0693  1.9357
 5943TIP3    H242025   2.771   7.593   3.230  0.1977 -1.4174  1.7154
 5944TIP3   OH242026   0.603   2.115   9.955 -0.0243  0.6762  0.1155
 5944TIP3    H142027   0.555   2.054   9.899 -1.0436  1.1765  0.4069
 5944TIP3    H242028   0.691   2.118   9.918 -0.8958  1.7169 -2.0453
 5945TIP3   OH242029   4.944   4.482   7.587  0.1538 -0.2625  0.0299
 5945TIP3    H142030   4.899   4.531   7.518  1.7943  0.0039 -0.8853
 5945TIP3    H242031   4.927   4.390   7.566 -0.1791 -0.1666 -0.1377
 5946TIP3   OH242032   0.868   0.346   7.497  0.1685  0.3583  0.0892
 5946TIP3    H142033   0.936   0.374   7.436  0.5876 -0.1245  0.3263
 5946TIP3    H242034   0.915   0.330   7.579 -0.1619 -0.3810  0.1383
 5947TIP3   OH242035   3.169   4.780   9.455  0.1776 -0.0064 -0.2846
 5947TIP3    H142036   3.171   4.811   9.365 -3.0913  1.5022  0.0226
 5947TIP3    H242037   3.170   4.860   9.508  1.4335 -0.8391  1.0659
 5948TIP3   OH242038   3.012   2.929   8.252  0.0461 -0.9412  0.5516
 5948TIP3    H142039   2.919   2.936   8.271  0.1708  0.7968  0.6694
 5948TIP3    H242040   3.016   2.884   8.167 -0.9716 -0.0050 -0.0260
 5949TIP3   OH242041   7.500   7.410   8.457  0.6274  0.4554 -0.0647
 5949TIP3    H142042   7.490   7.436   8.365 -0.9898  1.5493  0.3705
 5949TIP3    H242043   7.544   7.484   8.498 -0.6147  0.9382  0.4469
 5950TIP3   OH242044   2.645   1.621   8.726 -0.5471 -0.1222 -0.1618
 5950TIP3    H142045   2.607   1.568   8.795 -0.0061  0.1904  0.3858
 5950TIP3    H242046   2.591   1.700   8.723 -1.0127 -0.4467 -0.6016
 5951TIP3   OH242047   6.721   2.227   0.834 -0.0099  0.3797 -0.0324
 5951TIP3    H142048   6.743   2.169   0.907 -0.1942 -0.8689 -0.9425
 5951TIP3    H242049   6.678   2.171   0.770 -2.6399  2.0106  0.1444
 5952TIP3   OH242050   2.622   3.831   2.428  0.0224 -0.3271 -0.1093
 5952TIP3    H142051   2.553   3.896   2.414  0.6942  0.2102 -1.0437
 5952TIP3    H242052   2.682   3.873   2.490  0.2855 -0.1725 -0.4616
 5953TIP3   OH242053   0.460   2.934   1.732 -0.3182  0.3253  0.2212
 5953TIP3    H142054   0.406   2.881   1.790 -2.4173  2.8925  0.8248
 5953TIP3    H242055   0.405   2.950   1.656  0.2043  1.6253  0.0900
 5954TIP3   OH242056   3.255   3.222   2.193  0.2159  0.3130  0.8507
 5954TIP3    H142057   3.245   3.311   2.157 -0.3164 -0.6656 -1.6201
 5954TIP3    H242058   3.329   3.229   2.254  1.1589  2.1329 -0.3958
 5955TIP3   OH242059   4.150   2.514   8.345  0.7779  0.0666 -0.1808
 5955TIP3    H142060   4.128   2.551   8.259  0.1265  0.9126  0.3241
 5955TIP3    H242061   4.168   2.422   8.328 -2.1736 -0.4868 -0.8419
 5956TIP3   OH242062   3.154   0.594   0.134 -0.2638  0.2668  0.3146
 5956TIP3    H142063   3.072   0.547   0.118 -1.6834  2.6426  0.1489
 5956TIP3    H242064   3.214   0.562   0.067 -1.6654 -0.1665 -0.7742
 5957TIP3   OH242065   4.332   3.921   7.421  0.1605  0.1223  0.1918
 5957TIP3    H142066   4.291   3.922   7.335  1.2550  1.6435 -0.3388
 5957TIP3    H242067   4.288   3.849   7.467  0.0978 -1.2671 -1.8785
 5958TIP3   OH242068   2.944   0.781   9.917  0.2461  0.5769  0.0939
 5958TIP3    H142069   2.921   0.694   9.885  1.2122  0.5621 -0.5817
 5958TIP3    H242070   3.038   0.789   9.900  0.1464  1.7906  0.0506
 5959TIP3   OH242071   4.466   1.288   9.021 -0.0544 -0.0964 -0.0440
 5959TIP3    H142072   4.412   1.220   9.060 -1.4496 -0.4176 -2.3390
 5959TIP3    H242073   4.533   1.307   9.087 -2.0436 -0.7603  2.3064
 5960TIP3   OH242074   3.648   2.792   2.676  0.3293 -0.0871  0.0599
 5960TIP3    H142075   3.584   2.722   2.664 -0.0715  0.3503 -0.4086
 5960TIP3    H242076   3.685   2.776   2.763 -1.0711  0.1817  0.7356
 5961TIP3   OH242077   1.943   4.457   8.985  0.3966  0.3528  0.2276
 5961TIP3    H142078   1.869   4.494   9.033  0.3047  0.6869 -0.1637
 5961TIP3    H242079   1.966   4.378   9.033 -1.7393 -1.0872 -0.9709
 5962TIP3   OH242080   6.342   7.219   8.650 -0.2944  0.0777  0.0173
 5962TIP3    H142081   6.324   7.190   8.560 -0.4758  0.7973 -0.1805
 5962TIP3    H242082   6.355   7.313   8.643  0.8973 -0.0343  0.5793
 5963TIP3   OH242083   0.801   2.634   3.049 -0.0647  0.1185  0.2690
 5963TIP3    H142084   0.739   2.573   3.090 -0.6281  0.1749 -0.4723
 5963TIP3    H242085   0.770   2.720   3.075 -0.2356  0.1405  0.0076
 5964TIP3   OH242086   5.949   6.223   0.326 -0.1670  0.1539  0.0362
 5964TIP3    H142087   5.985   6.158   0.266  1.3176  1.6472 -0.7729
 5964TIP3    H242088   5.983   6.307   0.295 -1.9027  1.3382  1.1177
 5965TIP3   OH242089   4.357   7.167   7.837 -0.3948 -0.4408  0.5071
 5965TIP3    H142090   4.364   7.196   7.746 -0.7660 -0.3232  0.5172
 5965TIP3    H242091   4.434   7.110   7.849 -0.0690 -0.0606  0.2718
 5966TIP3   OH242092   1.711   3.731   8.610  0.6591 -0.1969 -0.7472
 5966TIP3    H142093   1.768   3.776   8.547 -0.6488  1.6300 -0.7295
 5966TIP3    H242094   1.624   3.732   8.568 -0.1115  0.5077  0.7600
 5967TIP3   OH242095   1.165   7.271   9.826 -0.2882  0.0013  0.5038
 5967TIP3    H142096   1.158   7.320   9.908  0.0813  0.7970  0.0737
 5967TIP3    H242097   1.124   7.328   9.761  1.3280  0.3452 -0.2465
 5968TIP3   OH242098   6.898   6.067   8.018  0.1657  0.2598  0.7451
 5968TIP3    H142099   6.866   6.017   8.093 -0.8486 -0.4260 -0.1081
 5968TIP3    H242100   6.889   6.007   7.944  1.3078  0.8647  0.1022
 5969TIP3   OH242101   1.185   3.410   2.610  0.2737 -0.1866  0.9144
 5969TIP3    H142102   1.144   3.377   2.690 -1.6018 -2.0659 -0.6488
 5969TIP3    H242103   1.251   3.344   2.588  1.0948  0.5530  1.1404
 5970TIP3   OH242104   5.403   0.295   2.176  0.6309 -0.3119  0.1228
 5970TIP3    H142105   5.313   0.327   2.173  0.3809 -1.0034  0.2659
 5970TIP3    H242106   5.395   0.200   2.186  1.3808 -0.3097  0.7736
 5971TIP3   OH242107   0.653   6.340   9.484 -0.2538  0.0755 -0.4202
 5971TIP3    H142108   0.628   6.433   9.489  1.1796  0.7179 -3.2579
 5971TIP3    H242109   0.745   6.340   9.509 -0.2141 -0.5914 -0.5690
 5972TIP3   OH242110   4.569   0.511   2.372 -0.0146 -0.1160  0.2071
 5972TIP3    H142111   4.643   0.465   2.413 -0.5483  0.7782  2.2742
 5972TIP3    H242112   4.493   0.484   2.422 -0.2224  3.8268  2.4015
 5973TIP3   OH242113   6.033   6.830   0.439 -0.0616 -0.3287  0.4871
 5973TIP3    H142114   6.017   6.774   0.514  0.1369 -0.6938  0.2636
 5973TIP3    H242115   6.123   6.861   0.451 -0.3164  0.2821  0.8266
 5974TIP3   OH242116   0.464   5.312   1.771 -0.1781  0.4434  0.4216
 5974TIP3    H142117   0.455   5.226   1.812 -1.3512  1.0739  1.5528
 5974TIP3    H242118   0.440   5.298   1.679 -0.7892 -0.3537  0.6999
 5975TIP3   OH242119   2.801   3.231   1.110 -0.6932  0.3603 -0.4583
 5975TIP3    H142120   2.808   3.139   1.135 -1.5731  0.1774 -0.8263
 5975TIP3    H242121   2.767   3.275   1.188 -0.1510  0.4007 -0.2415
 5976TIP3   OH242122   7.205   0.477   9.972 -0.5017  0.2897  0.6168
 5976TIP3    H142123   7.174   0.558  10.014 -3.0106  1.2255 -2.6166
 5976TIP3    H242124   7.270   0.507   9.908  2.6114 -1.0026  2.9324
 5977TIP3   OH242125   5.251   3.048   9.304  0.2974  0.0068  0.9074
 5977TIP3    H142126   5.234   3.056   9.210 -2.1104 -0.1897  1.2529
 5977TIP3    H242127   5.265   2.955   9.319 -1.6805 -0.3171  1.0156
 5978TIP3   OH242128   0.058   3.163   2.030 -0.2003 -0.4167  0.6180
 5978TIP3    H142129   0.068   3.130   2.119 -0.2454 -0.7808  0.4942
 5978TIP3    H242130   0.022   3.251   2.040 -2.8446 -1.4414  0.9231
 5979TIP3   OH242131   0.159   5.746   9.958 -0.1096  0.0360 -0.2883
 5979TIP3    H142132   0.093   5.697  10.007 -0.5990  0.9761  0.0187
 5979TIP3    H242133   0.153   5.712   9.869 -0.2922 -0.6009 -0.0378
 5980TIP3   OH242134   7.088   5.421   8.769  0.3488  0.0432 -0.2379
 5980TIP3    H142135   7.042   5.337   8.764  0.2118  0.1586 -1.2128
 5980TIP3    H242136   7.096   5.439   8.862 -1.3064 -0.1457 -0.0269
 5981TIP3   OH242137   3.120   1.723   8.005  0.0433 -0.0803  0.4556
 5981TIP3    H142138   3.071   1.687   8.079  0.3058 -0.5548  0.4028
 5981TIP3    H242139   3.056   1.728   7.934 -0.1522  0.1579  0.6470
 5982TIP3   OH242140   3.718   2.902   9.135 -0.1941  0.5122  0.1920
 5982TIP3    H142141   3.779   2.896   9.062 -0.4893  1.0220 -0.0975
 5982TIP3    H242142   3.631   2.897   9.096 -0.4290  2.7714  0.2460
 5983TIP3   OH242143   2.906   2.801   2.285  0.2197  0.0308 -0.0455
 5983TIP3    H142144   2.989   2.841   2.310  0.6400  0.2508 -1.6719
 5983TIP3    H242145   2.924   2.759   2.201 -1.1613 -0.4313 -0.1366
 5984TIP3   OH242146   4.565   0.559   1.033  0.5788  0.3721 -0.6255
 5984TIP3    H142147   4.633   0.502   1.069  0.8622  0.3128 -1.2389
 5984TIP3    H242148   4.501   0.568   1.104  0.9739  0.0154 -0.2174
 5985TIP3   OH242149   4.470   1.241   1.142 -0.8321  0.8810 -0.5678
 5985TIP3    H142150   4.416   1.185   1.199  0.4411  0.2966  0.1047
 5985TIP3    H242151   4.446   1.330   1.167 -2.6019  0.6787 -1.3768
 5986TIP3   OH242152   4.327   2.949   8.574  0.3661  0.1971  0.2452
 5986TIP3    H142153   4.281   2.879   8.619 -0.2706 -1.1605 -2.2938
 5986TIP3    H242154   4.351   3.011   8.643 -3.8298  0.2226  1.9969
 5987TIP3   OH242155   5.805   7.270   2.403  0.2861 -0.2116 -0.2613
 5987TIP3    H142156   5.723   7.307   2.372 -0.2194 -0.2381  0.9797
 5987TIP3    H242157   5.847   7.342   2.451 -0.1106 -0.8592  1.0840
 5988TIP3   OH242158   2.436   1.828   8.006 -0.2095  0.1658 -0.1273
 5988TIP3    H142159   2.439   1.748   7.954 -0.2372  0.9237 -1.3130
 5988TIP3    H242160   2.446   1.899   7.943 -1.5227  1.1603  0.7366
 5989TIP3   OH242161   7.382   2.642   1.219  0.2736 -0.0657  0.0268
 5989TIP3    H142162   7.354   2.616   1.132 -0.7910  0.0031  0.3427
 5989TIP3    H242163   7.466   2.688   1.205  1.6552 -2.6251 -0.6532
 5990TIP3   OH242164   3.924   6.675   7.495  0.2086  0.1863  0.2009
 5990TIP3    H142165   3.861   6.605   7.516 -0.9617  1.3504  0.7448
 5990TIP3    H242166   3.870   6.754   7.486  1.7680  1.7512  3.0665
 5991TIP3   OH242167   1.766   7.386   2.037 -0.6856 -0.0282 -0.4559
 5991TIP3    H142168   1.737   7.332   2.111 -0.9753  0.5581 -0.1378
 5991TIP3    H242169   1.830   7.331   1.991 -0.0960 -0.1988  0.5332
 5992TIP3   OH242170   2.951   7.449   1.711 -0.2687  0.5118  0.6003
 5992TIP3    H142171   2.878   7.506   1.685 -0.0505  0.6582  0.3093
 5992TIP3    H242172   3.015   7.508   1.751 -0.5617  0.3028  1.4086
 5993TIP3   OH242173   4.626   0.125   8.128 -0.0468 -0.1931 -0.1636
 5993TIP3    H142174   4.687   0.055   8.104 -0.3469 -0.7130  0.5645
 5993TIP3    H242175   4.675   0.179   8.190  0.3942  0.6045 -1.1744
 5994TIP3   OH242176   0.958   0.290   7.767 -0.0598  0.1315  0.3192
 5994TIP3    H142177   1.048   0.266   7.790 -0.6451 -1.2944  1.2157
 5994TIP3    H242178   0.938   0.363   7.826  0.4185  0.3174  0.2632
 5995TIP3   OH242179   7.151   2.280   0.764  0.0041  0.0600 -0.0078
 5995TIP3    H142180   7.175   2.212   0.826 -2.0778  0.0663  0.9008
 5995TIP3    H242181   7.163   2.362   0.812 -1.9717  0.0492  0.6219
 5996TIP3   OH242182   3.187   3.978   9.846 -0.3154  0.1470  0.4133
 5996TIP3    H142183   3.245   4.040   9.890 -0.2190  0.3674 -0.0304
 5996TIP3    H242184   3.166   3.914   9.914  0.4360  0.0690  0.5812
 5997TIP3   OH242185   6.418   2.435   8.692  0.0159 -0.1554 -0.6496
 5997TIP3    H142186   6.362   2.500   8.649  0.6783  1.3620  0.6562
 5997TIP3    H242187   6.359   2.386   8.749  0.0415  2.0594  1.4420
 5998TIP3   OH242188   2.188   1.844   0.676 -0.2689 -0.2377 -0.2526
 5998TIP3    H142189   2.168   1.784   0.747 -1.5554  0.2074 -0.2123
 5998TIP3    H242190   2.186   1.789   0.597  0.4600 -0.5963 -0.0274
 5999TIP3   OH242191   4.137   7.491   0.557  0.1816 -0.3508 -0.3406
 5999TIP3    H142192   4.087   7.536   0.625  0.4969  0.7570 -0.8323
 5999TIP3    H242193   4.221   7.472   0.597 -0.3306 -1.5536  0.2402
 6000TIP3   OH242194   4.707   1.335   1.628  0.8019  0.5138  0.2043
 6000TIP3    H142195   4.648   1.269   1.590  1.3848  0.3215 -0.3704
 6000TIP3    H242196   4.648   1.395   1.674  0.1531  0.3279 -0.3653
 6001TIP3   OH242197   6.990   0.718   7.366  0.2706 -0.4235 -0.0050
 6001TIP3    H142198   6.985   0.684   7.276  1.2854 -0.8042  0.0661
 6001TIP3    H242199   6.921   0.670   7.413 -1.8975  1.4705 -1.0582
 6002TIP3   OH242200   7.627   2.812   8.250 -0.2279  0.0001  0.2784
 6002TIP3    H142201   7.586   2.885   8.202 -0.0216 -1.7582 -2.7878
 6002TIP3    H242202   7.557   2.747   8.258  0.7646 -1.3194 -1.2527
 6003TIP3   OH242203   4.546   6.838   1.809 -0.7122 -0.1306 -0.0263
 6003TIP3    H142204   4.613   6.771   1.802  0.2082  0.8113 -0.4928
 6003TIP3    H242205   4.557   6.892   1.731  0.5863  2.3401  1.7049
 6004TIP3   OH242206   6.924   4.716   8.686  0.4348  0.4853  0.7416
 6004TIP3    H142207   7.001   4.768   8.708 -0.4907  1.2583  2.3687
 6004TIP3    H242208   6.872   4.715   8.767 -1.7921  0.9305 -0.6189
 6005TIP3   OH242209   4.749   4.584   9.004 -0.0040 -0.1528 -0.2677
 6005TIP3    H142210   4.761   4.495   9.035  0.7909  0.1693  0.3765
 6005TIP3    H242211   4.811   4.636   9.055 -0.9721  0.8771 -0.1048
 6006TIP3   OH242212   2.035   1.180   3.504 -0.1864  0.3249  0.2921
 6006TIP3    H142213   2.122   1.196   3.541  0.4687  0.6461 -1.3056
 6006TIP3    H242214   2.013   1.091   3.532  1.7573 -0.7265 -1.2563
 6007TIP3   OH242215   7.599   3.847   9.941 -0.1070 -0.3681 -0.3847
 6007TIP3    H142216   7.517   3.890   9.965 -0.6451 -1.1123 -0.8451
 6007TIP3    H242217   7.667   3.899   9.984 -0.8180  0.2408  0.0268
 6008TIP3   OH242218   4.141   0.458   9.769  0.4007 -0.3306  0.2152
 6008TIP3    H142219   4.071   0.428   9.710  1.0544  0.0501 -0.7864
 6008TIP3    H242220   4.136   0.554   9.764  1.4261 -0.2922 -0.4295
 6009TIP3   OH242221   4.237   2.383   8.696  0.0243 -0.1839  0.4864
 6009TIP3    H142222   4.254   2.288   8.696 -0.3438 -0.2605 -0.5322
 6009TIP3    H242223   4.143   2.391   8.681 -0.3869  0.3234  2.8737
 6010TIP3   OH242224   6.637   1.192   1.437  0.3258  0.2521 -0.0358
 6010TIP3    H142225   6.703   1.165   1.500  0.3914  0.1846 -0.1328
 6010TIP3    H242226   6.680   1.183   1.352 -0.8728 -3.1676 -0.4228
 6011TIP3   OH242227   1.518   2.465   7.820 -0.0514  0.3647  0.0624
 6011TIP3    H142228   1.475   2.542   7.857 -0.4281  0.5428 -0.7100
 6011TIP3    H242229   1.491   2.393   7.876  0.7733  0.8814  1.1395
 6012TIP3   OH242230   2.271   6.995   7.314 -0.3516  0.2175 -0.2280
 6012TIP3    H142231   2.202   6.928   7.317  0.8524 -1.0846  2.7079
 6012TIP3    H242232   2.352   6.946   7.324  0.6921  2.0013  0.4238
 6013TIP3   OH242233   4.718   5.887   7.908  0.0345 -0.4328  0.6974
 6013TIP3    H142234   4.709   5.825   7.980 -1.8556  0.4603  1.2899
 6013TIP3    H242235   4.662   5.852   7.839 -0.2610  0.0979  0.6669
 6014TIP3   OH242236   6.942   4.783   0.070  0.2333 -0.2353  0.2811
 6014TIP3    H142237   7.010   4.760   0.005  1.3038  1.6454  0.6557
 6014TIP3    H242238   6.947   4.712   0.135 -0.2749 -1.7101 -1.2158
 6015TIP3   OH242239   2.626   3.610   9.786 -0.4474  0.5743 -0.0138
 6015TIP3    H142240   2.548   3.564   9.755  0.0638 -0.5633  0.3376
 6015TIP3    H242241   2.667   3.643   9.706  0.0099 -0.9485 -0.4355
 6016TIP3   OH242242   0.929   2.777   8.442  0.0009 -0.4360  0.5296
 6016TIP3    H142243   0.846   2.730   8.442  0.4409 -1.2817 -0.8198
 6016TIP3    H242244   0.980   2.735   8.372  0.8588  1.2798  0.0734
 6017TIP3   OH242245   2.367   5.854   9.832 -0.3905  0.2277  0.5699
 6017TIP3    H142246   2.316   5.796   9.777 -0.5625 -0.3109  1.2759
 6017TIP3    H242247   2.383   5.804   9.912 -1.9267  1.7077  1.8780
 6018TIP3   OH242248   2.234   2.396   7.081 -0.4086  0.0792 -0.0797
 6018TIP3    H142249   2.287   2.333   7.129 -0.1956  0.1056 -0.2815
 6018TIP3    H242250   2.287   2.421   7.006  0.0910  1.5292  0.7065
 6019TIP3   OH242251   2.720   5.204   8.642 -0.2092  0.0480 -0.6609
 6019TIP3    H142252   2.718   5.178   8.549 -1.1250  1.5595 -1.0992
 6019TIP3    H242253   2.748   5.295   8.641 -1.0605  0.3413  0.4759
 6020TIP3   OH242254   6.528   2.550   0.554 -0.7959 -0.1609 -0.1957
 6020TIP3    H142255   6.583   2.519   0.625 -1.3665 -0.0786  0.2898
 6020TIP3    H242256   6.475   2.620   0.593 -1.2698 -0.2657 -0.6405
 6021TIP3   OH242257   0.036   0.420   1.483 -0.3970 -0.4822 -0.4572
 6021TIP3    H142258   0.109   0.462   1.437  0.9952 -1.3254  0.8872
 6021TIP3    H242259   0.077   0.355   1.540 -2.2295 -1.1807  0.1579
 6022TIP3   OH242260   7.111   4.381   9.158  0.0405 -0.3455 -0.4791
 6022TIP3    H142261   7.142   4.291   9.158 -1.0209 -0.7334 -1.0664
 6022TIP3    H242262   7.065   4.390   9.241  0.2681 -0.3018 -0.3579
 6023TIP3   OH242263   2.743   0.238   0.908  0.4317  0.6540 -0.1124
 6023TIP3    H142264   2.741   0.323   0.863  2.0819  1.6226  1.4942
 6023TIP3    H242265   2.830   0.203   0.887 -0.0476 -0.4208 -0.3414
 6024TIP3   OH242266   0.918   3.105   8.647 -0.7644 -0.4080  0.2163
 6024TIP3    H142267   0.995   3.150   8.615 -0.6061 -1.6591 -1.2974
 6024TIP3    H242268   0.933   3.095   8.741  0.6369 -0.0969  0.0474
 6025TIP3   OH242269   2.234   4.142   0.300  0.6928 -0.1779  0.3013
 6025TIP3    H142270   2.289   4.220   0.299 -0.3616  0.5780 -0.0370
 6025TIP3    H242271   2.198   4.136   0.211 -0.3465 -0.2391  0.7177
 6026TIP3   OH242272   7.422   6.478   0.477 -0.1209 -0.2679  0.4492
 6026TIP3    H142273   7.401   6.425   0.554  2.0622 -1.7429  0.1170
 6026TIP3    H242274   7.382   6.563   0.495 -1.1726 -1.1113  2.3808
 6027TIP3   OH242275   1.260   5.066   8.314  0.7720 -0.4779  0.3115
 6027TIP3    H142276   1.345   5.109   8.308  0.9872 -1.0504 -1.1275
 6027TIP3    H242277   1.197   5.132   8.283  1.1513 -1.2241 -2.3562
 6028TIP3   OH242278   1.011   0.461   8.821  0.4032  0.3124  0.2160
 6028TIP3    H142279   1.056   0.456   8.906  0.3453  0.0462  0.2351
 6028TIP3    H242280   0.934   0.515   8.837  0.4958  0.4219  0.2872
 6029TIP3   OH242281   3.383   6.002   7.121 -0.2140  0.0237  0.2480
 6029TIP3    H142282   3.343   5.924   7.084 -1.7600  0.6288  0.5776
 6029TIP3    H242283   3.376   6.068   7.052  0.9514 -0.0485  0.0250
 6030TIP3   OH242284   6.569   2.347   2.388 -0.1421  0.1593  0.1058
 6030TIP3    H142285   6.576   2.313   2.477  0.5525 -1.6238 -0.5817
 6030TIP3    H242286   6.646   2.404   2.378 -0.6063  0.9297  0.8554
 6031TIP3   OH242287   1.333   7.624   9.177  0.3269 -0.3670  0.0151
 6031TIP3    H142288   1.281   7.552   9.141 -1.4483 -0.4964  2.5965
 6031TIP3    H242289   1.295   7.641   9.263  2.1023  2.2213  0.4103
 6032TIP3   OH242290   1.071   3.701   8.211 -0.1168 -0.2142  0.4730
 6032TIP3    H142291   1.121   3.697   8.293  3.4569 -0.4354 -1.5601
 6032TIP3    H242292   1.104   3.778   8.166 -1.0146 -0.8783 -1.4091
 6033TIP3   OH242293   6.536   3.132   7.747 -0.4960  0.0505  1.1686
 6033TIP3    H142294   6.591   3.196   7.701 -0.6736 -0.6067  0.0056
 6033TIP3    H242295   6.535   3.055   7.690 -1.7674 -0.3303  1.6593
 6034TIP3   OH242296   4.654   1.014   8.132  0.6358  0.2200  0.5628
 6034TIP3    H142297   4.619   0.934   8.094 -0.8126  0.7106  0.7824
 6034TIP3    H242298   4.703   0.985   8.209  0.3556 -0.4721  0.4848
 6035TIP3   OH242299   2.964   2.743   0.534 -0.0470 -0.1293  0.1560
 6035TIP3    H142300   2.912   2.666   0.559 -0.3511 -0.1531 -0.5412
 6035TIP3    H242301   3.055   2.714   0.544 -0.1594 -0.4327  0.3339
 6036TIP3   OH242302   1.666   4.244   1.309 -0.7586  0.2482 -0.0016
 6036TIP3    H142303   1.603   4.278   1.373 -0.2084 -1.3772  1.4764
 6036TIP3    H242304   1.751   4.263   1.347 -0.4208 -0.9559 -0.1167
 6037TIP3   OH242305   0.330   7.101   1.773 -1.0914 -0.5338 -0.2394
 6037TIP3    H142306   0.297   7.019   1.809 -2.5411 -0.7915 -2.0139
 6037TIP3    H242307   0.256   7.137   1.724 -0.4811  1.8293  0.4470
 6038TIP3   OH242308   2.706   6.543   2.875 -0.2213  0.0750  0.1753
 6038TIP3    H142309   2.677   6.607   2.939 -0.7043  1.2061 -1.1234
 6038TIP3    H242310   2.638   6.475   2.877 -0.5845  0.4379  0.3963
 6039TIP3   OH242311   2.512   5.994   0.175 -0.2265 -0.2304  0.0243
 6039TIP3    H142312   2.588   6.053   0.174 -0.6474  0.3267 -0.7577
 6039TIP3    H242313   2.531   5.931   0.244  0.2938  0.7587  0.8070
 6040TIP3   OH242314   1.404   2.733   9.654 -0.5970 -0.6623 -0.5197
 6040TIP3    H142315   1.481   2.715   9.600 -0.8634 -2.4386 -0.3515
 6040TIP3    H242316   1.391   2.654   9.706 -1.5851  0.2180  0.6592
 6041TIP3   OH242317   2.887   3.458   0.384 -0.3429 -0.0173  0.1648
 6041TIP3    H142318   2.952   3.437   0.451 -0.3065 -0.5603 -0.0385
 6041TIP3    H242319   2.924   3.424   0.303  0.0587  1.4693 -0.3220
 6042TIP3   OH242320   3.907   4.515   0.434  0.3346 -0.3039 -0.1369
 6042TIP3    H142321   3.909   4.450   0.364 -1.4325  0.8206 -1.3219
 6042TIP3    H242322   3.838   4.485   0.493  1.9656 -1.3677  1.3333
 6043TIP3   OH242323   6.406   3.698   7.323 -0.1633 -0.0224 -0.9003
 6043TIP3    H142324   6.346   3.739   7.386  1.2382  3.0515 -1.3852
 6043TIP3    H242325   6.350   3.670   7.251 -1.4526 -0.9808  0.4339
 6044TIP3   OH242326   1.332   1.570   1.570 -0.2093  0.5672  0.2654
 6044TIP3    H142327   1.406   1.615   1.610  0.4792  1.4246 -1.8015
 6044TIP3    H242328   1.351   1.477   1.582  1.1540  0.7796 -0.0792
 6045TIP3   OH242329   4.358   3.821   7.808 -0.5318 -0.6120  0.0283
 6045TIP3    H142330   4.297   3.785   7.744 -1.7508  0.2184  0.6852
 6045TIP3    H242331   4.306   3.882   7.860  0.7598 -0.1967  0.9007
 6046TIP3   OH242332   0.847   1.959   2.876  0.0862 -0.5098 -0.4072
 6046TIP3    H142333   0.928   1.916   2.847  0.5132 -1.2197  1.6514
 6046TIP3    H242334   0.862   2.052   2.859  0.4826 -0.8159 -1.9175
 6047TIP3   OH242335   6.078   2.335   0.568 -0.0846 -0.0781 -0.4370
 6047TIP3    H142336   6.037   2.321   0.653 -1.3577 -1.3577 -1.2236
 6047TIP3    H242337   6.086   2.248   0.530  1.9983  0.2748 -0.9793
 6048TIP3   OH242338   2.742   7.117   9.966  0.1737 -0.2753 -0.3503
 6048TIP3    H142339   2.716   7.028   9.992 -0.2193 -0.1899 -0.4546
 6048TIP3    H242340   2.832   7.126   9.999  0.2255 -0.7200 -0.3598
 6049TIP3   OH242341   3.125   1.819   8.981  0.2471  0.0729 -0.7526
 6049TIP3    H142342   3.150   1.773   9.061 -0.8554  0.2141 -0.3076
 6049TIP3    H242343   3.037   1.785   8.961  0.5424 -0.0331 -1.9602
 6050TIP3   OH242344   2.168   2.871   9.412 -0.4475 -0.3164 -0.2800
 6050TIP3    H142345   2.224   2.846   9.338  2.9179  1.1099  1.5420
 6050TIP3    H242346   2.176   2.798   9.473  0.4059  0.3397  0.4307
 6051TIP3   OH242347   4.180   2.670   9.839  0.0921 -0.3227 -0.9289
 6051TIP3    H142348   4.202   2.577   9.827 -0.4955 -0.3969 -1.5006
 6051TIP3    H242349   4.183   2.683   9.934  2.2328 -0.4041 -0.9245
 6052TIP3   OH242350   3.305   7.454   8.244 -0.0247  0.5863  0.5329
 6052TIP3    H142351   3.249   7.399   8.299 -0.4997  0.7762  0.2440
 6052TIP3    H242352   3.244   7.503   8.189  0.4373  0.4106 -0.1580
 6053TIP3   OH242353   6.273   0.446   0.707  0.3215  0.2302 -0.0402
 6053TIP3    H142354   6.350   0.439   0.763  0.2929 -0.0179 -0.0308
 6053TIP3    H242355   6.213   0.504   0.755 -0.0740 -0.7074  0.6130
 6054TIP3   OH242356   6.066   6.554   9.884 -0.0127 -0.1456  0.4929
 6054TIP3    H142357   6.029   6.491   9.823 -0.9744  0.5486  0.3326
 6054TIP3    H242358   5.990   6.586   9.934  0.7006 -0.4232  1.7908
 6055TIP3   OH242359   4.098   0.382   0.210 -0.2157 -0.2580  0.1694
 6055TIP3    H142360   4.034   0.391   0.140  1.3036 -0.8631 -1.3536
 6055TIP3    H242361   4.092   0.290   0.236  0.7997 -0.6185 -0.7900
 6056TIP3   OH242362   0.428   1.645   2.780 -0.2328  0.8371  0.2704
 6056TIP3    H142363   0.459   1.732   2.807  1.4043 -0.2199  2.0761
 6056TIP3    H242364   0.450   1.588   2.853  0.5738 -1.4848 -1.6410
 6057TIP3   OH242365   0.670   4.604   0.597  0.1909  0.4645  0.5609
 6057TIP3    H142366   0.619   4.533   0.558 -0.6884  0.9037  0.8761
 6057TIP3    H242367   0.750   4.607   0.546  0.1888 -0.6745  0.4670
 6058TIP3   OH242368   4.828   0.231   9.718  0.5585 -0.0785 -0.2875
 6058TIP3    H142369   4.857   0.298   9.780  2.0115 -1.8863  1.0812
 6058TIP3    H242370   4.844   0.270   9.632  0.7918  1.5440  0.4619
 6059TIP3   OH242371   1.562   3.435   1.596 -0.0932  0.4480 -0.1077
 6059TIP3    H142372   1.528   3.519   1.565 -1.5071 -0.1010 -0.1003
 6059TIP3    H242373   1.548   3.437   1.691  0.0496  0.2791 -0.0815
 6060TIP3   OH242374   6.181   2.722   9.566  0.1906 -0.3126 -0.5953
 6060TIP3    H142375   6.220   2.807   9.586 -0.7081  0.2152 -1.0543
 6060TIP3    H242376   6.122   2.704   9.639  2.0960 -1.6668  0.7096
 6061TIP3   OH242377   5.750   2.594   8.956  0.6130 -0.4049 -0.5973
 6061TIP3    H142378   5.696   2.619   8.881  0.9911 -1.4907 -1.2514
 6061TIP3    H242379   5.726   2.504   8.975 -0.6397  0.3242  1.6535
 6062TIP3   OH242380   0.548   4.589   0.920  0.7817 -0.6157  0.3066
 6062TIP3    H142381   0.542   4.498   0.947 -0.3820 -0.4928  0.5457
 6062TIP3    H242382   0.457   4.621   0.925  1.2212  0.6426  0.5864
 6063TIP3   OH242383   2.331   5.675   7.228 -1.0203 -0.0639  0.6176
 6063TIP3    H142384   2.362   5.615   7.160  0.9920  2.9468 -1.3874
 6063TIP3    H242385   2.284   5.743   7.180  0.6131  2.2769  2.1199
 6064TIP3   OH242386   1.703   2.819   1.542 -0.1541  0.1707  0.3318
 6064TIP3    H142387   1.700   2.801   1.448  0.0682  0.0031  0.3559
 6064TIP3    H242388   1.612   2.816   1.570 -0.3579  1.5051 -0.1191
 6065TIP3   OH242389   0.897   5.890   1.878 -0.0673  0.2521 -0.2513
 6065TIP3    H142390   0.906   5.869   1.971  1.4387 -0.5470 -0.5491
 6065TIP3    H242391   0.803   5.890   1.862 -0.2928 -1.3102  0.9143
 6066TIP3   OH242392   0.137   2.395   8.417 -0.0979 -0.6294 -0.3384
 6066TIP3    H142393   0.225   2.382   8.451  0.2147  1.6448 -0.1136
 6066TIP3    H242394   0.134   2.488   8.393 -2.0268 -0.9497 -1.5409
 6067TIP3   OH242395   4.189   1.912   9.384  0.1029  0.1303 -0.2907
 6067TIP3    H142396   4.112   1.887   9.435 -0.2651  0.0909 -0.8564
 6067TIP3    H242397   4.253   1.939   9.450 -0.1521 -0.4840  0.2221
 6068TIP3   OH242398   4.040   0.594   3.018 -0.0360 -0.2583 -0.2008
 6068TIP3    H142399   4.106   0.642   3.068 -0.7790 -0.2441  0.8115
 6068TIP3    H242400   3.956   0.624   3.054 -0.6399  0.1917 -1.8696
 6069TIP3   OH242401   1.348   1.804   0.462 -0.0342 -0.2868 -0.2873
 6069TIP3    H142402   1.261   1.786   0.425  0.2088  0.6642 -1.3803
 6069TIP3    H242403   1.350   1.900   0.471  0.1377 -0.4480  1.6982
 6070TIP3   OH242404   1.320   4.887   9.295 -0.8596  0.1351  0.1636
 6070TIP3    H142405   1.414   4.900   9.310 -0.3017 -2.4270 -0.7229
 6070TIP3    H242406   1.300   4.944   9.220  0.3296 -0.2933 -0.5155
 6071TIP3   OH242407   1.724   6.667   0.691 -0.0036 -0.0582  0.2562
 6071TIP3    H142408   1.774   6.736   0.646  0.1957  0.7246  1.6202
 6071TIP3    H242409   1.636   6.703   0.698  0.4374  0.7423  2.2835
 6072TIP3   OH242410   3.723   7.370   7.886  0.2898  0.1353  0.1050
 6072TIP3    H142411   3.795   7.306   7.891  0.5167  0.3337 -0.5339
 6072TIP3    H242412   3.767   7.455   7.891  0.1895  0.2749 -1.1681
 6073TIP3   OH242413   7.354   5.230   7.240  0.0670  0.1458 -0.3491
 6073TIP3    H142414   7.287   5.166   7.219 -1.7472  1.2264  1.7754
 6073TIP3    H242415   7.309   5.315   7.241  1.8887  1.1926 -0.7862
 6074TIP3   OH242416   5.090   7.336   7.715  0.3439 -0.7372  0.3824
 6074TIP3    H142417   5.011   7.346   7.768  0.9009  0.1449  1.0661
 6074TIP3    H242418   5.059   7.341   7.624 -0.3026  0.3413  0.6454
 6075TIP3   OH242419   3.946   1.812   0.548 -0.1635 -0.2337 -0.9076
 6075TIP3    H142420   4.036   1.781   0.554  0.6799  2.0671 -0.6326
 6075TIP3    H242421   3.928   1.815   0.454 -0.8344 -2.8581 -0.9378
 6076TIP3   OH242422   1.866   4.095   8.218  0.1839 -0.3096 -0.1239
 6076TIP3    H142423   1.895   4.015   8.261  0.7938 -0.5413 -0.9502
 6076TIP3    H242424   1.927   4.162   8.249 -0.7917  0.0220  1.1726
 6077TIP3   OH242425   5.016   0.519   0.210  0.0393 -0.1659  0.2471
 6077TIP3    H142426   5.037   0.430   0.182  0.8873 -1.0857  3.3799
 6077TIP3    H242427   5.056   0.575   0.143  0.5078 -2.0990 -1.1963
 6078TIP3   OH242428   2.193   3.564   9.984 -0.0032 -0.2465 -0.1952
 6078TIP3    H142429   2.152   3.554   9.899  1.6359  0.9628 -1.1997
 6078TIP3    H242430   2.131   3.615  10.035 -0.5282 -0.0261 -1.0431
 6079TIP3   OH242431   7.231   5.201   9.959 -0.1138  0.3118  0.1709
 6079TIP3    H142432   7.315   5.187   9.914 -0.5983 -0.1801 -0.6051
 6079TIP3    H242433   7.251   5.264  10.028  0.5982  1.3901 -0.9607
 6080TIP3   OH242434   0.704   5.300   8.992  0.3966 -0.0344 -0.3438
 6080TIP3    H142435   0.653   5.222   9.016  2.1072 -1.2877 -0.5973
 6080TIP3    H242436   0.638   5.364   8.964 -1.1341 -0.9759  0.9461
 6081TIP3   OH242437   4.290   6.417   8.957  0.0690  0.1862  0.0956
 6081TIP3    H142438   4.365   6.451   9.006  0.4953 -1.5539  0.7233
 6081TIP3    H242439   4.213   6.446   9.006  0.4501 -0.5035  1.1284
 6082TIP3   OH242440   7.439   2.521   7.968  0.3106 -0.1042  0.1207
 6082TIP3    H142441   7.390   2.602   7.957  0.7759  0.2613  0.6778
 6082TIP3    H242442   7.523   2.549   8.004  1.1394 -0.6615 -1.3068
 6083TIP3   OH242443   7.002   6.586   7.788 -0.4337 -0.0148  0.4715
 6083TIP3    H142444   7.094   6.582   7.761 -0.4102  0.4332  0.4675
 6083TIP3    H242445   6.991   6.511   7.847 -0.9412 -2.0636 -2.0774
 6084TIP3   OH242446   5.882   7.309   7.842 -0.2680 -0.2154  0.6631
 6084TIP3    H142447   5.890   7.381   7.905  0.2339 -0.2194  0.6111
 6084TIP3    H242448   5.788   7.293   7.835 -0.6138  1.9583 -1.0331
 6085TIP3   OH242449   7.124   4.189   9.923  0.0446 -0.4378 -0.4015
 6085TIP3    H142450   7.074   4.247   9.865  0.9804  0.3223 -0.4758
 6085TIP3    H242451   7.186   4.144   9.865 -0.0836 -0.8655 -0.2131
 6086TIP3   OH242452   4.116   7.222   0.362  0.2062  0.2207  0.5364
 6086TIP3    H142453   4.117   7.141   0.309  1.2487  1.8255 -2.1230
 6086TIP3    H242454   4.205   7.228   0.397 -0.6583 -1.1697  3.1938
 6087TIP3   OH242455   1.106   0.098   8.268  0.1358  0.5917 -0.4515
 6087TIP3    H142456   1.013   0.097   8.247 -0.3699 -1.5736  1.5027
 6087TIP3    H242457   1.112   0.141   8.353  0.9668  0.9631 -0.6849
 6088TIP3   OH242458   5.623   6.826   2.114  0.2151  0.1193  0.2011
 6088TIP3    H142459   5.615   6.731   2.124 -1.5119  0.3445  1.4942
 6088TIP3    H242460   5.569   6.862   2.184  0.4144  2.0693 -0.5771
 6089TIP3   OH242461   3.536   0.907   1.557  0.4026  0.3367  0.9768
 6089TIP3    H142462   3.612   0.890   1.502  0.6348  2.3982  0.5909
 6089TIP3    H242463   3.572   0.913   1.646  0.1693 -1.9532  1.2968
 6090TIP3   OH242464   3.659   0.090   9.022 -0.2485 -0.6752 -0.3738
 6090TIP3    H142465   3.698   0.027   9.083  0.2710  1.9601  2.2269
 6090TIP3    H242466   3.732   0.118   8.967  0.1995 -0.1770  0.4602
 6091TIP3   OH242467   2.486   1.288   7.178 -0.3744 -0.1605 -0.1221
 6091TIP3    H142468   2.492   1.222   7.109  1.0837 -0.4638  0.2844
 6091TIP3    H242469   2.469   1.239   7.258  1.5445 -0.1478  0.3217
 6092TIP3   OH242470   0.199   4.326   1.714 -0.2311  0.5834 -0.3588
 6092TIP3    H142471   0.172   4.237   1.691 -0.4143  0.4254  0.4305
 6092TIP3    H242472   0.148   4.383   1.656  1.6596  0.1181 -2.5753
 6093TIP3   OH242473   4.328   5.344   9.374  0.5614  0.1135 -0.1073
 6093TIP3    H142474   4.322   5.396   9.454 -1.4596  0.4832 -0.4482
 6093TIP3    H242475   4.406   5.290   9.386 -0.4011 -0.8066  2.6823
 6094TIP3   OH242476   0.427   6.466   7.387 -1.1187  0.1124 -0.5288
 6094TIP3    H142477   0.384   6.530   7.330 -0.4440 -1.4224 -2.9182
 6094TIP3    H242478   0.390   6.382   7.361  1.9684 -1.0824 -1.5278
 6095TIP3   OH242479   5.849   2.362   7.125 -0.3598  0.5302 -0.4389
 6095TIP3    H142480   5.853   2.448   7.083 -0.8420  0.8177  0.0961
 6095TIP3    H242481   5.912   2.367   7.197  0.1990  0.1583 -0.8879
 6096TIP3   OH242482   2.354   6.978   2.850  0.7203 -0.4261  0.1849
 6096TIP3    H142483   2.433   7.016   2.890  1.2360  0.4688 -1.5822
 6096TIP3    H242484   2.304   6.944   2.924  2.4134 -0.3716  1.4324
 6097TIP3   OH242485   1.896   4.844   0.845 -0.1442  0.1538  0.0240
 6097TIP3    H142486   1.810   4.840   0.887 -0.7011  1.3904 -0.9581
 6097TIP3    H242487   1.905   4.934   0.815  1.2503 -0.1048 -0.4246
 6098TIP3   OH242488   6.097   5.130   9.438  0.0149 -0.1954  1.0536
 6098TIP3    H142489   6.168   5.193   9.441 -0.9313  1.2536 -2.3456
 6098TIP3    H242490   6.036   5.159   9.507  1.9010 -0.5917  2.9981
 6099TIP3   OH242491   2.894   2.056   0.448  0.6824 -0.9141  0.1891
 6099TIP3    H142492   2.835   1.982   0.458  0.4380 -0.5532  1.7704
 6099TIP3    H242493   2.967   2.036   0.507  1.2879 -0.5268 -0.4128
 6100TIP3   OH242494   7.296   6.722   8.647  0.4302 -0.2523  0.3493
 6100TIP3    H142495   7.301   6.660   8.574 -0.3224 -1.0497  0.9623
 6100TIP3    H242496   7.355   6.793   8.621 -0.3644 -0.1623 -1.3744
 6101TIP3   OH242497   4.543   7.301   6.995 -0.0705  0.2856 -0.1185
 6101TIP3    H142498   4.545   7.209   7.020 -1.9104  1.1496  4.0618
 6101TIP3    H242499   4.484   7.304   6.919 -1.7600 -1.7870  1.0146
 6102TIP3   OH242500   6.101   1.928   0.318  0.5260  0.4955 -0.0573
 6102TIP3    H142501   6.017   1.939   0.273 -0.1502 -1.9914  0.4688
 6102TIP3    H242502   6.143   1.854   0.273  3.1107  2.4410 -1.1715
 6103TIP3   OH242503   4.345   6.536   7.982 -0.1692 -0.3039  0.2924
 6103TIP3    H142504   4.377   6.548   7.893  0.4589 -0.1508  0.5357
 6103TIP3    H242505   4.424   6.528   8.036 -0.5411 -0.5153  0.8200
 6104TIP3   OH242506   6.609   2.487   7.713 -0.2321 -0.1587  0.3824
 6104TIP3    H142507   6.605   2.554   7.644 -0.3914  0.1313  0.6724
 6104TIP3    H242508   6.679   2.428   7.685  1.7722  1.6008  1.4276
 6105TIP3   OH242509   6.396   0.200   2.439 -0.1074 -0.2714  0.0049
 6105TIP3    H142510   6.486   0.178   2.414 -0.0705 -0.2774  0.1457
 6105TIP3    H242511   6.343   0.171   2.365 -0.1280 -1.3501  0.4192
 6106TIP3   OH242512   7.523   1.176   7.577  0.1109 -0.1092 -0.0691
 6106TIP3    H142513   7.574   1.132   7.645  0.6524  0.7683  0.1088
 6106TIP3    H242514   7.458   1.111   7.550  0.1897 -0.6352  0.9531
 6107TIP3   OH242515   5.729   0.848   9.675  0.5686  0.3213  0.0814
 6107TIP3    H142516   5.700   0.866   9.586  1.7966 -2.6067 -1.0641
 6107TIP3    H242517   5.691   0.762   9.695  2.4465 -0.2809  1.3097
 6108TIP3   OH242518   2.432   0.716   1.617 -0.1958  0.2734  0.5607
 6108TIP3    H142519   2.430   0.778   1.544 -0.6599  0.2336  0.5350
 6108TIP3    H242520   2.482   0.642   1.584 -2.5449 -0.8666 -0.6416
 6109TIP3   OH242521   6.699   5.124   6.757 -0.4155  1.1103 -0.4402
 6109TIP3    H142522   6.696   5.148   6.850  2.0925  1.4447 -0.3758
 6109TIP3    H242523   6.690   5.029   6.756  0.4100  1.0164  0.2302
 6110TIP3   OH242524   3.003   1.554   9.568  0.1411 -0.3560 -0.9046
 6110TIP3    H142525   2.993   1.516   9.481 -4.9033 -1.9746  0.0900
 6110TIP3    H242526   2.956   1.637   9.564 -1.2084 -1.0046  0.4807
 6111TIP3   OH242527   5.133   4.190   8.884  0.1704  0.3860 -0.5703
 6111TIP3    H142528   5.082   4.271   8.889  0.4710  0.5610 -0.3683
 6111TIP3    H242529   5.161   4.173   8.973 -1.0458 -0.6945 -0.3533
 6112TIP3   OH242530   2.547   0.539   7.260 -0.1321  0.1956  0.1947
 6112TIP3    H142531   2.471   0.485   7.282  0.2468  0.3670  2.1219
 6112TIP3    H242532   2.542   0.549   7.165 -2.6404  0.4041  0.2737
 6113TIP3   OH242533   2.865   2.553   2.389  0.7283  0.0210 -0.5204
 6113TIP3    H142534   2.898   2.642   2.376  0.5206  0.6741  2.5697
 6113TIP3    H242535   2.943   2.498   2.388  1.0427  0.4660 -0.8150
 6114TIP3   OH242536   1.640   0.896   0.265 -0.1027 -0.3491  0.0044
 6114TIP3    H142537   1.650   0.974   0.320 -0.7575 -0.2869  0.0318
 6114TIP3    H242538   1.679   0.826   0.318  1.9090  0.1955 -0.6423
 6115TIP3   OH242539   7.032   5.172   0.305  0.0505  0.8212  0.8722
 6115TIP3    H142540   6.942   5.175   0.338 -0.1373 -1.8600  0.8073
 6115TIP3    H242541   7.022   5.151   0.212  0.7148 -0.6641  1.1084
 6116TIP3   OH242542   1.897   5.414   2.553 -0.5642 -0.0670  0.4664
 6116TIP3    H142543   1.957   5.383   2.486  1.0640  0.7164  1.5046
 6116TIP3    H242544   1.830   5.346   2.559  0.4024 -1.1357 -0.4809
 6117TIP3   OH242545   5.421   2.418   8.296  0.1306  0.3644  0.4514
 6117TIP3    H142546   5.378   2.359   8.234 -1.5409  2.0057 -0.0705
 6117TIP3    H242547   5.382   2.396   8.381 -1.2808  1.3403  0.0976
 6118TIP3   OH242548   0.365   2.836   8.570 -0.0674 -0.0777  0.1420
 6118TIP3    H142549   0.372   2.809   8.479 -0.7386  0.3270 -0.0295
 6118TIP3    H242550   0.382   2.930   8.569 -1.6103  0.2135  0.2255
 6119TIP3   OH242551   7.041   5.627   0.030 -0.1559 -0.3115  0.2809
 6119TIP3    H142552   7.055   5.714   0.068  0.8609 -0.6447  0.7319
 6119TIP3    H242553   7.130   5.594   0.014 -0.5443 -0.8594 -0.8525
 6120TIP3   OH242554   3.419   0.018   9.481  0.1784 -0.3190 -0.1550
 6120TIP3    H142555   3.407   0.064   9.564  1.2720 -0.7340  0.2609
 6120TIP3    H242556   3.471   0.078   9.428 -1.2328  0.3047 -0.8878
 6121TIP3   OH242557   2.767   0.188   9.332  0.5352  0.6681  0.2689
 6121TIP3    H142558   2.792   0.137   9.255  0.4813  0.0007  0.6890
 6121TIP3    H242559   2.849   0.203   9.379  0.4134  0.0315  0.7039
 6122TIP3   OH242560   7.595   0.656   0.126  0.3774 -0.4636  0.7222
 6122TIP3    H142561   7.512   0.705   0.134  0.6534  0.5688 -1.6925
 6122TIP3    H242562   7.655   0.700   0.186 -0.2746  0.0872  0.9850
 6123TIP3   OH242563   0.010   5.623   8.184 -0.5293  0.3251  0.6727
 6123TIP3    H142564   0.037   5.715   8.181 -1.2308  0.5503  1.0052
 6123TIP3    H242565  -0.085   5.626   8.184 -0.5765 -0.4638 -0.7455
 6124TIP3   OH242566   3.591   5.558   9.236  0.1183  0.0188  0.2919
 6124TIP3    H142567   3.595   5.651   9.257 -0.5308  0.4549 -1.3740
 6124TIP3    H242568   3.681   5.527   9.246  0.3740  0.8509  0.6635
 6125TIP3   OH242569   1.391   4.024   6.898 -0.0227 -0.1411 -0.1497
 6125TIP3    H142570   1.401   3.977   6.815 -1.5012  1.6569 -1.4573
 6125TIP3    H242571   1.298   4.016   6.919 -0.5496  2.7317 -0.9023
 6126TIP3   OH242572   5.841   1.177   2.121 -0.0126 -0.0702  0.3322
 6126TIP3    H142573   5.763   1.222   2.155  0.7275  0.5413  1.2786
 6126TIP3    H242574   5.873   1.232   2.050  0.1551  0.2285  0.6387
 6127TIP3   OH242575   2.029   6.028   9.732  0.1044 -0.2627 -0.0204
 6127TIP3    H142576   2.082   6.038   9.654  1.2482 -0.6621  0.6833
 6127TIP3    H242577   1.968   6.102   9.729 -0.6302 -0.8881 -1.8404
 6128TIP3   OH242578   0.385   7.375   9.964  0.6923 -0.2749 -0.1755
 6128TIP3    H142579   0.365   7.281   9.963 -0.8922  0.0430  0.3023
 6128TIP3    H242580   0.424   7.390  10.051 -0.0160 -0.3023  0.1491
 6129TIP3   OH242581   3.203   3.085   9.854 -0.1214 -0.3430  0.2097
 6129TIP3    H142582   3.277   3.043   9.898  1.1176  0.0988 -1.3244
 6129TIP3    H242583   3.183   3.162   9.907  1.2274  0.0942  0.1252
 6130TIP3   OH242584   0.231   2.198   1.720 -0.5499  1.2083  0.1317
 6130TIP3    H142585   0.269   2.204   1.632 -2.1825  0.4240 -0.6939
 6130TIP3    H242586   0.254   2.110   1.749  0.1010  1.5158  0.5498
 6131TIP3   OH242587   4.017   7.230   2.354 -0.4149 -0.5451 -0.3103
 6131TIP3    H142588   4.024   7.175   2.431  0.7939  1.1087  0.8418
 6131TIP3    H242589   4.031   7.171   2.280  1.4989 -1.6777  0.8809
 6132TIP3   OH242590   3.196   1.789   7.656 -0.3663 -0.3249 -0.4844
 6132TIP3    H142591   3.156   1.713   7.614  1.6932 -2.8214  1.6703
 6132TIP3    H242592   3.124   1.830   7.705 -1.1162 -2.4577  0.3408
 6133TIP3   OH242593   1.413   1.191   1.939  0.4411  0.0659  0.7131
 6133TIP3    H142594   1.485   1.128   1.933 -0.2269 -0.6679  0.2010
 6133TIP3    H242595   1.334   1.138   1.928 -0.0856  1.2084 -1.5771
 6134TIP3   OH242596   1.520   6.856   9.615  0.8874  0.1004 -0.0130
 6134TIP3    H142597   1.589   6.904   9.569 -0.1201  0.7529 -0.8984
 6134TIP3    H242598   1.556   6.768   9.628  2.3218  0.7420  0.6111
 6135TIP3   OH242599   1.607   7.232   7.636 -0.1271 -0.5160 -0.2425
 6135TIP3    H142600   1.639   7.187   7.558 -0.4753 -1.9157  0.4046
 6135TIP3    H242601   1.602   7.165   7.703  0.1924  0.6788  1.0218
 6136TIP3   OH242602   1.311   5.603   9.695 -0.2242 -0.4483 -0.4162
 6136TIP3    H142603   1.310   5.513   9.662 -0.2116 -0.8960  0.7630
 6136TIP3    H242604   1.329   5.657   9.618 -0.2814 -1.4497 -1.1429
 6137TIP3   OH242605   5.930   7.655   1.680 -0.3723  0.1509  0.0439
 6137TIP3    H142606   5.982   7.582   1.647  0.6063  0.9038 -0.1303
 6137TIP3    H242607   5.841   7.638   1.647 -0.6270 -1.9690  1.6392
 6138TIP3   OH242608   4.276   3.815   9.657  0.6047 -0.1911  0.1843
 6138TIP3    H142609   4.327   3.835   9.578  1.1298  0.0620  0.5855
 6138TIP3    H242610   4.228   3.896   9.676 -0.5701 -0.6643 -0.6389
 6139TIP3   OH242611   6.410   1.126   6.913 -0.2199  0.2931 -0.2652
 6139TIP3    H142612   6.405   1.193   6.981  0.9308  0.1384 -0.0084
 6139TIP3    H242613   6.336   1.068   6.931  0.0881  0.2377  0.8862
 6140TIP3   OH242614   3.820   1.194   9.229  0.2797 -0.6045 -0.0502
 6140TIP3    H142615   3.752   1.244   9.183  0.4771  0.2350  0.5619
 6140TIP3    H242616   3.893   1.254   9.237  0.4865 -0.9597  0.7820
 6141TIP3   OH242617   7.124   1.447   8.834 -0.4113  0.5088 -0.3800
 6141TIP3    H142618   7.106   1.520   8.893  0.0084 -0.0108  0.3967
 6141TIP3    H242619   7.127   1.370   8.890  1.7556  0.2269 -0.7761
 6142TIP3   OH242620   4.415   3.278   7.975  0.1005 -0.3738 -0.3731
 6142TIP3    H142621   4.486   3.234   8.022  0.1809 -0.1762 -0.3102
 6142TIP3    H242622   4.437   3.267   7.883 -0.4080 -1.3520 -0.3849
 6143TIP3   OH242623   7.543   0.797   9.600  0.1145 -0.0892 -0.0116
 6143TIP3    H142624   7.519   0.767   9.688  3.2567 -0.8596  0.6820
 6143TIP3    H242625   7.570   0.888   9.612  2.7895 -0.8547  0.3757
 6144TIP3   OH242626   1.074   7.484   8.336 -0.0702  0.1025 -0.9796
 6144TIP3    H142627   1.017   7.437   8.275 -0.8656  0.9215 -0.8946
 6144TIP3    H242628   1.064   7.438   8.419 -0.7362  0.3312 -0.9278
 6145TIP3   OH242629   5.893   1.423   1.659 -0.3080 -0.0060  0.3566
 6145TIP3    H142630   5.962   1.485   1.632  0.5249  0.6221  3.5362
 6145TIP3    H242631   5.939   1.340   1.671 -0.5219 -0.0961  0.5539
 6146TIP3   OH242632   3.948   3.323   8.851  0.0672 -0.4111  0.2418
 6146TIP3    H142633   3.949   3.283   8.938 -1.4464  0.0063  0.4727
 6146TIP3    H242634   3.872   3.283   8.807 -0.3553  0.8242 -0.1868
 6147TIP3   OH242635   4.164   1.442   1.562 -0.4745  0.2808 -0.4961
 6147TIP3    H142636   4.083   1.491   1.566 -0.8347 -0.3004 -0.5434
 6147TIP3    H242637   4.164   1.400   1.476  0.3274  1.0330 -0.8732
 6148TIP3   OH242638   6.817   1.150   0.899 -0.1138  0.2309 -0.6765
 6148TIP3    H142639   6.901   1.127   0.941 -0.3811  0.8511  0.2173
 6148TIP3    H242640   6.759   1.077   0.921 -0.0677  0.2378 -0.5306
 6149TIP3   OH242641   6.065   3.050   8.024  0.5168  0.4615  0.0758
 6149TIP3    H142642   6.153   3.079   8.048  0.3404 -0.9208  2.7028
 6149TIP3    H242643   6.007   3.088   8.090 -0.7030  0.2512 -0.8177
 6150TIP3   OH242644   4.995   0.800   0.239  0.2622  0.2000  0.1106
 6150TIP3    H142645   4.917   0.764   0.197  1.5515 -0.9984 -1.3657
 6150TIP3    H242646   5.014   0.739   0.310  0.5632 -0.2336 -0.3331
 6151TIP3   OH242647   0.724   6.239   2.398 -0.0113  0.4001  0.1191
 6151TIP3    H142648   0.651   6.228   2.458 -0.5860  0.8026 -0.4939
 6151TIP3    H242649   0.684   6.239   2.311  1.0267 -2.8160 -0.5190
 6152TIP3   OH242650   1.640   4.687   8.119 -0.4044  0.0051 -0.0915
 6152TIP3    H142651   1.613   4.680   8.211  1.2212 -0.6016  0.3902
 6152TIP3    H242652   1.625   4.778   8.096  0.2501  0.4538  1.1676
 6153TIP3   OH242653   0.543   7.648   9.428 -0.0646 -0.0422  0.0431
 6153TIP3    H142654   0.542   7.560   9.391 -0.3872  0.3663 -0.9496
 6153TIP3    H242655   0.451   7.665   9.450 -0.3332  0.7489 -1.5354
 6154TIP3   OH242656   3.189   1.971   0.373 -0.3737 -0.3539  0.4144
 6154TIP3    H142657   3.174   2.052   0.421  0.3532  0.6862 -1.0206
 6154TIP3    H242658   3.276   1.942   0.401  1.0036  1.3971 -1.6798
 6155TIP3   OH242659   6.823   7.151   7.522  0.1663  0.5136  0.7876
 6155TIP3    H142660   6.833   7.061   7.490  1.3484  1.3695 -1.4611
 6155TIP3    H242661   6.737   7.151   7.565  0.1511 -1.6916  0.8857
 6156TIP3   OH242662   1.058   2.197   8.069 -0.1683 -0.1049  0.3562
 6156TIP3    H142663   1.087   2.261   8.004  1.7965 -0.1539  1.1300
 6156TIP3    H242664   1.057   2.245   8.152 -2.4454 -0.0991  0.3882
 6157TIP3   OH242665   1.384   7.056   2.533 -0.3090  0.4826 -0.3943
 6157TIP3    H142666   1.431   7.065   2.616 -0.2289 -3.1504  0.1146
 6157TIP3    H242667   1.299   7.097   2.550 -0.8777 -1.4318  2.1355
 6158TIP3   OH242668   6.054   2.001   8.936  0.0112 -0.5644  0.6426
 6158TIP3    H142669   6.129   1.969   8.986 -0.0371 -0.5370  0.7322
 6158TIP3    H242670   5.994   2.035   9.002  0.8048  1.3146  0.4569
 6159TIP3   OH242671   4.185   7.545   7.577  0.0542  0.1806  0.5826
 6159TIP3    H142672   4.206   7.634   7.547  0.7054  0.2058  1.1039
 6159TIP3    H242673   4.257   7.521   7.635  1.1904 -1.6426 -1.4042
 6160TIP3   OH242674   6.471   0.579   2.326  0.3847 -0.3034 -0.3881
 6160TIP3    H142675   6.448   0.648   2.264  0.7764  0.9981  0.8699
 6160TIP3    H242676   6.554   0.608   2.364  0.6240 -1.5468  0.0643
 6161TIP3   OH242677   6.551   3.418   8.909  0.4287  0.2583 -0.2481
 6161TIP3    H142678   6.494   3.368   8.851 -1.7485  2.1336  0.1340
 6161TIP3    H242679   6.499   3.430   8.989  1.8473  1.0001  0.5986
 6162TIP3   OH242680   2.093   5.984   2.347 -0.3124  0.2620 -0.4402
 6162TIP3    H142681   2.147   6.062   2.345 -0.4633  0.3465 -1.2050
 6162TIP3    H242682   2.020   6.003   2.288 -0.8618 -0.0820  0.1119
 6163TIP3   OH242683   4.241   4.304   9.265 -0.2846  0.1538  0.5772
 6163TIP3    H142684   4.287   4.221   9.274 -1.3399 -0.3835  1.2233
 6163TIP3    H242685   4.192   4.296   9.183  0.9723  0.8478 -0.2739
 6164TIP3   OH242686   0.724   7.579   8.004  0.1477 -0.9451 -0.2072
 6164TIP3    H142687   0.735   7.508   7.940  0.0451 -0.3766 -0.8671
 6164TIP3    H242688   0.728   7.659   7.951 -2.0839 -0.5190  0.1627
 6165TIP3   OH242689   3.549   1.320   9.033  0.0914  0.0063  0.1328
 6165TIP3    H142690   3.470   1.293   8.986  0.2762 -0.8976  0.3193
 6165TIP3    H242691   3.517   1.380   9.100 -0.7365 -1.8348  1.4653
 6166TIP3   OH242692   5.133   5.771   7.489 -0.0490 -0.1610 -0.5074
 6166TIP3    H142693   5.201   5.836   7.506 -0.8485  0.2494  1.3223
 6166TIP3    H242694   5.158   5.695   7.541 -0.9188 -0.0408  0.1113
 6167TIP3   OH242695   4.504   6.386   1.210  0.5992  0.4586  0.2062
 6167TIP3    H142696   4.573   6.341   1.161  0.0268  0.2510 -0.4325
 6167TIP3    H242697   4.448   6.424   1.142  0.3305  0.9946  0.7241
 6168TIP3   OH242698   2.701   1.293   2.111  0.1804 -0.7488  0.4384
 6168TIP3    H142699   2.703   1.230   2.183 -1.0130  1.1805  2.2688
 6168TIP3    H242700   2.650   1.250   2.043 -0.7341 -1.7147  1.6955
 6169TIP3   OH242701   1.423   0.434   7.179  0.0703  0.1564  0.1036
 6169TIP3    H142702   1.379   0.518   7.161  1.5191  0.4994 -2.3316
 6169TIP3    H242703   1.450   0.403   7.093  2.5923 -1.1293  1.2644
 6170TIP3   OH242704   1.778   4.114   0.908 -0.7594  0.4811  0.0801
 6170TIP3    H142705   1.762   4.136   0.816 -1.1936  0.3066  0.1094
 6170TIP3    H242706   1.808   4.195   0.947 -2.1578  0.9927  0.1486
 6171TIP3   OH242707   0.029   6.320   0.104  0.1822 -0.3629  0.0819
 6171TIP3    H142708  -0.012   6.343   0.187 -2.2106  0.1391 -1.1178
 6171TIP3    H242709   0.070   6.235   0.119 -0.9946 -0.7143  1.5405
 6172TIP3   OH242710   4.054   2.735   0.584 -0.3350  0.2216 -0.0145
 6172TIP3    H142711   4.123   2.734   0.518 -1.2527 -0.8710 -0.9799
 6172TIP3    H242712   3.974   2.757   0.536 -0.9500 -0.1560  0.8077
 6173TIP3   OH242713   3.834   2.528   9.120  0.1983 -0.8467  0.6091
 6173TIP3    H142714   3.805   2.443   9.153 -0.7025  0.1518  2.5208
 6173TIP3    H242715   3.925   2.536   9.151  0.9171 -1.8192 -1.0975
 6174TIP3   OH242716   6.804   2.486   2.384  0.0450  0.1233 -0.2002
 6174TIP3    H142717   6.867   2.548   2.421  1.7837 -1.7016  0.0512
 6174TIP3    H242718   6.847   2.401   2.390 -2.0491 -1.0753 -0.9962
 6175TIP3   OH242719   2.165   0.868   2.063 -0.2003  0.3657 -0.7987
 6175TIP3    H142720   2.070   0.863   2.058 -0.4185  1.1119  1.5274
 6175TIP3    H242721   2.191   0.926   1.991 -1.5255  0.4625 -1.2120
 6176TIP3   OH242722   4.128   4.356   0.025 -0.4735 -0.6929  0.0410
 6176TIP3    H142723   4.138   4.401  -0.059  2.7460  0.3090  0.8315
 6176TIP3    H242724   4.104   4.266   0.001 -3.2886  0.4077 -1.7203
 6177TIP3   OH242725   5.304   2.769   8.974 -0.2425  0.1176 -0.0745
 6177TIP3    H142726   5.281   2.849   9.022  1.0423  0.4571  0.0193
 6177TIP3    H242727   5.383   2.738   9.017 -0.3434 -0.8349 -0.5606
 6178TIP3   OH242728   1.178   7.022   1.639 -0.0206 -0.8679 -0.0706
 6178TIP3    H142729   1.236   7.022   1.715  0.6712 -1.9321 -0.5857
 6178TIP3    H242730   1.138   6.935   1.639  2.6638 -2.2904 -2.8794
 6179TIP3   OH242731   6.830   5.301   8.518 -0.3189 -0.1809  0.2124
 6179TIP3    H142732   6.886   5.311   8.441  1.2185  0.7358  1.3756
 6179TIP3    H242733   6.757   5.247   8.489  1.1625 -1.4020 -1.4021
 6180TIP3   OH242734   7.589   5.996   1.442 -0.4850 -0.2405  0.3628
 6180TIP3    H142735   7.583   6.082   1.399 -0.8274  0.6507  2.1231
 6180TIP3    H242736   7.683   5.985   1.459 -0.4035 -0.3736 -0.1548
 6181TIP3   OH242737   1.427   0.532   0.486  0.0883 -0.3905  0.5452
 6181TIP3    H142738   1.378   0.600   0.438  0.0980 -0.4233  0.4893
 6181TIP3    H242739   1.359   0.480   0.529  0.1319  0.7724  2.1118
 6182TIP3   OH242740   3.124   7.396   7.839  0.1067 -0.1777 -0.6731
 6182TIP3    H142741   3.042   7.438   7.812  0.7742  1.5596 -0.1008
 6182TIP3    H242742   3.190   7.433   7.781  0.7231 -0.4116 -0.1305
 6183TIP3   OH242743   5.790   5.794   8.352  0.5632  0.4879 -0.3464
 6183TIP3    H142744   5.865   5.804   8.293  0.0563 -0.1851 -1.1493
 6183TIP3    H242745   5.723   5.853   8.317  0.9859  1.7476  0.8820
 6184TIP3   OH242746   4.402   2.605   7.480 -0.3003  0.2443 -0.3448
 6184TIP3    H142747   4.321   2.632   7.523  0.5633  0.1225  1.4105
 6184TIP3    H242748   4.471   2.621   7.544  0.9426 -0.7757 -1.3598
 6185TIP3   OH242749   2.248   1.580   1.084  0.1095  0.0464  0.4873
 6185TIP3    H142750   2.181   1.614   1.143  0.1747  1.1397 -0.0394
 6185TIP3    H242751   2.330   1.588   1.134  0.0129 -0.0994  0.6677
 6186TIP3   OH242752   4.645   3.618   9.133  0.1147 -0.1684 -0.6871
 6186TIP3    H142753   4.551   3.604   9.121 -0.5854  0.7753  2.6767
 6186TIP3    H242754   4.670   3.557   9.202  1.9346 -0.1079 -1.2227
 6187TIP3   OH242755   1.595   4.730   9.914  0.1895 -0.1950  0.1443
 6187TIP3    H142756   1.640   4.794   9.858 -0.3577  0.3121  0.2803
 6187TIP3    H242757   1.629   4.646   9.885  0.1272  0.0794 -0.7687
 6188TIP3   OH242758   2.641   3.832   0.873  0.3110 -0.0128  0.3620
 6188TIP3    H142759   2.589   3.766   0.827  0.2866  0.4813 -0.3431
 6188TIP3    H242760   2.719   3.786   0.903 -1.0000 -1.0297  2.3915
 6189TIP3   OH242761   5.038   7.150   0.315 -0.4875  0.1012 -0.3169
 6189TIP3    H142762   5.065   7.118   0.228  0.5654 -0.7925  0.3135
 6189TIP3    H242763   5.054   7.245   0.311  0.4691 -0.0594 -0.7966
 6190TIP3   OH242764   3.525   0.423   8.392 -0.4152 -0.4768 -0.1681
 6190TIP3    H142765   3.551   0.451   8.481 -1.6227  0.7813 -0.1851
 6190TIP3    H242766   3.547   0.330   8.390 -0.3068 -0.5266  1.4361
 6191TIP3   OH242767   4.825   7.648   7.967 -0.3546  0.5860  0.0952
 6191TIP3    H142768   4.847   7.557   7.950  0.4942  0.3519  2.1694
 6191TIP3    H242769   4.841   7.693   7.884  1.1993 -0.8210 -0.4098
 6192TIP3   OH242770   6.689   7.564   7.071  0.0375  0.6441 -0.2342
 6192TIP3    H142771   6.720   7.492   7.126  1.1328  1.4025  0.1752
 6192TIP3    H242772   6.618   7.526   7.019  0.5146 -0.6902  0.0536
 6193TIP3   OH242773   1.213   6.763   8.925  0.6165 -0.1058 -0.3873
 6193TIP3    H142774   1.198   6.856   8.903 -1.2534 -0.7337 -2.1234
 6193TIP3    H242775   1.189   6.756   9.017 -0.6218  0.8836 -0.6071
 6194TIP3   OH242776   2.556   7.185   7.938  0.1264  0.1815  0.0050
 6194TIP3    H142777   2.538   7.148   8.024  2.2723 -2.2640 -0.4913
 6194TIP3    H242778   2.652   7.188   7.933  0.1060  3.4233 -1.0998
 6195TIP3   OH242779   6.168   7.617   9.302  0.0701  0.4504 -0.8192
 6195TIP3    H142780   6.181   7.522   9.310 -0.5929  0.4507  0.6006
 6195TIP3    H242781   6.149   7.631   9.209  0.3155 -0.7848 -1.0750
 6196TIP3   OH242782   7.056   6.431   0.657 -0.8821  0.2441  0.4581
 6196TIP3    H142783   7.148   6.457   0.654 -1.1408  1.0976 -1.7796
 6196TIP3    H242784   7.015   6.493   0.717 -0.2700  0.8146  0.2986
 6197TIP3   OH242785   5.272   0.334   9.410  0.2604 -0.3237 -0.4571
 6197TIP3    H142786   5.297   0.260   9.354  0.3361 -0.0326 -0.8042
 6197TIP3    H242787   5.289   0.302   9.499  0.7452 -0.5599 -0.6308
 6198TIP3   OH242788   6.443   6.167   9.979 -0.1535 -0.0792 -0.7355
 6198TIP3    H142789   6.377   6.182   9.911 -0.2236 -0.4672 -0.7509
 6198TIP3    H242790   6.462   6.074   9.975 -0.7379 -0.2552  0.3215
 6199TIP3   OH242791   5.871   5.129   7.054  0.7919  0.5492  1.0189
 6199TIP3    H142792   5.957   5.170   7.049  0.9651  0.0946 -2.0035
 6199TIP3    H242793   5.887   5.042   7.089  1.6458  0.3806  0.2542
 6200TIP3   OH242794   0.221   6.650   1.456 -0.1985  0.1764  0.3318
 6200TIP3    H142795   0.151   6.711   1.477 -0.0014  0.7854 -0.7605
 6200TIP3    H242796   0.242   6.666   1.364  0.0935 -1.2927  0.1127
 6201TIP3   OH242797   0.707   7.403   7.763  0.0937 -0.2002 -0.0031
 6201TIP3    H142798   0.629   7.367   7.722 -0.9532  1.8657  0.0375
 6201TIP3    H242799   0.767   7.419   7.690  0.6170 -2.0233 -0.0064
 6202TIP3   OH242800   6.563   1.472   7.426  0.3522 -0.7824  0.4283
 6202TIP3    H142801   6.548   1.546   7.485  0.0660 -1.1080  0.7716
 6202TIP3    H242802   6.499   1.406   7.454  0.4116 -1.0489 -0.0593
 6203TIP3   OH242803   3.642   0.245   8.705 -0.5128  0.2631  0.4503
 6203TIP3    H142804   3.556   0.212   8.729 -1.2739 -0.2864 -2.5755
 6203TIP3    H242805   3.625   0.332   8.668  0.2189  0.1971 -0.0657
 6204TIP3   OH242806   2.798   4.606   9.494 -0.6542  0.5503  0.1989
 6204TIP3    H142807   2.841   4.603   9.580 -1.5559 -1.1007  0.6406
 6204TIP3    H242808   2.731   4.674   9.503 -0.1171  1.0535  0.4754
 6205TIP3   OH242809   5.741   1.855   9.791 -0.4289  0.6742  0.3494
 6205TIP3    H142810   5.744   1.946   9.822 -1.0833  0.4293  1.1791
 6205TIP3    H242811   5.648   1.840   9.770 -0.4924 -0.0813  1.1154
 6206TIP3   OH242812   5.363   1.585   0.469  0.0624 -0.7214 -0.3335
 6206TIP3    H142813   5.279   1.573   0.514 -1.4249 -0.2606 -2.8348
 6206TIP3    H242814   5.369   1.680   0.455  1.6591 -0.5957  0.8970
 6207TIP3   OH242815   1.504   6.996   9.862 -0.4050  0.1412  0.1199
 6207TIP3    H142816   1.585   7.026   9.904  0.2814 -1.3192 -0.1278
 6207TIP3    H242817   1.524   6.997   9.769  0.1543 -2.4300  0.1597
 6208TIP3   OH242818   3.343   3.781   0.193 -0.4624 -0.0428 -0.0668
 6208TIP3    H142819   3.331   3.858   0.249 -0.5176  3.1857 -4.0014
 6208TIP3    H242820   3.259   3.772   0.147  0.4051 -0.6504 -1.6281
 6209TIP3   OH242821   5.363   6.106   7.290  0.1345  0.2119  0.0372
 6209TIP3    H142822   5.456   6.084   7.280 -0.2016 -0.7272 -1.2226
 6209TIP3    H242823   5.344   6.165   7.216 -0.7464 -1.2516 -0.9482
 6210TIP3   OH242824   5.480   1.537   1.397 -0.4703 -0.3056 -0.4422
 6210TIP3    H142825   5.568   1.574   1.395 -0.4557 -0.3439 -0.5080
 6210TIP3    H242826   5.490   1.447   1.365 -0.4373 -0.5103  0.1299
 6211TIP3   OH242827   5.453   4.920   9.722  0.5939 -0.3183 -0.3163
 6211TIP3    H142828   5.402   4.992   9.687 -0.1338 -0.5297  0.2863
 6211TIP3    H242829   5.544   4.946   9.709  0.3563 -0.1481 -1.8287
 6212TIP3   OH242830   6.226   2.142   7.764  0.1056 -0.0969 -0.8523
 6212TIP3    H142831   6.135   2.159   7.790 -0.7855 -2.2812 -2.2320
 6212TIP3    H242832   6.237   2.193   7.683  0.0149 -0.0303 -0.8221
 6213TIP3   OH242833   5.243   0.073   9.969 -0.8543  0.4387  0.0535
 6213TIP3    H142834   5.338   0.082   9.968 -0.7456  0.9017 -4.4168
 6213TIP3    H242835   5.225   0.021  10.047  2.9286  1.0392  1.5361
 6214TIP3   OH242836   6.543   0.125   0.515 -0.3761 -0.5142  0.1878
 6214TIP3    H142837   6.475   0.060   0.500 -1.3740  0.1487  1.5770
 6214TIP3    H242838   6.500   0.209   0.500  0.9231 -0.1275 -1.7021
 6215TIP3   OH242839   5.813   4.187   7.920  0.0187 -0.2344  0.0806
 6215TIP3    H142840   5.742   4.143   7.967 -0.4504 -0.1891 -0.5813
 6215TIP3    H242841   5.836   4.126   7.850  0.3219 -0.0423  0.0151
 6216TIP3   OH242842   5.309   0.041   2.126  0.1213  0.3437 -0.1617
 6216TIP3    H142843   5.377  -0.014   2.163  0.6542  0.7093 -0.5790
 6216TIP3    H242844   5.311   0.023   2.032 -2.0085 -1.4566  0.0508
 6217TIP3   OH242845   2.658   3.074   2.043  0.6359  0.2904  0.2153
 6217TIP3    H142846   2.573   3.115   2.058  0.5136  0.5541 -1.0944
 6217TIP3    H242847   2.702   3.077   2.129 -0.1363  1.3860  0.5878
 6218TIP3   OH242848   6.632   3.265   7.189 -0.4544  0.0140 -0.1447
 6218TIP3    H142849   6.565   3.250   7.256  0.0617 -1.7530  0.0207
 6218TIP3    H242850   6.596   3.226   7.110 -0.2615  0.4159 -0.4335
 6219TIP3   OH242851   2.378   4.304   7.067  0.3670  0.1045  0.0392
 6219TIP3    H142852   2.392   4.322   7.160 -1.5536 -0.7295  0.5449
 6219TIP3    H242853   2.396   4.211   7.058 -0.6175 -0.0763 -0.1495
 6220TIP3   OH242854   1.319   0.595   1.749  0.3464  0.3842 -0.4692
 6220TIP3    H142855   1.280   0.682   1.742 -1.2903 -0.1793  1.0002
 6220TIP3    H242856   1.352   0.577   1.661 -0.1559  2.0792 -1.0457
 6221TIP3   OH242857   7.228   3.653   7.809 -0.2538  0.2646  0.0009
 6221TIP3    H142858   7.213   3.564   7.841  1.0964  0.5292  1.4884
 6221TIP3    H242859   7.233   3.644   7.714  3.6759 -1.9262  0.2200
 6222TIP3   OH242860   0.016   4.829   8.379 -0.3825  0.6481 -0.2760
 6222TIP3    H142861  -0.062   4.795   8.424 -0.3906  1.8082  0.6457
 6222TIP3    H242862   0.024   4.919   8.410  1.2108  0.6230 -0.5291
 6223TIP3   OH242863   1.335   5.308   2.774 -0.0754 -0.0440  0.0493
 6223TIP3    H142864   1.362   5.269   2.857  0.4845 -1.4990 -0.7739
 6223TIP3    H242865   1.254   5.263   2.751  0.1054 -0.0956 -0.4966
 6224TIP3   OH242866   1.793   0.681   1.363 -0.1798 -0.3883  0.3895
 6224TIP3    H142867   1.873   0.665   1.414  0.1233 -1.2999 -0.3298
 6224TIP3    H242868   1.821   0.672   1.272 -1.3030 -1.8646  0.1397
 6225TIP3   OH242869   1.019   3.095   6.634 -0.0248 -0.3482  0.3195
 6225TIP3    H142870   1.080   3.115   6.563 -0.4536 -1.1118 -0.2891
 6225TIP3    H242871   1.069   3.109   6.714  1.6645 -2.8903 -0.1612
 6226TIP3   OH242872   3.957   5.231   9.984  0.2632 -0.1031  0.1506
 6226TIP3    H142873   4.051   5.232   9.998  0.0155 -1.8384  2.7110
 6226TIP3    H242874   3.939   5.146   9.944 -0.2038  0.3648 -0.6612
 6227TIP3   OH242875   3.277   3.013   8.745  0.1990 -0.0524 -0.0802
 6227TIP3    H142876   3.276   3.019   8.650 -0.6868  1.3352 -0.0191
 6227TIP3    H242877   3.185   3.005   8.770  0.4024 -0.1408  0.6766
 6228TIP3   OH242878   2.180   7.077   8.901 -0.2940 -0.0559  0.3339
 6228TIP3    H142879   2.257   7.076   8.958 -0.1417 -0.4325  0.1196
 6228TIP3    H242880   2.193   7.005   8.840  0.9582  2.0162 -2.0572
 6229TIP3   OH242881   3.653   1.612   8.690  0.2775 -0.0450  0.1822
 6229TIP3    H142882   3.632   1.592   8.781  1.4349  0.2517  0.5378
 6229TIP3    H242883   3.692   1.532   8.655 -0.0670 -0.1246 -0.0309
 6230TIP3   OH242884   0.117   5.952   8.155  0.0623 -0.2032  0.1057
 6230TIP3    H142885   0.175   5.919   8.224  0.7879 -0.4191 -0.5901
 6230TIP3    H242886   0.053   6.005   8.201  1.5313  1.0522  0.8024
 6231TIP3   OH242887   1.498   2.434   9.655 -0.2392  0.0197 -0.2246
 6231TIP3    H142888   1.556   2.410   9.728 -1.0925 -1.0479  0.1297
 6231TIP3    H242889   1.558   2.452   9.583  0.5678 -3.0912 -0.4807
 6232TIP3   OH242890   2.910   7.370   2.421  0.5035  0.6912 -0.1280
 6232TIP3    H142891   2.859   7.289   2.428  1.0552  0.4522  1.5728
 6232TIP3    H242892   2.919   7.384   2.326  1.4814 -1.9384 -0.5184
 6233TIP3   OH242893   0.405   1.092   8.919 -0.4559 -0.3452 -0.7096
 6233TIP3    H142894   0.370   1.135   8.996  1.4328 -0.5571  0.3159
 6233TIP3    H242895   0.403   1.159   8.851  1.0342  0.9633  0.4594
 6234TIP3   OH242896   3.580   2.774   9.630  0.4277  0.1367 -0.4008
 6234TIP3    H142897   3.613   2.856   9.593  1.7688  0.2737  1.0162
 6234TIP3    H242898   3.634   2.706   9.591  0.8515  0.1429  0.1762
 6235TIP3   OH242899   7.633   2.506   1.559 -0.7306 -0.2637 -0.1533
 6235TIP3    H142900   7.725   2.524   1.543 -0.7497 -0.7757 -0.8911
 6235TIP3    H242901   7.598   2.587   1.596  0.4849 -0.7199  2.2366
 6236TIP3   OH242902   2.116   3.803   8.765 -0.1205 -0.2966 -0.8144
 6236TIP3    H142903   2.083   3.892   8.775 -0.4985 -0.5337  0.1556
 6236TIP3    H242904   2.056   3.763   8.702 -0.1201  0.0501 -1.0364
 6237TIP3   OH242905   6.767   6.693   7.868  0.0260  0.0543 -0.5498
 6237TIP3    H142906   6.729   6.613   7.905 -0.3231 -0.9771 -2.8973
 6237TIP3    H242907   6.841   6.662   7.816 -0.6602  1.0904 -2.2536
 6238TIP3   OH242908   1.726   5.094   9.156  0.2158 -0.7032  0.3782
 6238TIP3    H142909   1.811   5.138   9.145  0.1095 -0.9714 -1.9841
 6238TIP3    H242910   1.693   5.126   9.240  1.4704  1.4173  0.1226
 6239TIP3   OH242911   0.853   0.782   1.364  0.4776  0.3658  0.2491
 6239TIP3    H142912   0.807   0.863   1.387  1.6272  0.8541  0.9351
 6239TIP3    H242913   0.945   0.807   1.361  0.7165 -0.5737 -1.1512
 6240TIP3   OH242914   0.394   2.793   2.177  0.8453  0.2475  0.8434
 6240TIP3    H142915   0.418   2.703   2.203  1.9780  0.6723  1.3293
 6240TIP3    H242916   0.327   2.818   2.240 -0.6400 -0.7921 -0.2446
 6241TIP3   OH242917   2.655   4.833   8.976 -0.2134  0.1824  0.1402
 6241TIP3    H142918   2.565   4.804   8.966 -1.2981  3.3910 -0.4361
 6241TIP3    H242919   2.678   4.807   9.066 -1.0082 -2.2387 -0.2873
 6242TIP3   OH242920   3.460   6.893   8.024  0.9732 -0.6848 -0.5355
 6242TIP3    H142921   3.496   6.890   8.112  1.3189  0.6523 -0.6130
 6242TIP3    H242922   3.526   6.940   7.973 -0.1844  0.4670 -1.0232
 6243TIP3   OH242923   2.816   4.621   8.817 -0.0973  0.3593  0.0956
 6243TIP3    H142924   2.801   4.633   8.911  1.0242  1.1530  0.1925
 6243TIP3    H242925   2.843   4.707   8.786  1.2218 -0.2911 -0.6269
 6244TIP3   OH242926   5.549   5.873   7.135  0.6713 -0.0951 -0.4645
 6244TIP3    H142927   5.577   5.956   7.176  1.1343  0.0004 -0.9742
 6244TIP3    H242928   5.492   5.833   7.201  2.0040 -0.3027  0.6147
 6245TIP3   OH242929   4.164   7.450   7.158 -0.0133 -0.4307 -0.0176
 6245TIP3    H142930   4.113   7.485   7.085 -1.2764 -0.4903  0.7938
 6245TIP3    H242931   4.105   7.389   7.201  1.5510 -2.2964 -0.3762
 6246TIP3   OH242932   0.502   3.061   7.986 -0.2424 -0.4528  0.0606
 6246TIP3    H142933   0.513   3.006   7.909  2.6633 -3.9182  2.5801
 6246TIP3    H242934   0.418   3.034   8.023  0.1512 -1.7160  0.0933
 6247TIP3   OH242935   0.228   4.165   9.197  0.5880 -0.3180 -0.0553
 6247TIP3    H142936   0.265   4.107   9.130  0.5728  0.2767 -0.5861
 6247TIP3    H242937   0.294   4.234   9.207  0.3682 -0.1442  0.1945
 6248TIP3   OH242938   6.089   2.120   1.730  1.1988  0.3967 -0.0979
 6248TIP3    H142939   6.157   2.169   1.683  1.2669  1.6914  1.3104
 6248TIP3    H242940   6.057   2.180   1.797  0.6742 -1.1825  1.1310
 6249TIP3   OH242941   0.578   1.935   9.498  0.0013 -0.0196  0.5126
 6249TIP3    H142942   0.660   1.887   9.490  0.7324  1.1102  1.1091
 6249TIP3    H242943   0.511   1.866   9.504  0.6553 -0.9933 -1.9159
 6250TIP3   OH242944   0.303   2.743   7.405 -0.4224  0.0911  0.5140
 6250TIP3    H142945   0.315   2.837   7.420 -1.6416  0.6452 -1.6033
 6250TIP3    H242946   0.260   2.738   7.320 -1.7519 -2.3290  1.2476
 6251TIP3   OH242947   6.401   4.979   9.264 -0.2996  0.4600  0.0758
 6251TIP3    H142948   6.369   4.917   9.198  0.7217  0.7037 -0.6845
 6251TIP3    H242949   6.405   4.928   9.345  0.2959 -0.4184 -0.4830
 6252TIP3   OH242950   2.908   5.053   8.090 -0.1878 -0.1790 -0.2914
 6252TIP3    H142951   2.840   5.049   8.158  1.4755  2.8906  1.7963
 6252TIP3    H242952   2.877   5.120   8.030  0.1794 -0.0443 -0.3322
 6253TIP3   OH242953   0.429   3.054   1.338 -0.6521 -0.0763  0.1751
 6253TIP3    H142954   0.499   2.990   1.338  0.1588  0.6532 -3.1390
 6253TIP3    H242955   0.469   3.133   1.375  0.4520  0.4160 -1.9366
 6254TIP3   OH242956   7.326   7.638   9.281  0.3404  0.4592 -0.0506
 6254TIP3    H142957   7.329   7.592   9.365  0.8490  2.1188  0.8931
 6254TIP3    H242958   7.417   7.659   9.261  0.1370  0.9468 -0.5048
 6255TIP3   OH242959   3.825   2.538   8.058 -0.3830  0.0067 -0.0248
 6255TIP3    H142960   3.817   2.489   8.140 -0.4733  1.0737  0.6259
 6255TIP3    H242961   3.919   2.540   8.040 -0.3150  0.2356  0.3513
 6256TIP3   OH242962   7.416   2.079   2.909  0.0242 -0.4958  0.3122
 6256TIP3    H142963   7.404   2.161   2.956  1.0971 -0.3528  0.3687
 6256TIP3    H242964   7.442   2.016   2.977 -2.1824 -1.2791  0.5176
 6257TIP3   OH242965   6.754   6.952   2.378 -0.1522 -0.0441 -0.1811
 6257TIP3    H142966   6.742   7.021   2.443 -2.2798  2.0158 -2.5052
 6257TIP3    H242967   6.708   6.876   2.413  0.4156  0.3719  1.5257
 6258TIP3   OH242968   7.470   5.140   7.555 -0.4458  0.5100  0.1542
 6258TIP3    H142969   7.378   5.117   7.570 -0.2374 -1.1018 -0.8526
 6258TIP3    H242970   7.503   5.162   7.642 -0.9177 -2.2179  1.1007
 6259TIP3   OH242971   5.611   3.200   9.955 -0.4157 -0.5034  0.1679
 6259TIP3    H142972   5.683   3.206  10.018 -0.0064  1.5569 -0.4133
 6259TIP3    H242973   5.557   3.277   9.974 -0.9207 -0.4990 -1.2331
 6260TIP3   OH242974   5.215   1.588   2.095  0.2485 -0.1674  0.0671
 6260TIP3    H142975   5.258   1.617   2.175 -0.7701  1.2931  0.1196
 6260TIP3    H242976   5.130   1.555   2.124 -0.0016  0.0820 -0.3712
 6261TIP3   OH242977   5.241   3.051   9.025 -0.1954  0.8647  1.2209
 6261TIP3    H142978   5.159   3.069   8.980  0.4605  0.6303 -0.1225
 6261TIP3    H242979   5.309   3.087   8.967  0.7683 -0.7710  1.2744
 6262TIP3   OH242980   1.816   6.012   2.726 -0.5927  0.4074  0.3831
 6262TIP3    H142981   1.856   5.952   2.789 -0.1993 -1.3952 -1.4424
 6262TIP3    H242982   1.740   5.964   2.692 -1.8233  2.0399  0.7051
 6263TIP3   OH242983   4.334   7.590   2.266 -0.5890  0.3613  0.0101
 6263TIP3    H142984   4.363   7.578   2.175 -2.6318  1.1834 -0.7975
 6263TIP3    H242985   4.249   7.547   2.270 -0.1083 -0.5081  1.8413
 6264TIP3   OH242986   0.133   1.789   3.027 -0.1445  0.0178  0.1868
 6264TIP3    H142987   0.082   1.805   3.107 -0.8884  0.6454 -0.3923
 6264TIP3    H242988   0.203   1.730   3.054 -1.3779 -1.1781  0.9582
 6265TIP3   OH242989   6.791   1.157   9.774  0.3525  0.2642  0.3032
 6265TIP3    H142990   6.837   1.234   9.807 -0.3982  1.4220 -1.2488
 6265TIP3    H242991   6.742   1.124   9.849  1.7844  0.4271  1.3579
 6266TIP3   OH242992   1.614   5.243   0.483  0.5007 -0.1347 -0.4348
 6266TIP3    H142993   1.562   5.306   0.433 -0.6655  0.0015  0.8922
 6266TIP3    H242994   1.569   5.237   0.567 -0.5472 -4.1320 -1.0781
 6267TIP3   OH242995   3.418   6.301   8.345  0.6549  0.3635 -0.0827
 6267TIP3    H142996   3.323   6.305   8.332  0.7658 -1.2492 -1.7792
 6267TIP3    H242997   3.429   6.275   8.436 -0.6069 -1.3859 -0.3904
 6268TIP3   OH242998   1.796   3.883   8.821  0.1395  0.0066  0.5019
 6268TIP3    H142999   1.772   3.805   8.771 -0.7355  0.6606 -0.1093
 6268TIP3    H243000   1.807   3.951   8.755 -0.4203  0.7287  1.1464
 6269TIP3   OH243001   2.983   1.684   0.567  0.0935 -0.0508 -0.2896
 6269TIP3    H143002   2.964   1.670   0.660  0.0798  2.5018  0.1555
 6269TIP3    H243003   2.900   1.714   0.530  0.0355 -1.2852 -1.2219
 6270TIP3   OH243004   6.549   6.854   7.799 -0.1442  0.2639 -0.4036
 6270TIP3    H143005   6.616   6.800   7.841 -0.0461  1.5251  1.1198
 6270TIP3    H243006   6.597   6.929   7.765 -0.4867  0.0962 -1.2800
 6271TIP3   OH243007   0.964   0.531   2.700 -0.2194 -0.2398  0.0118
 6271TIP3    H143008   0.951   0.517   2.794 -1.8979  1.6165  0.1211
 6271TIP3    H243009   0.883   0.498   2.660 -0.8407  1.6928 -0.4359
 6272TIP3   OH243010   0.444   5.949   8.586 -0.0692 -0.2921  0.0031
 6272TIP3    H143011   0.426   5.923   8.495  3.5257 -0.7810 -0.7076
 6272TIP3    H243012   0.379   5.901   8.637  0.1561 -3.0719 -2.0451
 6273TIP3   OH243013   0.315   7.112   9.966 -0.5769 -0.0378 -0.1589
 6273TIP3    H143014   0.325   7.033   9.912 -2.5453 -0.5074  0.0933
 6273TIP3    H243015   0.221   7.132   9.963 -0.2964  1.6257  0.7407
 6274TIP3   OH243016   2.750   4.305   7.825  0.1078 -0.5307 -0.6622
 6274TIP3    H143017   2.722   4.322   7.914  0.8929  0.0836 -0.5231
 6274TIP3    H243018   2.719   4.216   7.806 -0.3208 -0.5484  0.1100
 6275TIP3   OH243019   4.028   0.498   2.203  0.1356 -0.4279  0.2806
 6275TIP3    H143020   4.068   0.539   2.127 -0.4498 -0.0140  0.1847
 6275TIP3    H243021   4.049   0.555   2.276 -3.6919  2.2220 -0.3671
 6276TIP3   OH243022   1.400   3.066   1.365 -0.3786  0.3073 -0.3190
 6276TIP3    H143023   1.394   3.161   1.360  1.0656  0.4634  0.3271
 6276TIP3    H243024   1.466   3.043   1.299 -1.7539 -0.4141 -1.4940
 6277TIP3   OH243025   1.568   2.314   8.707  0.4587 -0.5667  0.2373
 6277TIP3    H143026   1.622   2.248   8.752  1.0087 -0.2702  0.0234
 6277TIP3    H243027   1.552   2.380   8.774  0.3347 -0.6675  0.3087
 6278TIP3   OH243028   4.748   0.382   1.142 -0.1180  0.1679  0.2721
 6278TIP3    H143029   4.800   0.364   1.220  3.0609  2.3763 -1.1002
 6278TIP3    H243030   4.798   0.343   1.070  0.0497  2.7656 -1.1753
 6279TIP3   OH243031   5.151   2.410   1.555  0.7405  0.1045  0.2443
 6279TIP3    H143032   5.061   2.442   1.547  1.5058  2.5850  0.7281
 6279TIP3    H243033   5.167   2.406   1.649  1.9043  2.2588  0.2020
 6280TIP3   OH243034   5.754   1.059   8.212  0.4379  0.3197  0.4559
 6280TIP3    H143035   5.664   1.032   8.228 -0.7752  2.1130 -2.3720
 6280TIP3    H243036   5.802   1.033   8.290 -2.2305 -1.9159  1.5106
 6281TIP3   OH243037   4.068   0.632   2.430 -0.3498 -0.1556 -0.5184
 6281TIP3    H143038   4.140   0.694   2.421 -0.5248 -0.0479 -1.2039
 6281TIP3    H243039   4.105   0.558   2.477 -0.3179  0.7710  0.9860
 6282TIP3   OH243040   6.419   3.823   6.999 -0.2998 -0.3036  0.6550
 6282TIP3    H143041   6.500   3.774   6.984  1.2361  1.0309  3.6691
 6282TIP3    H243042   6.359   3.760   7.037 -0.2363 -0.9716 -0.3039
 6283TIP3   OH243043   4.099   2.695   1.969  0.1345  0.0632 -0.1104
 6283TIP3    H143044   4.009   2.690   2.000  0.4482  0.4046  0.8925
 6283TIP3    H243045   4.152   2.696   2.049  1.0731 -0.8738 -0.6885
 6284TIP3   OH243046   4.028   6.125   0.170 -0.0412  0.0135  0.2930
 6284TIP3    H143047   4.095   6.173   0.122 -0.1884  0.7167  0.7665
 6284TIP3    H243048   4.073   6.047   0.203  0.4388  0.2760  0.2691
 6285TIP3   OH243049   2.209   4.559   7.174  0.0851 -0.1380 -0.5450
 6285TIP3    H143050   2.133   4.504   7.153  0.7028 -1.1048 -0.3321
 6285TIP3    H243051   2.177   4.648   7.164 -0.8324 -0.5278 -1.3471
 6286TIP3   OH243052   3.811   6.300   1.783 -0.0790  0.0843  0.4600
 6286TIP3    H143053   3.897   6.326   1.751 -0.1610  1.1339  1.0278
 6286TIP3    H243054   3.828   6.267   1.871 -0.1672 -0.4038  0.2943
 6287TIP3   OH243055   7.442   2.045   8.044 -0.2618 -0.1479 -0.0263
 6287TIP3    H143056   7.507   2.028   7.975  0.8796  1.1067  0.6972
 6287TIP3    H243057   7.419   1.958   8.077  2.3511 -0.5888  0.8513
 6288TIP3   OH243058   2.638   6.875   0.555  0.8314 -0.2143 -0.2860
 6288TIP3    H143059   2.666   6.791   0.520  0.8757 -0.5251  0.4883
 6288TIP3    H243060   2.588   6.915   0.483  1.7094 -0.4324 -1.0334
 6289TIP3   OH243061   4.559   1.477   2.343 -0.2348  0.0811 -0.1562
 6289TIP3    H143062   4.574   1.513   2.256 -0.1217  0.2007 -0.0889
 6289TIP3    H243063   4.597   1.389   2.339  1.0882  0.5992  0.1913
 6290TIP3   OH243064   5.777   6.445   9.733  0.6213 -0.3236 -0.8309
 6290TIP3    H143065   5.738   6.417   9.650  0.8812 -0.8046 -0.7945
 6290TIP3    H243066   5.752   6.376   9.795 -1.3735  1.0644  0.0070
 6291TIP3   OH243067   6.471   1.112   6.646 -0.4643 -0.0938 -0.2603
 6291TIP3    H143068   6.439   1.072   6.728 -2.5763  0.2243 -0.8616
 6291TIP3    H243069   6.550   1.159   6.672 -0.6489 -0.6415  1.4487
 6292TIP3   OH243070   3.728   5.192   7.324 -0.0709 -0.6383  0.2655
 6292TIP3    H143071   3.759   5.112   7.367  2.3237 -0.4252 -0.8826
 6292TIP3    H243072   3.721   5.169   7.231 -4.9803 -1.0370  0.4865
 6293TIP3   OH243073   7.353   5.752   8.589  0.5232 -0.5063 -0.5410
 6293TIP3    H143074   7.326   5.838   8.622  2.9834  0.5855 -1.1994
 6293TIP3    H243075   7.388   5.707   8.665  0.7874 -0.2717 -0.5229
 6294TIP3   OH243076   5.800   6.977   1.249  0.3241  0.2571 -0.0607
 6294TIP3    H143077   5.848   7.027   1.314  1.0596  0.5060 -0.7771
 6294TIP3    H243078   5.816   7.023   1.166 -0.2816 -0.2601 -0.4772
 6295TIP3   OH243079   7.055   5.841   8.761 -0.0959  0.4497 -0.3165
 6295TIP3    H143080   7.029   5.852   8.853 -1.0219  1.3848 -0.6712
 6295TIP3    H243081   7.123   5.907   8.747 -1.7898  2.1460 -0.9683
 6296TIP3   OH243082   4.572   2.094   1.447  0.0402  0.3250  0.0452
 6296TIP3    H143083   4.630   2.038   1.498 -0.0271 -0.5204 -0.7794
 6296TIP3    H243084   4.496   2.040   1.427 -0.6294  1.1299  0.3249
 6297TIP3   OH243085   1.736   0.598   9.766 -0.6432  0.0888  0.0636
 6297TIP3    H143086   1.826   0.578   9.791 -0.6176  0.6960  0.4880
 6297TIP3    H243087   1.696   0.632   9.846 -1.4401 -0.7690  0.0473
 6298TIP3   OH243088   0.923   4.978   8.444  0.1127  0.6737  0.1067
 6298TIP3    H143089   1.003   4.945   8.486  1.6952  1.8916 -1.7557
 6298TIP3    H243090   0.910   4.920   8.369 -2.1344 -0.8910  1.5621
 6299TIP3   OH243091   5.670   1.558   8.882 -0.3141 -0.0924  0.0682
 6299TIP3    H143092   5.623   1.632   8.843 -1.8164 -1.3324 -0.6241
 6299TIP3    H243093   5.606   1.517   8.940  0.4855 -0.8559  0.4364
 6300TIP3   OH243094   1.303   0.741   0.834 -0.2086 -0.0465 -0.0372
 6300TIP3    H143095   1.293   0.656   0.791 -1.0586  0.1364 -0.2160
 6300TIP3    H243096   1.326   0.719   0.924 -1.0275 -0.4853  0.0775
 6301TIP3   OH243097   5.117   6.546   2.931  0.5683 -0.3231 -0.1634
 6301TIP3    H143098   5.115   6.633   2.970  0.1865 -0.6315  0.5224
 6301TIP3    H243099   5.057   6.494   2.984  1.0550 -1.0962 -0.3466
 6302TIP3   OH243100   6.085   7.374   0.325  0.0564 -0.2198  0.0819
 6302TIP3    H143101   6.004   7.332   0.355  0.8714 -0.7693  1.6281
 6302TIP3    H243102   6.108   7.434   0.396 -0.7869  2.5413 -1.8354
 6303TIP3   OH243103   3.798   2.024   2.435 -0.1453 -0.0582  0.0425
 6303TIP3    H143104   3.735   1.954   2.455  1.0129 -1.5454 -1.2158
 6303TIP3    H243105   3.880   1.993   2.474  0.3525  0.6744 -0.4025
 6304TIP3   OH243106   2.345   7.542   7.778  0.0116 -0.0214 -0.5570
 6304TIP3    H143107   2.362   7.540   7.684 -0.5094  1.1916 -0.6958
 6304TIP3    H243108   2.292   7.464   7.794 -0.6098  0.2008 -1.4267
 6305TIP3   OH243109   4.505   3.860   8.425 -0.8533  0.0179 -0.0729
 6305TIP3    H143110   4.559   3.793   8.384 -0.5357  0.3655 -0.2256
 6305TIP3    H243111   4.547   3.876   8.510 -0.6218  0.4060 -0.2616
 6306TIP3   OH243112   7.186   3.980   7.242  0.0232  0.0602  0.4062
 6306TIP3    H143113   7.198   4.072   7.267 -0.4066  1.0828 -2.7188
 6306TIP3    H243114   7.091   3.968   7.242  0.0940 -0.9030  2.2058
 6307TIP3   OH243115   3.590   4.090   8.073  0.1754 -0.2341 -0.6456
 6307TIP3    H143116   3.572   4.048   7.989  3.9363 -0.5352 -1.5174
 6307TIP3    H243117   3.686   4.098   8.075  0.1801  0.6285  3.2328
 6308TIP3   OH243118   3.115   1.060   0.950 -0.4953 -0.2516  0.0773
 6308TIP3    H143119   3.205   1.039   0.974  0.3067  2.2204 -0.5304
 6308TIP3    H243120   3.069   1.067   1.033  0.6669  1.5677  0.6217
 6309TIP3   OH243121   6.529   3.738   9.211 -0.3845 -0.4845  0.6112
 6309TIP3    H143122   6.464   3.774   9.271 -0.1747 -1.3373  1.3687
 6309TIP3    H243123   6.501   3.647   9.199  1.2470 -1.1766  1.7792
 6310TIP3   OH243124   4.467   7.590   0.431  0.3172 -0.0093 -0.0701
 6310TIP3    H143125   4.452   7.503   0.468 -1.6066 -0.0413 -0.7913
 6310TIP3    H243126   4.463   7.650   0.506  0.7448 -0.4516  0.3086
 6311TIP3   OH243127   6.171   7.276   3.055 -0.2820  0.0888  0.1128
 6311TIP3    H143128   6.210   7.202   3.009  0.2866  1.7939 -2.2829
 6311TIP3    H243129   6.083   7.283   3.019 -0.0842  1.0162 -0.2020
 6312TIP3   OH243130   7.007   4.084   9.210 -0.3797  0.1015 -0.1450
 6312TIP3    H143131   7.063   4.126   9.145  2.0291  0.3251  1.9518
 6312TIP3    H243132   7.016   3.990   9.193  1.8009  0.0532  0.9818
 6313TIP3   OH243133   0.558   1.221   8.434  0.0230 -0.0217 -0.0275
 6313TIP3    H143134   0.567   1.143   8.489  0.0986 -0.6650 -0.9507
 6313TIP3    H243135   0.533   1.290   8.496  1.2782 -0.4565  1.0023
 6314TIP3   OH243136   2.376   6.099   3.171  0.0184 -0.1654 -0.2742
 6314TIP3    H143137   2.394   6.052   3.253 -4.2964 -0.5608  0.6944
 6314TIP3    H243138   2.327   6.037   3.118  0.2000  1.0613 -1.9480
 6315TIP3   OH243139   3.063   0.897   8.212 -0.1645 -0.4673 -0.1620
 6315TIP3    H143140   3.024   0.984   8.203 -1.1873 -0.6560  1.8345
 6315TIP3    H243141   3.089   0.892   8.303 -1.0320 -2.5964  0.0256
 6316TIP3   OH243142   7.483   4.112   6.906 -0.5381 -0.3803  0.3153
 6316TIP3    H143143   7.480   4.204   6.932 -0.7476 -0.4437  0.5195
 6316TIP3    H243144   7.391   4.088   6.892 -0.4915 -0.5777  0.3413
 6317TIP3   OH243145   3.551   6.723   9.353 -0.6179  0.3362 -0.2675
 6317TIP3    H143146   3.521   6.670   9.427  0.9855 -0.5804 -0.2317
 6317TIP3    H243147   3.478   6.722   9.291 -1.7375  0.5748  0.9915
 6318TIP3   OH243148   0.244   5.512   7.463 -0.2774 -0.7361  0.1736
 6318TIP3    H143149   0.176   5.521   7.396  0.0870 -0.7462 -0.1970
 6318TIP3    H243150   0.322   5.485   7.415 -0.0347 -0.8231  0.6122
 6319TIP3   OH243151   1.131   2.908   2.822  0.1196  0.2806  0.2736
 6319TIP3    H143152   1.215   2.866   2.835  0.6884  1.5968  1.0822
 6319TIP3    H243153   1.135   2.988   2.875 -1.8172  0.1410  0.7249
 6320TIP3   OH243154   2.793   1.185   0.140  0.3155 -0.2742  0.1266
 6320TIP3    H143155   2.844   1.266   0.147  0.2505 -0.2898  0.8513
 6320TIP3    H243156   2.702   1.212   0.148  0.3368 -0.5295  1.7384
 6321TIP3   OH243157   7.212   5.562   9.082  0.1835 -0.3001 -0.0791
 6321TIP3    H143158   7.268   5.485   9.092  0.4319 -0.3406 -1.4780
 6321TIP3    H243159   7.125   5.533   9.110  0.5591 -0.6684  0.7308
 6322TIP3   OH243160   0.986   5.939   2.130 -0.1655 -0.3491  0.7560
 6322TIP3    H143161   1.049   6.009   2.111 -0.1450 -0.4841  0.3189
 6322TIP3    H243162   1.032   5.881   2.191  1.1598 -1.8896 -1.5669
 6323TIP3   OH243163   4.549   1.626   0.518  0.1555  0.9095 -0.2040
 6323TIP3    H143164   4.512   1.550   0.564 -0.0877 -0.0157 -1.8477
 6323TIP3    H243165   4.595   1.675   0.586 -1.3842  0.3773  1.2907
 6324TIP3   OH243166   5.630   7.593   2.408 -0.6803  0.0526  0.0666
 6324TIP3    H143167   5.595   7.525   2.350 -1.5864 -0.1461  0.8075
 6324TIP3    H243168   5.575   7.669   2.391  0.5417  0.7332 -1.0000
 6325TIP3   OH243169   1.036   1.662   9.626 -0.4048 -0.8541 -0.1829
 6325TIP3    H143170   1.009   1.593   9.566  1.0522 -2.0140  0.4364
 6325TIP3    H243171   1.060   1.616   9.707  0.9225  0.3044  0.1340
 6326TIP3   OH243172   6.552   2.385   1.005 -0.1898 -0.1181 -0.3014
 6326TIP3    H143173   6.482   2.320   1.006  0.7765 -1.2029  1.6414
 6326TIP3    H243174   6.625   2.342   0.961 -0.1904  0.4108 -0.8380
 6327TIP3   OH243175   5.100   3.321   8.992  0.1398  0.1825 -0.2608
 6327TIP3    H143176   5.162   3.389   8.966  0.1098  0.1813 -0.3355
 6327TIP3    H243177   5.063   3.290   8.910 -1.1392  1.2882 -0.1286
 6328TIP3   OH243178   5.856   3.319   7.644 -0.4156  0.6708 -0.3310
 6328TIP3    H143179   5.859   3.398   7.698  0.7530  1.2551 -1.2128
 6328TIP3    H243180   5.821   3.347   7.560 -0.0279  0.2504 -0.6424
 6329TIP3   OH243181   0.544   0.142   9.214  0.1687 -0.5066 -0.0117
 6329TIP3    H143182   0.535   0.084   9.290 -0.3085  0.5345  0.7499
 6329TIP3    H243183   0.456   0.142   9.175  0.3178 -0.7430 -0.3522
 6330TIP3   OH243184   5.221   4.930   7.620  0.5321 -0.0438  0.6749
 6330TIP3    H143185   5.167   5.008   7.627  0.0735 -0.0288 -1.9387
 6330TIP3    H243186   5.169   4.869   7.566  2.0184 -1.0441  0.2915
 6331TIP3   OH243187   1.828   2.174   8.668  0.1171  0.0926 -0.3667
 6331TIP3    H143188   1.909   2.186   8.617 -0.7046 -1.2177 -2.0842
 6331TIP3    H243189   1.848   2.102   8.728  0.7212  0.8711  0.3960
 6332TIP3   OH243190   1.904   3.794   1.108 -0.2429  0.1866 -0.0355
 6332TIP3    H143191   1.839   3.787   1.039  0.3103 -0.2567 -0.5229
 6332TIP3    H243192   1.968   3.726   1.088 -0.7624 -0.8832  1.6488
 6333TIP3   OH243193   4.491   2.348   0.120  0.3385 -0.2420 -0.5278
 6333TIP3    H143194   4.533   2.392   0.046 -0.6462  3.2136  0.7914
 6333TIP3    H243195   4.398   2.366   0.110  0.1369 -0.0730  1.2888
 6334TIP3   OH243196   5.272   7.632   1.814 -0.6871 -0.7569  0.2766
 6334TIP3    H143197   5.209   7.641   1.743  1.0101  0.7156 -1.1352
 6334TIP3    H243198   5.294   7.722   1.838  2.3519 -1.1041 -0.7320
 6335TIP3   OH243199   5.212   5.667   7.822  0.3263  0.0774 -0.0465
 6335TIP3    H143200   5.161   5.629   7.894 -0.2139 -0.3969 -0.6700
 6335TIP3    H243201   5.155   5.660   7.746  0.0697  2.4763 -0.1375
 6336TIP3   OH243202   3.589   6.509   0.145  0.7817  0.0085  0.2805
 6336TIP3    H143203   3.514   6.495   0.086  0.3129 -0.6749  1.0057
 6336TIP3    H243204   3.665   6.504   0.088  0.2584  2.0328 -0.7067
 6337TIP3   OH243205   2.671   5.064   8.237  0.2507 -0.2164 -0.2952
 6337TIP3    H143206   2.596   5.118   8.211 -0.7400 -1.1085  0.5489
 6337TIP3    H243207   2.652   5.041   8.329  0.8694 -1.5718 -0.4796
 6338TIP3   OH243208   1.500   3.851   9.296 -0.0607  0.2258  0.3390
 6338TIP3    H143209   1.589   3.864   9.327 -0.2598  0.9204  0.6565
 6338TIP3    H243210   1.479   3.760   9.318  0.3533  0.2454  0.8302
 6339TIP3   OH243211   0.550   1.007   9.178  0.1083  0.1678 -0.2689
 6339TIP3    H143212   0.489   0.962   9.236  0.4414 -1.2842 -0.9992
 6339TIP3    H243213   0.539   1.100   9.199 -0.5488 -0.2404  1.3376
 6340TIP3   OH243214   6.655   4.214   7.482  0.2932 -0.1825  0.2345
 6340TIP3    H143215   6.703   4.149   7.533 -0.5621 -1.1184 -0.1283
 6340TIP3    H243216   6.566   4.212   7.518  0.1933  0.6014  0.0428
 6341TIP3   OH243217   2.152   6.728   7.007  0.3497  0.4312  0.2546
 6341TIP3    H143218   2.213   6.801   7.012 -0.2113  0.9143  0.1848
 6341TIP3    H243219   2.065   6.769   7.005 -0.0783 -0.2781  2.1326
 6342TIP3   OH243220   3.862   6.022   9.984 -0.2321  0.6945  0.2719
 6342TIP3    H143221   3.929   6.019   9.915  0.1350 -1.2949  0.6343
 6342TIP3    H243222   3.912   6.024  10.066 -0.6643  2.6164  0.5185
 6343TIP3   OH243223   7.249   7.299   9.804 -0.3639  0.2157  0.0942
 6343TIP3    H143224   7.221   7.387   9.779 -2.1098  0.2555  1.9511
 6343TIP3    H243225   7.184   7.241   9.764  0.6309 -0.2479 -0.9064
 6344TIP3   OH243226   0.387   1.699   8.464 -0.3936  0.4456 -0.0202
 6344TIP3    H143227   0.367   1.735   8.551  1.4513 -1.9163  1.5331
 6344TIP3    H243228   0.481   1.716   8.453 -0.3550 -0.3271 -1.0092
 6345TIP3   OH243229   2.254   0.362   3.263 -0.4113  0.0887  0.5446
 6345TIP3    H143230   2.328   0.422   3.276  0.1588 -0.5675  0.4134
 6345TIP3    H243231   2.243   0.358   3.168 -0.1445 -0.3581  0.5275
 6346TIP3   OH243232   6.990   2.719   7.045 -0.4231 -0.0117 -0.8411
 6346TIP3    H143233   7.039   2.636   7.045 -1.1629 -0.4672  0.2948
 6346TIP3    H243234   7.055   2.785   7.071 -0.3678 -0.6076  0.6264
 6347TIP3   OH243235   1.588   7.365   2.607 -0.3911  0.1702 -0.4571
 6347TIP3    H143236   1.555   7.439   2.659 -0.9642 -0.8304  0.6549
 6347TIP3    H243237   1.574   7.391   2.516 -0.5542  1.4392 -0.0905
 6348TIP3   OH243238   4.735   2.535   2.559 -0.2333  0.3098 -0.1772
 6348TIP3    H143239   4.661   2.511   2.615  0.8839  2.5827  2.4825
 6348TIP3    H243240   4.812   2.509   2.608  0.8332  3.6109  0.1324
 6349TIP3   OH243241   0.734   4.510   2.392 -0.1305 -0.0258  0.2239
 6349TIP3    H143242   0.816   4.559   2.396  0.8346 -1.5433 -0.3656
 6349TIP3    H243243   0.740   4.460   2.311 -1.1613 -1.0016  0.7255
 6350TIP3   OH243244   6.755   1.244   7.831  0.1197  0.2350 -0.4345
 6350TIP3    H143245   6.692   1.177   7.803  0.7699 -0.2279 -0.8211
 6350TIP3    H243246   6.824   1.241   7.765  0.3474  1.0303 -0.2417
 6351TIP3   OH243247   5.999   0.183   7.938  0.3369 -0.1148  0.4980
 6351TIP3    H143248   5.968   0.221   7.856  1.9512 -0.0265 -0.1192
 6351TIP3    H243249   6.077   0.234   7.960  0.1572 -0.4039  1.8761
 6352TIP3   OH243250   2.656   4.970   8.490 -0.0284  0.0666  0.0005
 6352TIP3    H143251   2.716   4.971   8.565  0.9433  0.4197 -0.7594
 6352TIP3    H243252   2.569   4.961   8.529  0.4330  0.5360  1.1854
 6353TIP3   OH243253   7.243   1.399   9.846  0.4617 -0.9211 -0.3100
 6353TIP3    H143254   7.207   1.317   9.879 -0.0174 -1.2194 -1.5016
 6353TIP3    H243255   7.302   1.430   9.915 -1.0022 -1.1422  1.1028
 6354TIP3   OH243256   2.628   1.668   3.009  0.2182 -0.2232  0.1622
 6354TIP3    H143257   2.719   1.646   3.030  0.4665 -0.4468 -1.0511
 6354TIP3    H243258   2.585   1.583   2.998  0.4882 -0.1666 -1.7186
 6355TIP3   OH243259   1.544   1.593   8.420 -0.1322  0.2744  0.1085
 6355TIP3    H143260   1.623   1.640   8.445  0.4029 -0.5220 -0.0716
 6355TIP3    H243261   1.575   1.508   8.388 -0.9432  0.4424 -1.2001
 6356TIP3   OH243262   6.884   0.581   0.063 -0.4005 -0.4732  0.2754
 6356TIP3    H143263   6.894   0.506   0.005  0.0887 -0.6694  0.5990
 6356TIP3    H243264   6.919   0.550   0.147  1.0863  0.5292  0.0750
 6357TIP3   OH243265   3.318   3.502   6.873  0.3781  0.0535  0.1785
 6357TIP3    H143266   3.232   3.507   6.913 -0.0663  1.9777 -0.8859
 6357TIP3    H243267   3.315   3.425   6.816 -1.3191  1.1329 -1.2721
 6358TIP3   OH243268   7.168   0.123   9.478 -0.2981 -0.4069  0.2583
 6358TIP3    H143269   7.215   0.072   9.412 -0.5619 -2.6425  1.7080
 6358TIP3    H243270   7.225   0.199   9.494  1.2378 -1.3773 -0.3727
 6359TIP3   OH243271   6.799   4.694   8.926 -0.5096 -0.3159 -0.2777
 6359TIP3    H143272   6.787   4.600   8.941  0.4672 -0.4033  0.0078
 6359TIP3    H243273   6.882   4.715   8.968 -2.1162  1.3031  2.3558
 6360TIP3   OH243274   7.217   1.447   1.517 -0.3570  0.0111  0.3206
 6360TIP3    H143275   7.260   1.372   1.558 -0.5985 -0.2317  0.1345
 6360TIP3    H243276   7.154   1.477   1.582  0.0538  0.3324  0.5710
 6361TIP3   OH243277   7.444   6.338   9.697  0.4050 -0.4907  0.0724
 6361TIP3    H143278   7.446   6.247   9.668 -1.4677 -0.4358 -0.3573
 6361TIP3    H243279   7.385   6.381   9.635  0.6271  0.8421  0.7610
 6362TIP3   OH243280   2.716   3.346   8.029  0.2061 -0.1154 -0.0315
 6362TIP3    H143281   2.792   3.306   7.987  0.3555  0.3617 -0.2243
 6362TIP3    H243282   2.744   3.435   8.049  0.6081 -0.7000  2.3064
 6363TIP3   OH243283   1.330   5.046   7.931  0.3212 -0.2083  0.0467
 6363TIP3    H143284   1.315   5.116   7.868  1.6153 -1.1091 -1.3224
 6363TIP3    H243285   1.255   4.987   7.921 -0.5407  0.7229  0.8825
 6364TIP3   OH243286   3.071   3.819   0.598 -0.1761 -0.0140  0.0939
 6364TIP3    H143287   3.068   3.911   0.572 -0.9937  0.1471  0.7069
 6364TIP3    H243288   3.008   3.776   0.539 -0.2054 -0.0794  0.1722
 6365TIP3   OH243289   4.568   2.659   2.372  0.3687  0.6444 -0.2485
 6365TIP3    H143290   4.510   2.731   2.398 -1.5358 -1.1373  0.6798
 6365TIP3    H243291   4.631   2.652   2.443 -0.1717  0.6440  0.2352
 6366TIP3   OH243292   2.267   1.134   2.011  0.3506 -0.2382  0.0814
 6366TIP3    H143293   2.272   1.226   1.987  0.0085 -0.2662 -0.1105
 6366TIP3    H243294   2.357   1.101   1.999  0.6308  0.2330  0.8566
 6367TIP3   OH243295   7.432   4.061   1.353  0.0014 -0.4854  0.7828
 6367TIP3    H143296   7.424   4.105   1.269  1.9868 -3.2595 -1.0425
 6367TIP3    H243297   7.424   4.131   1.418 -0.6477  1.9213 -1.6987
 6368TIP3   OH243298   0.615   0.839   0.488  0.3459  0.2707  0.6672
 6368TIP3    H143299   0.618   0.744   0.479 -2.4417 -0.1554  2.9144
 6368TIP3    H243300   0.549   0.867   0.426  0.9790  0.7357  0.1936
 6369TIP3   OH243301   5.040   5.147   7.602  0.3343  0.4577 -0.5786
 6369TIP3    H143302   5.011   5.207   7.670 -1.8517 -0.1126 -0.9390
 6369TIP3    H243303   5.016   5.190   7.520  0.3607 -0.1203 -0.8933
 6370TIP3   OH243304   1.874   6.927   2.430  0.2556  0.7357  0.6919
 6370TIP3    H143305   1.810   6.988   2.467  0.9405  0.7784  1.8534
 6370TIP3    H243306   1.874   6.853   2.490  0.2008  0.0477 -0.1393
 6371TIP3   OH243307   1.306   2.215   8.650 -0.3824 -0.2195 -0.4080
 6371TIP3    H143308   1.388   2.261   8.668 -0.1031 -0.3733 -1.2360
 6371TIP3    H243309   1.318   2.178   8.562 -0.4524 -2.1502  0.3391
 6372TIP3   OH243310   4.919   1.264   7.583 -0.1407  0.0574 -0.0083
 6372TIP3    H143311   4.935   1.206   7.658  0.5921  0.4962  0.1781
 6372TIP3    H243312   4.844   1.224   7.538 -0.2164 -0.5349  0.6239
 6373TIP3   OH243313   5.191   3.474   7.833  0.0778  0.0573  0.5595
 6373TIP3    H143314   5.218   3.409   7.899 -1.4840 -0.1012  1.0876
 6373TIP3    H243315   5.244   3.453   7.756  1.8647  0.1705  1.7118
 6374TIP3   OH243316   3.266   1.163   9.377  0.0494 -0.4805  0.2177
 6374TIP3    H143317   3.252   1.211   9.295 -0.4281  1.0793  1.1733
 6374TIP3    H243318   3.219   1.081   9.364 -1.9563  0.6520 -0.2679
 6375TIP3   OH243319   3.891   6.305   8.825 -0.1936 -0.2939  0.0243
 6375TIP3    H143320   3.944   6.226   8.826 -1.1709 -0.9569  0.0702
 6375TIP3    H243321   3.947   6.371   8.783  1.9394 -0.0546  2.8885
 6376TIP3   OH243322   7.516   3.514   2.255 -0.0338  0.2280  0.5611
 6376TIP3    H143323   7.515   3.542   2.346  2.1941 -1.0823  1.0763
 6376TIP3    H243324   7.462   3.435   2.253  0.4985 -0.1506  0.9175
 6377TIP3   OH243325   6.910   1.062   8.256  0.4464  0.1608 -0.4645
 6377TIP3    H143326   6.945   0.978   8.225 -0.4908 -0.5648  0.3562
 6377TIP3    H243327   6.901   1.115   8.177  1.0637 -0.5051 -1.0010
 6378TIP3   OH243328   0.707   0.683   8.424  0.2320 -0.0477 -0.5819
 6378TIP3    H143329   0.774   0.750   8.408 -0.4306  0.6867 -0.3714
 6378TIP3    H243330   0.630   0.715   8.376  0.0367 -0.8841 -0.8315
 6379TIP3   OH243331   1.272   5.770   2.581 -0.5270 -0.0027 -0.0786
 6379TIP3    H143332   1.225   5.837   2.630  0.5728 -0.3409  1.5239
 6379TIP3    H243333   1.304   5.709   2.648  1.6972 -0.0722 -1.1077
 6380TIP3   OH243334   4.625   6.226   1.547 -0.1398 -0.6954 -0.0713
 6380TIP3    H143335   4.613   6.161   1.477  0.9280 -0.2151 -0.7197
 6380TIP3    H243336   4.643   6.308   1.501  0.4119 -0.3342  0.7643
 6381TIP3   OH243337   0.096   4.096   8.063  0.1489 -0.0974  0.3352
 6381TIP3    H143338   0.008   4.107   8.026 -0.0724 -1.4750  0.3764
 6381TIP3    H243339   0.112   4.001   8.058  2.3058  0.2879 -1.1532
 6382TIP3   OH243340   1.045   0.833   1.076  0.3576 -0.1445 -0.2538
 6382TIP3    H143341   1.109   0.764   1.096 -2.4868 -2.8941  0.0725
 6382TIP3    H243342   0.962   0.787   1.068 -1.5463  3.1650 -1.2986
 6383TIP3   OH243343   1.317   3.778   7.404 -0.3747  0.3071 -0.0008
 6383TIP3    H143344   1.333   3.778   7.309 -1.2167 -1.4700 -0.1805
 6383TIP3    H243345   1.227   3.810   7.413 -0.1583  0.8562  0.2375
 6384TIP3   OH243346   2.479   7.283   8.869 -0.4904 -0.5048 -0.3916
 6384TIP3    H143347   2.504   7.190   8.865  1.4398  0.0012 -0.9046
 6384TIP3    H243348   2.494   7.316   8.780 -0.1627  0.5323  0.0378
 6385TIP3   OH243349   5.934   6.615   0.293  0.2073 -0.8065 -0.1372
 6385TIP3    H143350   5.866   6.620   0.226  1.3456 -2.3864 -1.4744
 6385TIP3    H243351   5.958   6.706   0.310  1.0409 -0.3683 -3.1266
 6386TIP3   OH243352   6.900   4.392   8.375  0.3618  0.5258 -0.1761
 6386TIP3    H143353   6.906   4.423   8.465  1.2638  1.0217 -0.3928
 6386TIP3    H243354   6.833   4.447   8.334 -0.8467 -0.4205  0.4594
 6387TIP3   OH243355   4.156   5.906   0.733  0.1008  0.0118  0.8833
 6387TIP3    H143356   4.112   5.923   0.650  0.4148 -1.6922  0.3223
 6387TIP3    H243357   4.219   5.978   0.742 -0.7163  0.8277  0.2203
 6388TIP3   OH243358   7.300   7.405   1.141  0.1719  0.2924 -0.3424
 6388TIP3    H143359   7.343   7.324   1.169 -1.5264 -0.3139  0.6200
 6388TIP3    H243360   7.232   7.421   1.207 -2.6253 -0.0480 -2.9441
 6389TIP3   OH243361   7.221   0.310   7.647  0.3169  0.3471 -0.4895
 6389TIP3    H143362   7.165   0.293   7.571 -1.2251  0.1863  0.6131
 6389TIP3    H243363   7.299   0.257   7.632 -0.1154  0.0295 -1.7754
 6390TIP3   OH243364   2.410   5.146   8.107 -0.1105 -0.0497  0.3848
 6390TIP3    H143365   2.363   5.228   8.119 -1.4493 -0.8050  0.5410
 6390TIP3    H243366   2.341   5.080   8.097  0.8224 -1.5679  2.8667
 6391TIP3   OH243367   4.563   6.279   0.495  0.3709  0.1269 -0.2916
 6391TIP3    H143368   4.518   6.349   0.448  1.4664  1.4150  0.5182
 6391TIP3    H243369   4.492   6.230   0.538 -0.3954  0.8449 -0.7041
 6392TIP3   OH243370   0.211   2.213   1.351 -0.4026  0.4446  0.0175
 6392TIP3    H143371   0.273   2.256   1.410 -1.8451  0.8727  1.2930
 6392TIP3    H243372   0.145   2.279   1.332 -1.6480 -0.6016  0.5034
 6393TIP3   OH243373   3.108   7.547   9.901  0.4063  0.3843 -0.2917
 6393TIP3    H143374   3.143   7.522   9.815 -1.7406  2.0359 -1.7463
 6393TIP3    H243375   3.105   7.643   9.899  1.3113  0.5260  2.1050
 6394TIP3   OH243376   7.615   3.771   2.183 -0.5054  0.7979 -0.4052
 6394TIP3    H143377   7.670   3.708   2.137 -0.3877  0.5114  0.1231
 6394TIP3    H243378   7.544   3.718   2.221  0.5214  0.6938  1.5024
 6395TIP3   OH243379   0.433   6.154   9.658  0.3467 -0.2103  0.5858
 6395TIP3    H143380   0.518   6.110   9.649 -0.5295 -2.0045  0.7772
 6395TIP3    H243381   0.439   6.229   9.599  1.3166 -1.4876 -1.0285
 6396TIP3   OH243382   6.558   7.095   8.769  0.3387 -0.1167  0.3618
 6396TIP3    H143383   6.473   7.128   8.740 -0.9077 -0.9625  2.7322
 6396TIP3    H243384   6.618   7.168   8.754 -0.7953  0.5254 -1.3206
 6397TIP3   OH243385   1.813   4.807   9.168 -0.4152  0.1141  0.0621
 6397TIP3    H143386   1.906   4.831   9.165 -0.2209 -0.4913  0.9657
 6397TIP3    H243387   1.766   4.889   9.156  0.2377  0.7434  1.5858
 6398TIP3   OH243388   7.531   2.951   1.667 -0.0482 -0.2456  0.1542
 6398TIP3    H143389   7.614   2.975   1.709 -0.2426 -2.1697  1.7564
 6398TIP3    H243390   7.489   3.035   1.649  2.1828  0.7810 -0.6503
 6399TIP3   OH243391   3.850   4.667   9.296 -0.7285  0.1261 -0.3493
 6399TIP3    H143392   3.885   4.702   9.214 -2.1997 -0.2926 -1.1883
 6399TIP3    H243393   3.848   4.573   9.283 -0.6686  0.0335  0.2972
 6400TIP3   OH243394   3.983   0.739   7.493 -0.5228  0.3090  0.2664
 6400TIP3    H143395   3.934   0.818   7.516 -1.7469 -0.2535 -0.3113
 6400TIP3    H243396   3.941   0.670   7.543  0.1434 -0.0818  0.2945
 6401TIP3   OH243397   5.820   5.807   7.546 -0.0787 -0.2630  0.4644
 6401TIP3    H143398   5.905   5.773   7.573  0.3365 -0.1854 -0.6996
 6401TIP3    H243399   5.798   5.872   7.613  1.4042  0.6752  0.0839
 6402TIP3   OH243400   0.338   4.555   8.151 -0.0659 -0.4749  0.5724
 6402TIP3    H143401   0.427   4.572   8.121 -0.4084  0.6186  0.0886
 6402TIP3    H243402   0.282   4.591   8.081 -0.8786 -0.1594  1.3553
 6403TIP3   OH243403   4.181   7.309   8.024  0.6558  0.9836 -0.1129
 6403TIP3    H143404   4.115   7.347   7.966 -2.2002 -2.8596  0.1855
 6403TIP3    H243405   4.234   7.253   7.967 -0.2325 -0.4630  0.4053
 6404TIP3   OH243406   2.042   6.222   7.867  0.2411  0.1867  0.5373
 6404TIP3    H143407   2.003   6.308   7.881  1.4315  0.8719 -0.1207
 6404TIP3    H243408   2.128   6.228   7.910  0.6956 -0.3463 -0.2659
 6405TIP3   OH243409   2.364   0.772   0.884 -0.1442 -0.4569  0.2702
 6405TIP3    H143410   2.445   0.722   0.873 -0.1987 -0.8718  1.5995
 6405TIP3    H243411   2.381   0.855   0.839  1.0975 -0.4590  0.6931
 6406TIP3   OH243412   7.456   2.138   1.189  0.3815  0.5841  0.1862
 6406TIP3    H143413   7.373   2.148   1.236 -0.0940 -0.7383 -0.3200
 6406TIP3    H243414   7.522   2.132   1.258 -0.1412  0.0862  0.6542
 6407TIP3   OH243415   5.710   6.496   1.641  0.1174  0.0567  0.0308
 6407TIP3    H143416   5.727   6.449   1.559  0.2847 -0.3095  0.2698
 6407TIP3    H243417   5.629   6.457   1.674  1.1413 -1.2997  1.0875
 6408TIP3   OH243418   2.048   7.447   9.724 -0.0530  0.4122 -0.0486
 6408TIP3    H143419   1.990   7.419   9.794  1.7229 -3.2608  0.2178
 6408TIP3    H243420   2.114   7.502   9.767 -0.4136  0.3075  0.6501
 6409TIP3   OH243421   1.662   3.164   7.269 -0.1769  0.0547 -0.3736
 6409TIP3    H143422   1.667   3.092   7.333 -1.7761  0.4701  0.2700
 6409TIP3    H243423   1.666   3.243   7.322 -2.1554  0.4068 -0.6804
 6410TIP3   OH243424   6.101   0.248   0.885  0.4478  0.3322  0.2978
 6410TIP3    H143425   6.167   0.310   0.916 -0.0389 -0.3923  3.0222
 6410TIP3    H243426   6.017   0.288   0.907  0.1034 -0.6456  0.8514
 6411TIP3   OH243427   0.393   1.415   7.044 -0.0120  0.0831 -0.4448
 6411TIP3    H143428   0.356   1.455   6.966  0.1436 -0.9003 -1.0481
 6411TIP3    H243429   0.319   1.369   7.085 -0.1801  0.9183  0.2122
 6412TIP3   OH243430   0.412   4.512   2.095 -0.4737  0.3048 -0.5020
 6412TIP3    H143431   0.400   4.590   2.041 -2.1151  0.9391  0.6936
 6412TIP3    H243432   0.341   4.454   2.070 -1.2377  0.5956  0.9138
 6413TIP3   OH243433   4.170   2.780   1.535 -0.1649  0.0418  1.2722
 6413TIP3    H143434   4.158   2.870   1.507  0.5350  0.6278  2.7197
 6413TIP3    H243435   4.082   2.743   1.539 -0.2766 -0.8704 -3.7786
 6414TIP3   OH243436   3.307   6.173   6.901  0.2895 -0.3448 -0.0562
 6414TIP3    H143437   3.248   6.120   6.847  1.1126 -1.7302  0.3645
 6414TIP3    H243438   3.375   6.203   6.841  0.0723 -0.1447 -0.2029
 6415TIP3   OH243439   3.479   2.002   0.363 -0.0139  0.1503 -0.0651
 6415TIP3    H143440   3.460   2.086   0.322  3.7862  2.7008  2.7342
 6415TIP3    H243441   3.545   1.962   0.306 -0.1248  0.1649 -0.2042
 6416TIP3   OH243442   7.216   1.000   2.966  0.2552  0.4269  0.2124
 6416TIP3    H143443   7.205   1.072   3.028  1.3040  1.5463 -0.8668
 6416TIP3    H243444   7.127   0.983   2.933  0.2252  2.5348 -0.9244
 6417TIP3   OH243445   6.796   6.106   9.706  0.3806 -0.6570 -0.3261
 6417TIP3    H143446   6.826   6.166   9.774 -0.2104  0.6053 -1.1384
 6417TIP3    H243447   6.845   6.025   9.721  2.9380  0.7644 -0.6008
 6418TIP3   OH243448   1.503   4.132   1.019 -0.1324 -0.3582 -0.2445
 6418TIP3    H143449   1.575   4.165   1.073 -0.2333  0.9088 -0.8415
 6418TIP3    H243450   1.545   4.070   0.959  0.7727  1.3853 -1.5205
 6419TIP3   OH243451   4.573   6.304   7.100 -0.1072  0.1539 -0.0189
 6419TIP3    H143452   4.477   6.297   7.102 -0.0121 -1.8267 -0.2483
 6419TIP3    H243453   4.601   6.272   7.186  0.3486  1.2257  0.2459
 6420TIP3   OH243454   1.977   1.219   7.916  0.0390 -0.1332 -0.6619
 6420TIP3    H143455   1.991   1.139   7.966  1.2666  0.2173 -0.4145
 6420TIP3    H243456   2.023   1.204   7.834  1.5386  0.8452 -0.0428
 6421TIP3   OH243457   4.191   7.565   0.305  0.6255  0.3905  0.2369
 6421TIP3    H143458   4.281   7.532   0.310  1.0946  1.7501  1.7418
 6421TIP3    H243459   4.150   7.535   0.386 -0.8486 -1.6152 -1.1513
 6422TIP3   OH243460   4.616   0.787   0.351  0.9189 -1.0441 -0.2647
 6422TIP3    H143461   4.686   0.821   0.407  0.3930 -2.0176  1.0214
 6422TIP3    H243462   4.647   0.804   0.262  0.8507  2.4738  0.2392
 6423TIP3   OH243463   3.034   0.272   8.520 -0.1108 -0.3371  0.2341
 6423TIP3    H143464   3.062   0.291   8.430  1.4290  0.8775  0.9239
 6423TIP3    H243465   3.111   0.291   8.573 -1.5331  0.7933  2.0093
 6424TIP3   OH243466   7.062   0.995   2.378  0.0107 -0.6790  0.1601
 6424TIP3    H143467   7.078   0.901   2.375 -1.9556 -1.0660  0.3462
 6424TIP3    H243468   6.968   1.004   2.361  0.3209  1.3243 -0.7888
 6425TIP3   OH243469   1.089   7.333   8.009  0.2053 -0.1231 -0.1809
 6425TIP3    H143470   1.007   7.329   8.058  1.2506  0.4343  1.7523
 6425TIP3    H243471   1.119   7.423   8.021  0.4973  0.0526 -1.9510
 6426TIP3   OH243472   3.072   0.202   6.352  0.9841  0.2878 -0.1135
 6426TIP3    H143473   3.005   0.239   6.409 -0.5578 -1.4539 -0.6794
 6426TIP3    H243474   3.109   0.130   6.403  0.2037 -0.7245 -0.9384
 6427TIP3   OH243475   3.340   5.029   0.314 -0.2123  0.0292  0.1100
 6427TIP3    H143476   3.287   4.992   0.384  0.8822 -0.5749  0.6400
 6427TIP3    H243477   3.384   4.954   0.275  0.1667  0.5057 -0.3836
 6428TIP3   OH243478   5.755   0.232   6.921  0.1565  0.2260 -0.3622
 6428TIP3    H143479   5.718   0.214   7.008 -2.2110  2.5626 -0.7453
 6428TIP3    H243480   5.846   0.256   6.939 -0.1059  0.0504  1.4052
 6429TIP3   OH243481   1.207   5.255   0.486  0.1054 -0.5816  0.3760
 6429TIP3    H143482   1.187   5.333   0.434 -2.1708 -0.5212  1.2366
 6429TIP3    H243483   1.215   5.288   0.576  4.4724 -0.5920  0.2383
 6430TIP3   OH243484   3.949   7.241   9.758 -0.0926  0.0280 -0.8386
 6430TIP3    H143485   3.919   7.326   9.725  0.5254  0.1210 -1.1785
 6430TIP3    H243486   4.044   7.251   9.767 -0.1989 -0.0928  0.6992
 6431TIP3   OH243487   5.539   6.373   8.553  0.6493  0.5278  0.4206
 6431TIP3    H143488   5.558   6.442   8.489 -0.4756  0.2163 -0.2677
 6431TIP3    H243489   5.569   6.410   8.636  1.0012  1.4385 -0.0894
 6432TIP3   OH243490   6.243   1.588   9.578  0.1905 -0.2199  0.1089
 6432TIP3    H143491   6.275   1.660   9.522  0.0876 -0.0561  0.2601
 6432TIP3    H243492   6.323   1.548   9.612  0.2567 -0.3625 -0.2067
 6433TIP3   OH243493   4.877   0.779   1.944 -0.2795  0.1965 -0.8496
 6433TIP3    H143494   4.832   0.699   1.972  1.3161  0.1556  2.0106
 6433TIP3    H243495   4.812   0.848   1.957 -0.7755 -0.3024 -0.6108
 6434TIP3   OH243496   5.519   7.369   0.502  0.0045  0.2334 -0.3182
 6434TIP3    H143497   5.580   7.375   0.428  0.3464  0.2657 -0.0404
 6434TIP3    H243498   5.568   7.406   0.575  0.8823 -2.5839  0.6562
 6435TIP3   OH243499   5.704   4.190   9.315 -0.1648 -0.3974  0.6256
 6435TIP3    H143500   5.748   4.175   9.232 -1.2078 -1.9303  0.3174
 6435TIP3    H243501   5.675   4.281   9.311  0.5743 -0.1932 -0.2989
 6436TIP3   OH243502   5.907   1.515   8.052  0.0459  0.1407 -0.2523
 6436TIP3    H143503   5.997   1.519   8.085 -0.4908  1.0838  1.1591
 6436TIP3    H243504   5.882   1.423   8.061  0.3449  0.1548  0.8284
 6437TIP3   OH243505   6.889   5.791   1.416 -0.6777  0.2229 -0.2412
 6437TIP3    H143506   6.855   5.738   1.344  3.6291 -1.6510 -1.2360
 6437TIP3    H243507   6.883   5.734   1.493 -0.1736  0.0132 -0.3520
 6438TIP3   OH243508   7.154   0.086   0.833  0.1349 -0.0949  0.2506
 6438TIP3    H143509   7.178   0.057   0.921 -0.0298  1.1894  0.7416
 6438TIP3    H243510   7.227   0.058   0.777  1.4961  1.3367  1.2428
 6439TIP3   OH243511   3.437   1.789   0.562  0.3138 -0.2866  0.0249
 6439TIP3    H143512   3.485   1.848   0.503 -0.8294 -0.4795 -1.1428
 6439TIP3    H243513   3.463   1.701   0.534  0.0412 -0.3738  0.0454
 6440TIP3   OH243514   5.107   6.338   8.817  1.3216 -0.0754 -0.1234
 6440TIP3    H143515   5.064   6.422   8.800  0.6704 -0.5083 -0.7024
 6440TIP3    H243516   5.038   6.272   8.801  1.4927 -0.6711  1.4423
 6441TIP3   OH243517   3.188   7.285   0.055  0.0188 -0.4540 -0.2284
 6441TIP3    H143518   3.160   7.363   0.007  0.9985  0.2541  0.3315
 6441TIP3    H243519   3.262   7.314   0.108  0.6507 -1.8657 -0.3058
 6442TIP3   OH243520   5.776   0.310   7.552  0.2816 -0.0241  0.0059
 6442TIP3    H143521   5.702   0.272   7.599  0.6216 -0.9868 -0.2208
 6442TIP3    H243522   5.736   0.373   7.492 -0.4211 -1.0193 -0.5954
 6443TIP3   OH243523   5.747   6.642   8.063  0.1154 -0.2156  0.2719
 6443TIP3    H143524   5.793   6.677   8.140 -0.5605  1.0808  0.1108
 6443TIP3    H243525   5.676   6.704   8.047 -2.7683 -2.9286  1.4776
 6444TIP3   OH243526   1.880   7.051   7.352 -0.2112 -1.1327  0.2894
 6444TIP3    H143527   1.854   7.031   7.262 -1.7082  0.6970  0.2506
 6444TIP3    H243528   1.895   7.145   7.353  1.6402 -1.3925  1.5556
 6445TIP3   OH243529   2.911   5.400   0.236 -0.5401 -0.2297  0.2884
 6445TIP3    H143530   2.944   5.355   0.313 -2.1598 -0.4702  0.8824
 6445TIP3    H243531   2.827   5.358   0.218 -0.6170  0.4443 -1.0555
 6446TIP3   OH243532   0.124   7.051   8.741  0.1371 -0.5489  0.1084
 6446TIP3    H143533   0.053   7.069   8.803  0.7409  0.8780  0.4250
 6446TIP3    H243534   0.204   7.055   8.794  0.6750  0.8006 -0.7631
 6447TIP3   OH243535   0.287   0.743   1.058 -0.0826  0.2660  0.3398
 6447TIP3    H143536   0.282   0.836   1.035  0.5627  0.4350  0.8676
 6447TIP3    H243537   0.198   0.721   1.084 -0.5314  0.4109 -0.9808
 6448TIP3   OH243538   7.201   5.084   8.058  0.1599  0.4748 -0.2850
 6448TIP3    H143539   7.260   5.067   7.984 -1.7233  1.0225 -1.9924
 6448TIP3    H243540   7.139   5.011   8.056 -0.0673  0.6409  0.6188
 6449TIP3   OH243541   0.222   0.063   0.365  0.7351  0.4277  0.3579
 6449TIP3    H143542   0.139   0.093   0.400  0.0394 -1.5296  0.4663
 6449TIP3    H243543   0.284   0.073   0.438 -0.3127 -1.9301  1.6822
 6450TIP3   OH243544   1.095   1.743   0.390  0.5538 -0.0767 -0.4479
 6450TIP3    H143545   1.040   1.762   0.314  1.2523  0.3160 -0.8567
 6450TIP3    H243546   1.065   1.656   0.419  0.3225 -0.2600 -1.2070
 6451TIP3   OH243547   0.649   0.844   0.851  0.0799  0.4918 -0.1462
 6451TIP3    H143548   0.668   0.829   0.944 -1.6031  0.2820  0.1893
 6451TIP3    H243549   0.671   0.761   0.808  2.6453  1.1596 -0.2828
 6452TIP3   OH243550   5.496   2.443   0.227 -0.2452  0.2803  0.0219
 6452TIP3    H143551   5.557   2.481   0.164 -1.4799  3.0263  0.3391
 6452TIP3    H243552   5.411   2.477   0.201 -1.7951 -3.4498 -0.4203
 6453TIP3   OH243553   7.076   2.710   1.532  0.3095  0.1330  0.5624
 6453TIP3    H143554   7.149   2.758   1.493  0.5362  0.1200  0.9535
 6453TIP3    H243555   7.063   2.752   1.617 -0.5996  0.5766  0.2134
 6454TIP3   OH243556   0.823   5.558   0.906 -0.4429  0.5158 -0.1641
 6454TIP3    H143557   0.863   5.474   0.883 -1.3715 -0.4303  1.4760
 6454TIP3    H243558   0.743   5.561   0.854 -1.6483 -0.8120  1.4727
 6455TIP3   OH243559   0.460   1.872   8.206  0.3696 -0.4142 -0.0412
 6455TIP3    H143560   0.382   1.828   8.240  0.5421 -0.4829  0.2636
 6455TIP3    H243561   0.426   1.946   8.156  0.1695  0.7625  1.7609
 6456TIP3   OH243562   3.657   5.740   1.549  0.6280 -0.4502  0.2969
 6456TIP3    H143563   3.745   5.742   1.511  1.2077 -2.4249  1.3925
 6456TIP3    H243564   3.606   5.686   1.489 -0.4337  2.0894 -1.2942
 6457TIP3   OH243565   1.732   1.875   7.798 -0.0685 -0.4178 -0.4381
 6457TIP3    H143566   1.762   1.785   7.786  0.0070 -0.3868 -0.4813
 6457TIP3    H243567   1.707   1.880   7.890 -0.6840 -0.6684 -0.5841
 6458TIP3   OH243568   2.166   7.621   1.322 -0.4694 -0.1152  0.2281
 6458TIP3    H143569   2.142   7.578   1.240  0.8752 -0.6818  0.1045
 6458TIP3    H243570   2.153   7.552   1.388 -0.0138 -0.1627  0.2692
 6459TIP3   OH243571   2.563   3.440   1.523  0.1933 -0.4370  0.6558
 6459TIP3    H143572   2.499   3.411   1.588  1.2747  1.1049  2.4871
 6459TIP3    H243573   2.626   3.492   1.572  0.8038  1.2125 -1.7086
 6460TIP3   OH243574   1.069   1.121   8.950 -0.0945  0.0011  0.1760
 6460TIP3    H143575   0.985   1.111   8.994  0.4574  0.1222  1.3059
 6460TIP3    H243576   1.058   1.199   8.895 -0.8499 -0.2330 -0.0127
 6461TIP3   OH243577   1.540   2.967   0.904 -0.2490 -0.3028  0.4716
 6461TIP3    H143578   1.511   3.050   0.943  0.7610  0.0038  0.5923
 6461TIP3    H243579   1.623   2.948   0.947 -0.5266 -1.4477  0.5244
 6462TIP3   OH243580   1.581   1.290   8.431 -0.0529 -0.1752  0.3794
 6462TIP3    H143581   1.671   1.319   8.446 -0.7534  1.7556  1.0751
 6462TIP3    H243582   1.565   1.227   8.501  0.5913 -0.1929  0.5241
 6463TIP3   OH243583   0.995   4.087   1.761 -0.2445  0.6954  0.1252
 6463TIP3    H143584   1.033   4.014   1.713 -0.5057 -0.5494  1.7495
 6463TIP3    H243585   1.067   4.121   1.814 -0.9057 -0.5507  1.8902
 6464TIP3   OH243586   2.320   5.541   2.312  0.1353  0.2567 -0.5486
 6464TIP3    H143587   2.336   5.489   2.390  0.0636  0.0774 -0.6530
 6464TIP3    H243588   2.330   5.479   2.239  0.3271  0.4505 -0.6877
 6465TIP3   OH243589   1.110   6.054   0.201 -0.3658 -0.5237  0.1809
 6465TIP3    H143590   1.061   5.975   0.177  0.8392 -0.9314 -1.0996
 6465TIP3    H243591   1.058   6.126   0.167 -0.8251 -0.8547  0.1776
 6466TIP3   OH243592   2.221   0.257   2.419  0.2091  0.0177  0.3492
 6466TIP3    H143593   2.255   0.181   2.371 -1.1830 -0.5504  0.2255
 6466TIP3    H243594   2.151   0.221   2.474  0.1724  1.0679  1.0147
 6467TIP3   OH243595   6.276   5.255   8.578  0.6434 -0.0201  0.1438
 6467TIP3    H143596   6.201   5.212   8.538  1.0130  0.5958 -1.2547
 6467TIP3    H243597   6.314   5.309   8.508  2.0578  0.1131  0.9660
 6468TIP3   OH243598   6.007   0.932   0.473  0.0303  0.5586 -0.4681
 6468TIP3    H143599   6.062   0.885   0.536  0.8340  0.7715 -0.9970
 6468TIP3    H243600   6.056   0.927   0.390 -0.6284  0.9695 -0.8876
 6469TIP3   OH243601   6.921   6.849   1.654 -0.9853  0.1420 -0.4560
 6469TIP3    H143602   6.870   6.788   1.707  0.0392 -1.8172 -1.6266
 6469TIP3    H243603   6.856   6.891   1.597 -1.7940  0.6901  0.8281
 6470TIP3   OH243604   3.404   5.006   9.067  0.3018 -0.5590 -0.1062
 6470TIP3    H143605   3.395   5.014   9.162  0.1203 -2.0433  0.0374
 6470TIP3    H243606   3.330   5.054   9.030  0.6324  0.4151  0.4781
 6471TIP3   OH243607   3.209   1.318   2.093  0.2662 -0.0698  0.2719
 6471TIP3    H143608   3.147   1.375   2.047  0.2090 -0.3665 -0.0176
 6471TIP3    H243609   3.154   1.254   2.138  0.3759 -0.5831 -0.3182
 6472TIP3   OH243610   2.557   6.578   8.535 -0.6419  0.4031 -0.0748
 6472TIP3    H143611   2.638   6.597   8.487  0.8865 -0.0632  2.1962
 6472TIP3    H243612   2.540   6.486   8.516 -1.5317  0.8739 -1.7479
 6473TIP3   OH243613   2.645   0.188   8.874  0.5133  0.4083  0.2353
 6473TIP3    H143614   2.680   0.158   8.790  1.1485  2.3642 -0.2569
 6473TIP3    H243615   2.587   0.117   8.903  2.3820 -1.5325 -0.4883
 6474TIP3   OH243616   5.901   0.553   2.091 -0.3756  0.6389 -0.3379
 6474TIP3    H143617   5.820   0.601   2.108 -0.0095  0.6906  1.5199
 6474TIP3    H243618   5.960   0.579   2.162  1.1209  0.2564 -1.3903
 6475TIP3   OH243619   3.262   2.822   1.706  0.1299 -0.0331 -0.2836
 6475TIP3    H143620   3.346   2.777   1.702 -0.2643 -0.7153 -1.4942
 6475TIP3    H243621   3.268   2.879   1.783  1.5336 -0.3778 -0.1212
 6476TIP3   OH243622   6.255   0.599   0.304  0.7439 -0.4485 -0.9893
 6476TIP3    H143623   6.265   0.666   0.371  1.0987 -2.2215  0.8390
 6476TIP3    H243624   6.165   0.609   0.273 -0.1854 -0.8766  1.3338
 6477TIP3   OH243625   4.338   0.563   1.697 -0.4399 -0.1637 -0.5538
 6477TIP3    H143626   4.363   0.475   1.671 -0.6968 -0.1149 -0.9637
 6477TIP3    H243627   4.388   0.579   1.777  0.1030 -0.4313 -0.8354
 6478TIP3   OH243628   0.284   1.490   9.145  0.3053  0.2961 -0.6116
 6478TIP3    H143629   0.379   1.475   9.146  0.4584  1.1808  0.9429
 6478TIP3    H243630   0.273   1.574   9.100  0.2044 -0.0109 -1.1746
 6479TIP3   OH243631   4.066   6.680   7.715  0.3340 -0.2807 -0.0451
 6479TIP3    H143632   4.004   6.684   7.643  0.2795 -0.8820 -0.0351
 6479TIP3    H243633   4.059   6.590   7.748 -0.8639  0.4322  1.7899
 6480TIP3   OH243634   0.023   3.284   6.236 -0.1450 -0.4240 -0.4898
 6480TIP3    H143635   0.063   3.332   6.309  0.6994  2.2323 -2.5390
 6480TIP3    H243636   0.009   3.196   6.270  3.2386 -0.2482  1.8366
 6481TIP3   OH243637   6.635   2.497   9.103  0.1199 -0.0742 -0.2216
 6481TIP3    H143638   6.542   2.485   9.120  0.0099  0.6060 -0.3336
 6481TIP3    H243639   6.662   2.567   9.163  0.1736  0.9260 -1.3818
 6482TIP3   OH243640   6.897   1.680   1.370  0.2812  0.0590  0.3333
 6482TIP3    H143641   6.857   1.760   1.404 -0.1754  0.4107 -0.9745
 6482TIP3    H243642   6.980   1.709   1.331  0.7351 -0.3136  1.0027
 6483TIP3   OH243643   7.119   2.441   8.246  0.0760  0.2040  0.5385
 6483TIP3    H143644   7.113   2.347   8.233 -1.9104  0.3378  0.0533
 6483TIP3    H243645   7.054   2.460   8.314 -0.6514  1.3718 -0.4332
 6484TIP3   OH243646   2.632   4.377   7.423  0.1353  0.3230  0.3501
 6484TIP3    H143647   2.611   4.447   7.485 -1.4795 -0.0064  0.2064
 6484TIP3    H243648   2.712   4.337   7.458 -0.4877  0.4386  1.9743
 6485TIP3   OH243649   5.241   4.140   7.409 -0.0122 -0.0953 -0.1661
 6485TIP3    H143650   5.335   4.124   7.407 -0.1299 -0.7876 -0.2061
 6485TIP3    H243651   5.227   4.211   7.346  0.4549 -0.1009 -0.2766
 6486TIP3   OH243652   7.121   5.268   9.530  0.0377 -0.0685  0.3342
 6486TIP3    H143653   7.184   5.325   9.485  2.3733 -2.8695 -0.2423
 6486TIP3    H243654   7.098   5.316   9.609  1.4677  1.8876 -0.3602
 6487TIP3   OH243655   3.809   6.302   2.507 -0.5956 -0.6016 -0.3963
 6487TIP3    H143656   3.855   6.242   2.566 -0.0368 -0.6241 -0.8494
 6487TIP3    H243657   3.739   6.339   2.560 -0.2776 -0.8464  0.1979
 6488TIP3   OH243658   0.498   4.205   9.598  0.5586  0.2408  0.4336
 6488TIP3    H143659   0.478   4.124   9.645 -1.3380 -0.7162 -1.7977
 6488TIP3    H243660   0.570   4.182   9.539 -0.2058  0.0535 -0.4432
 6489TIP3   OH243661   3.607   7.622   7.059  0.4559  0.3224 -0.0967
 6489TIP3    H143662   3.609   7.701   7.005  0.5824  2.4176  2.8116
 6489TIP3    H243663   3.696   7.614   7.093  0.8631 -2.0134 -1.4676
 6490TIP3   OH243664   3.517   6.426   9.145 -0.3964 -0.2123 -0.9840
 6490TIP3    H143665   3.441   6.418   9.202 -0.1851 -0.5738 -0.7508
 6490TIP3    H243666   3.523   6.341   9.101  0.2988 -0.4442 -0.4554
 6491TIP3   OH243667   5.879   6.595   7.486  0.4836  0.0555  0.1109
 6491TIP3    H143668   5.893   6.526   7.550  1.5618  1.0497  0.9976
 6491TIP3    H243669   5.945   6.581   7.419 -0.4837 -0.8338 -0.6997
 6492TIP3   OH243670   2.367   7.116   8.573 -0.1962 -0.1559  0.4197
 6492TIP3    H143671   2.359   7.204   8.608  2.3545  0.1482  0.4644
 6492TIP3    H243672   2.313   7.116   8.494 -1.3213  0.9824  1.1556
 6493TIP3   OH243673   7.593   6.150   9.909 -0.1217 -0.2213  0.1984
 6493TIP3    H143674   7.683   6.158   9.878  0.2872  2.1879  1.7122
 6493TIP3    H243675   7.594   6.192   9.995 -2.2632 -2.0660  1.2281
 6494TIP3   OH243676   0.973   3.237   7.918 -0.0221  0.0029  0.1178
 6494TIP3    H143677   0.998   3.151   7.885  0.6284 -0.1470  0.9786
 6494TIP3    H243678   0.986   3.232   8.013 -2.8280  0.1040  0.5850
 6495TIP3   OH243679   6.586   6.175   9.401 -0.1314  0.6755  0.3841
 6495TIP3    H143680   6.502   6.176   9.354  0.0404  0.1062  0.0515
 6495TIP3    H243681   6.562   6.170   9.493 -0.4629  0.3615  0.2822
 6496TIP3   OH243682   3.205   6.249   0.221  0.0524 -0.1366 -0.1642
 6496TIP3    H143683   3.183   6.161   0.252 -0.5817 -0.9819 -2.7296
 6496TIP3    H243684   3.300   6.247   0.208 -0.1582 -1.2128 -2.0681
 6497TIP3   OH243685   4.861   7.557   1.747 -0.6053 -0.3333 -0.1091
 6497TIP3    H143686   4.834   7.628   1.806 -1.0496  0.0076 -0.7145
 6497TIP3    H243687   4.943   7.588   1.709 -0.7627 -0.1745 -0.3198
 6498TIP3   OH243688   5.364   5.026   6.567 -0.4231  0.1848 -0.0110
 6498TIP3    H143689   5.324   5.078   6.497  1.0841  0.5033 -0.6705
 6498TIP3    H243690   5.326   5.062   6.648 -2.8539 -0.7688 -0.6278
 6499TIP3   OH243691   1.700   1.154   1.039 -0.2022  0.4678  0.4689
 6499TIP3    H143692   1.610   1.125   1.054  0.3277 -0.3636  2.2470
 6499TIP3    H243693   1.736   1.088   0.981 -0.3618  0.1074  0.7772
 6500TIP3   OH243694   0.866   4.246   7.158 -0.0785 -0.3534  0.2075
 6500TIP3    H143695   0.872   4.160   7.115  0.8966  0.0155 -0.4191
 6500TIP3    H243696   0.829   4.226   7.244 -2.4752 -1.0702 -0.8806
 6501TIP3   OH243697   5.605   1.186   1.607  0.5205  0.4676  0.2782
 6501TIP3    H143698   5.597   1.281   1.618 -0.6851  0.2743  1.3360
 6501TIP3    H243699   5.667   1.158   1.674 -0.6872  0.2787  1.3480
 6502TIP3   OH243700   0.656   5.412   7.696 -0.1632  0.6561  0.3989
 6502TIP3    H143701   0.730   5.420   7.755  1.7605 -0.3687 -1.7310
 6502TIP3    H243702   0.596   5.353   7.740  0.2282  1.5200  2.1719
 6503TIP3   OH243703   1.853   5.255   0.355 -0.6069  0.5785  0.3034
 6503TIP3    H143704   1.758   5.245   0.367 -0.2089 -1.5299  2.1582
 6503TIP3    H243705   1.885   5.167   0.338  0.9831  1.3681 -1.1116
 6504TIP3   OH243706   0.359   3.040   1.070 -0.5622  0.0122  0.0587
 6504TIP3    H143707   0.392   3.051   1.160  2.5444 -0.8392 -0.8589
 6504TIP3    H243708   0.372   3.126   1.029  2.4301 -0.7188 -0.7728
 6505TIP3   OH243709   0.454   2.339   8.307 -0.0391  0.2488  0.2907
 6505TIP3    H143710   0.495   2.353   8.392 -0.4488 -1.5116  0.8109
 6505TIP3    H243711   0.416   2.251   8.312 -2.6730  1.2196 -0.6534
 6506TIP3   OH243712   4.081   7.222   7.669  0.3873 -0.2601 -0.0291
 6506TIP3    H143713   4.017   7.200   7.737  1.9986 -1.6929  1.1237
 6506TIP3    H243714   4.124   7.301   7.701  0.2554 -0.1832 -0.0396
 6507TIP3   OH243715   5.515   7.110   2.094  0.0418 -0.1623  0.2487
 6507TIP3    H143716   5.605   7.093   2.119  0.4322  0.6014 -0.5923
 6507TIP3    H243717   5.464   7.046   2.144  1.1593 -1.5775 -0.3269
 6508TIP3   OH243718   1.221   4.788   0.161  0.4670 -0.5716  0.3338
 6508TIP3    H143719   1.249   4.764   0.073  0.1897  0.3061 -0.0006
 6508TIP3    H243720   1.246   4.713   0.215  0.0784 -1.3916 -0.5898
 6509TIP3   OH243721   7.654   3.410   3.104  0.1145 -0.2540 -0.3321
 6509TIP3    H143722   7.619   3.478   3.046 -0.4860 -0.5562 -0.3300
 6509TIP3    H243723   7.738   3.445   3.135 -0.4665  0.7416  0.1365
 6510TIP3   OH243724   0.678   2.870   3.137  0.5785 -0.2069 -0.3242
 6510TIP3    H143725   0.652   2.960   3.118  0.5010  0.2068  1.5529
 6510TIP3    H243726   0.609   2.836   3.194  1.6672 -0.7422  0.7130
 6511TIP3   OH243727   1.308   5.412   7.983 -0.2208 -0.0259 -0.0777
 6511TIP3    H143728   1.308   5.350   7.911 -0.5230  1.9875 -1.9103
 6511TIP3    H243729   1.333   5.495   7.944  0.1906  1.0515  2.2707
 6512TIP3   OH243730   7.568   1.600   8.959  0.7139  0.0469  0.1921
 6512TIP3    H143731   7.480   1.572   8.984  0.8188 -0.2666  0.2131
 6512TIP3    H243732   7.562   1.695   8.953 -0.2590 -0.0880 -2.1639
 6513TIP3   OH243733   5.168   6.362   2.256  0.3201  0.0153 -0.0034
 6513TIP3    H143734   5.214   6.423   2.314  0.4882  0.7282 -0.8539
 6513TIP3    H243735   5.129   6.297   2.315  2.6610 -0.8016  0.7322
 6514TIP3   OH243736   6.759   3.582   7.185 -0.1070  0.1350  0.2227
 6514TIP3    H143737   6.824   3.605   7.118 -0.6088 -1.5212 -0.8996
 6514TIP3    H243738   6.785   3.496   7.216 -0.6909  0.2774  1.1520
 6515TIP3   OH243739   6.446   2.594   0.863 -0.0915 -0.3161 -0.4734
 6515TIP3    H143740   6.352   2.590   0.883 -0.4289  0.6505 -1.7246
 6515TIP3    H243741   6.484   2.523   0.915 -1.3112  0.0806  1.0589
 6516TIP3   OH243742   3.319   0.318   9.501  0.7944  0.1768  0.0414
 6516TIP3    H143743   3.361   0.395   9.540 -1.0472 -0.0950  2.8166
 6516TIP3    H243744   3.326   0.251   9.568  0.6188 -1.5038 -1.5588
 6517TIP3   OH243745   4.098   7.015   9.189 -0.0126  0.2285 -0.2970
 6517TIP3    H143746   4.191   7.003   9.206  0.0430  0.4205 -0.4603
 6517TIP3    H243747   4.092   7.102   9.148 -0.4120  0.7999  0.9322
 6518TIP3   OH243748   2.306   7.385   9.071  0.5302  0.3812  0.0068
 6518TIP3    H143749   2.363   7.359   8.998 -1.2854 -0.0954 -1.3249
 6518TIP3    H243750   2.274   7.301   9.106  0.0293  0.6587  0.2132
 6519TIP3   OH243751   3.342   5.855   1.261 -0.3742  0.3926  0.3601
 6519TIP3    H143752   3.430   5.829   1.232 -0.5794  0.8444 -0.6791
 6519TIP3    H243753   3.284   5.790   1.221 -0.5183  0.0284  1.1378
 6520TIP3   OH243754   3.891   3.936   9.037  0.3715 -0.0872  0.0122
 6520TIP3    H143755   3.965   3.983   9.000 -1.1802  0.9987 -1.9224
 6520TIP3    H243756   3.868   3.871   8.970 -0.6126 -0.1849  0.4301
 6521TIP3   OH243757   3.615   6.158   7.514 -0.0969  0.1325 -0.1119
 6521TIP3    H143758   3.635   6.066   7.531 -1.1856 -0.0430  0.2813
 6521TIP3    H243759   3.601   6.163   7.420 -0.3124 -0.1614 -0.0969
 6522TIP3   OH243760   2.932   1.252   1.115 -0.1291 -0.0511 -0.2639
 6522TIP3    H143761   2.973   1.327   1.158 -1.2641  2.1695 -2.8030
 6522TIP3    H243762   2.882   1.209   1.184  0.9812  1.1920  1.3782
 6523TIP3   OH243763   6.037   2.343   2.104  0.4329 -0.0173 -0.8081
 6523TIP3    H143764   6.054   2.437   2.099 -0.1243  0.0931 -0.7034
 6523TIP3    H243765   6.021   2.326   2.197 -0.4053 -0.0424 -0.9505
 6524TIP3   OH243766   5.747   6.657   0.913 -0.5371  0.1644  0.8737
 6524TIP3    H143767   5.749   6.645   1.008 -0.7729 -1.2074  0.7263
 6524TIP3    H243768   5.661   6.695   0.895 -0.1086  1.3628  1.2912
 6525TIP3   OH243769   7.625   0.434   2.705  0.0230 -0.5824 -0.0807
 6525TIP3    H143770   7.678   0.362   2.669 -0.1392 -0.2562 -1.0165
 6525TIP3    H243771   7.558   0.391   2.757 -0.1662 -1.1256 -0.7522
 6526TIP3   OH243772   6.771   0.097   9.080  0.3229  0.3111 -0.0021
 6526TIP3    H143773   6.799   0.101   9.171 -0.0639 -0.9138  0.1839
 6526TIP3    H243774   6.844   0.134   9.031  1.3722 -0.8395  0.6427
 6527TIP3   OH243775   0.881   4.703   2.163 -0.1976  0.6914 -0.3608
 6527TIP3    H143776   0.970   4.690   2.129 -0.8824 -2.7315 -1.1858
 6527TIP3    H243777   0.894   4.731   2.254  1.6604  2.1466 -0.9916
 6528TIP3   OH243778   3.083   2.812   8.015  0.7540 -0.0695  0.4182
 6528TIP3    H143779   3.042   2.825   7.930 -0.6013 -0.4152  0.9894
 6528TIP3    H243780   3.079   2.717   8.030 -0.6026  0.1420  1.5992
 6529TIP3   OH243781   1.791   0.876   2.530 -0.3056 -0.5265 -0.3697
 6529TIP3    H143782   1.736   0.907   2.458 -1.6607 -0.0250  0.8320
 6529TIP3    H243783   1.802   0.953   2.586 -0.0807 -1.1483  0.4489
 6530TIP3   OH243784   2.284   7.126   9.895  0.3550  0.6142 -0.2800
 6530TIP3    H143785   2.271   7.031   9.890  2.4197  0.3151 -0.5460
 6530TIP3    H243786   2.257   7.159   9.809  0.5109  0.1500 -0.5079
 6531TIP3   OH243787   4.747   3.966   7.542  0.4951 -0.5312  0.1565
 6531TIP3    H143788   4.709   3.905   7.605  0.8397 -0.6695  0.2313
 6531TIP3    H243789   4.835   3.983   7.575  0.3250  0.1810  0.2572
 6532TIP3   OH243790   2.583   3.402   2.400 -0.1509 -0.7097 -0.5891
 6532TIP3    H143791   2.532   3.472   2.440  1.5789 -0.9163  2.2447
 6532TIP3    H243792   2.668   3.441   2.383  0.1683 -1.5548 -0.9836
 6533TIP3   OH243793   5.651   1.603   8.398 -0.1986  0.5516 -0.1759
 6533TIP3    H143794   5.683   1.529   8.450 -2.8328 -0.1160  0.6190
 6533TIP3    H243795   5.710   1.606   8.322  0.6425 -1.6668  0.3156
 6534TIP3   OH243796   0.368   0.407   0.510 -0.4155  0.1365 -0.1423
 6534TIP3    H143797   0.311   0.456   0.569 -0.3419  1.0763 -0.8261
 6534TIP3    H243798   0.358   0.316   0.537 -0.8782  0.4751  0.8927
 6535TIP3   OH243799   2.985   3.618   7.674  0.1150  0.1024 -0.1588
 6535TIP3    H143800   3.061   3.638   7.618 -0.6031 -0.0045 -1.2053
 6535TIP3    H243801   2.990   3.683   7.744  0.6968  0.6583 -0.6914
 6536TIP3   OH243802   1.640   2.098   1.099 -0.0916  0.1930  0.0625
 6536TIP3    H143803   1.702   2.115   1.028 -1.0793 -0.0743 -0.8747
 6536TIP3    H243804   1.556   2.087   1.056 -1.1385  2.2314  1.4407
 6537TIP3   OH243805   6.807   0.799   7.605  0.3607  0.2395  0.2279
 6537TIP3    H143806   6.893   0.840   7.614  0.2681  0.1373  2.0846
 6537TIP3    H243807   6.792   0.756   7.690 -0.8953 -0.9847 -0.5641
 6538TIP3   OH243808   1.943   7.096   9.038 -0.2846 -0.5344  0.2760
 6538TIP3    H143809   1.936   7.133   9.125  1.3751  2.2277 -0.6468
 6538TIP3    H243810   2.035   7.108   9.014 -0.5371 -1.8578 -1.6109
 6539TIP3   OH243811   3.975   4.721   8.762  0.1399 -0.0743  0.2268
 6539TIP3    H143812   4.053   4.773   8.777 -0.3167  0.5773  0.3896
 6539TIP3    H243813   3.940   4.753   8.679 -0.1219 -0.1506  0.3054
 6540TIP3   OH243814   2.995   0.720   9.135  0.2256 -0.1493 -0.0940
 6540TIP3    H143815   3.059   0.730   9.065 -0.4846  0.3986 -0.6761
 6540TIP3    H243816   2.982   0.809   9.170 -2.8302  0.4547 -2.3631
 6541TIP3   OH243817   4.588   7.042   6.793 -0.1479 -0.2811 -0.4798
 6541TIP3    H143818   4.649   7.058   6.721 -0.1293 -0.7858 -0.5753
 6541TIP3    H243819   4.641   7.050   6.872 -0.1514  0.1926 -0.5204
 6542TIP3   OH243820   2.691   5.627   9.685 -0.2893 -0.5121 -0.0439
 6542TIP3    H143821   2.633   5.656   9.615 -1.5349  1.2637  1.6176
 6542TIP3    H243822   2.756   5.698   9.693 -0.3935 -0.5009  0.8154
 6543TIP3   OH243823   1.119   7.151   2.163  0.4643 -0.5166 -0.2853
 6543TIP3    H143824   1.164   7.226   2.202  0.9707 -0.9925  0.0604
 6543TIP3    H243825   1.158   7.142   2.076 -0.7034  0.5784 -0.9603
 6544TIP3   OH243826   7.259   2.674   9.964  0.0780 -0.4989  0.3183
 6544TIP3    H143827   7.237   2.628   9.883 -0.1994 -0.0200  0.1136
 6544TIP3    H243828   7.250   2.767   9.942 -1.4334 -0.3769  1.2851
 6545TIP3   OH243829   3.432   0.942   8.218 -0.4437  0.3429 -0.3394
 6545TIP3    H143830   3.502   1.006   8.206 -1.3731  1.3732 -0.4045
 6545TIP3    H243831   3.371   0.959   8.146 -1.0756 -0.1206  0.0759
 6546TIP3   OH243832   5.487   3.283   9.473  0.5105  0.4211 -0.4833
 6546TIP3    H143833   5.548   3.229   9.422  0.0074  0.6449 -1.3543
 6546TIP3    H243834   5.407   3.284   9.420 -0.0613  0.5947  0.3666
 6547TIP3   OH243835   0.534   2.200   7.665 -0.0930 -0.5691 -0.5945
 6547TIP3    H143836   0.558   2.287   7.635 -1.1506 -0.2043 -0.4459
 6547TIP3    H243837   0.511   2.152   7.585 -0.4409 -0.4010 -0.5983
 6548TIP3   OH243838   1.158   3.731   3.273 -0.3267  0.1100  0.2590
 6548TIP3    H143839   1.175   3.805   3.214 -1.4527  1.5071  1.6032
 6548TIP3    H243840   1.101   3.673   3.222  1.1708 -0.2607 -1.0796
 6549TIP3   OH243841   0.749   2.297   1.346 -0.2566 -0.4304 -0.6582
 6549TIP3    H143842   0.809   2.236   1.389 -0.3268 -0.1489 -0.1516
 6549TIP3    H243843   0.792   2.382   1.353 -0.5479 -0.2857 -0.6039
 6550TIP3   OH243844   5.160   0.281   0.177 -0.1147 -0.6179  0.1936
 6550TIP3    H143845   5.188   0.228   0.103 -1.9619 -0.3600 -0.7416
 6550TIP3    H243846   5.220   0.257   0.248 -0.5760 -3.6039 -0.3115
 6551TIP3   OH243847   3.617   2.089   0.947  0.3874 -0.1081 -0.3446
 6551TIP3    H143848   3.539   2.080   1.003 -0.2010  0.9879 -0.9331
 6551TIP3    H243849   3.661   2.005   0.953 -0.0449 -0.2710  1.1883
 6552TIP3   OH243850   7.405   1.819   8.590 -0.3002 -0.1141 -0.4662
 6552TIP3    H143851   7.340   1.889   8.591  1.4934  1.6283  0.1059
 6552TIP3    H243852   7.391   1.772   8.672 -0.9568  0.1451 -0.4267
 6553TIP3   OH243853   4.171   2.901   2.823  1.2633  0.3942 -0.2767
 6553TIP3    H143854   4.111   2.833   2.852  1.0970  1.1349  1.1887
 6553TIP3    H243855   4.142   2.980   2.869  1.7789  1.3547 -1.5193
 6554TIP3   OH243856   5.027   1.835   1.544  0.6170 -0.1459  0.6125
 6554TIP3    H143857   5.036   1.744   1.573  1.3664 -0.1179  0.4861
 6554TIP3    H243858   4.946   1.865   1.585 -0.3363 -1.2662 -0.3805
 6555TIP3   OH243859   6.428   5.916   9.871  0.1217  0.8650 -0.0146
 6555TIP3    H143860   6.366   5.918   9.798  1.0486  1.3646 -0.8257
 6555TIP3    H243861   6.417   5.829   9.909 -2.0549  1.4210  0.7731
 6556TIP3   OH243862   4.099   2.601   8.081 -0.2192  0.0743 -0.4270
 6556TIP3    H143863   4.148   2.583   8.001 -2.2038 -1.2490 -1.4220
 6556TIP3    H243864   4.095   2.696   8.086  1.3565  0.1925 -0.9657
 6557TIP3   OH243865   5.051   1.740   8.727 -0.4389  0.3867 -0.6886
 6557TIP3    H143866   5.100   1.809   8.682 -0.2654 -1.1884 -3.1063
 6557TIP3    H243867   4.979   1.786   8.770 -0.1273  2.1206 -1.8908
 6558TIP3   OH243868   3.642   3.214   6.583  0.3543 -0.6780 -0.2182
 6558TIP3    H143869   3.681   3.298   6.605  0.1095 -0.3811 -0.8775
 6558TIP3    H243870   3.600   3.184   6.663 -0.1550  0.1619 -0.1619
 6559TIP3   OH243871   3.963   7.384   0.182  0.4409 -0.3359 -0.4890
 6559TIP3    H143872   4.016   7.359   0.258  0.7185 -0.0814 -0.5948
 6559TIP3    H243873   3.962   7.305   0.127  1.7097  0.0051 -1.0492
 6560TIP3   OH243874   1.917   4.889   7.246 -0.6811  0.0195 -0.1911
 6560TIP3    H143875   1.923   4.849   7.159  0.9673  1.3503 -0.7443
 6560TIP3    H243876   1.862   4.966   7.233  0.4460  0.8393 -0.3680
 6561TIP3   OH243877   7.461   2.355   8.848 -0.1004  0.1362  0.0248
 6561TIP3    H143878   7.555   2.336   8.851  0.0028  0.7488  0.9320
 6561TIP3    H243879   7.456   2.450   8.852 -0.7909  0.0689  0.9693
 6562TIP3   OH243880   5.156   1.068   1.257  0.6516 -0.4259 -0.7901
 6562TIP3    H143881   5.169   1.051   1.164  2.0882  0.1490 -0.7176
 6562TIP3    H243882   5.213   1.005   1.301 -2.0614 -2.6154 -0.1448
 6563TIP3   OH243883   5.702   0.526   7.732  0.1195 -0.7366 -0.2623
 6563TIP3    H143884   5.676   0.434   7.727  0.1317 -0.7180 -0.7548
 6563TIP3    H243885   5.726   0.549   7.642 -0.8464  0.0294 -0.3314
 6564TIP3   OH243886   2.388   1.174   0.340  0.3241  0.4623 -0.3534
 6564TIP3    H143887   2.429   1.089   0.331 -0.9154 -0.2228  0.2078
 6564TIP3    H243888   2.454   1.229   0.382  0.4455 -0.8056  1.2211
 6565TIP3   OH243889   6.811   1.819   9.370 -0.5294 -0.5852 -0.7033
 6565TIP3    H143890   6.764   1.869   9.304 -0.0915  2.5501  1.1426
 6565TIP3    H243891   6.903   1.828   9.346 -0.4962 -1.6855 -1.0563
 6566TIP3   OH243892   4.601   1.234   0.217  0.2531 -0.1967  0.4398
 6566TIP3    H143893   4.630   1.180   0.144  0.2472 -0.0652  0.3403
 6566TIP3    H243894   4.520   1.275   0.187 -1.2460 -2.2254  1.4702
 6567TIP3   OH243895   7.042   2.452   7.014  0.5491 -0.3526 -0.4237
 6567TIP3    H143896   7.079   2.368   6.986  0.1958 -1.0024  0.9538
 6567TIP3    H243897   7.061   2.456   7.108  0.0256  0.8417 -0.3526
 6568TIP3   OH243898   0.638   5.711   0.425  0.2802 -0.8424  0.4805
 6568TIP3    H143899   0.709   5.698   0.488 -0.8004 -1.1148  1.6774
 6568TIP3    H243900   0.668   5.666   0.346  1.3282 -1.1675  1.0362
 6569TIP3   OH243901   6.339   6.587   7.283 -0.0929  0.0457  0.1450
 6569TIP3    H143902   6.383   6.540   7.212  0.7506 -0.1103  0.7630
 6569TIP3    H243903   6.360   6.679   7.268  2.5013 -0.2050  1.7815
 6570TIP3   OH243904   2.318   5.824   2.806  0.3674 -0.4187  0.6685
 6570TIP3    H143905   2.273   5.873   2.876 -0.3176  1.8194 -1.2132
 6570TIP3    H243906   2.261   5.834   2.730  2.6078 -0.0724 -1.0409
 6571TIP3   OH243907   2.867   6.242   1.062 -0.2229 -0.4359 -0.2220
 6571TIP3    H143908   2.808   6.315   1.046  0.6191  0.4073  0.3884
 6571TIP3    H243909   2.818   6.184   1.120 -0.3416  0.4312  0.5698
 6572TIP3   OH243910   2.047   6.182   3.278 -0.5248 -0.2378  0.3294
 6572TIP3    H143911   1.999   6.101   3.261 -0.5569 -0.0152 -0.7389
 6572TIP3    H243912   2.108   6.160   3.348  0.8687 -1.7835 -1.2564
 6573TIP3   OH243913   3.447   3.524   8.797  0.0458  0.0056 -0.2357
 6573TIP3    H143914   3.444   3.612   8.834 -0.0437 -0.6723  1.4922
 6573TIP3    H243915   3.526   3.485   8.835 -0.0646 -0.7427 -0.7556
 6574TIP3   OH243916   2.668   2.805   0.545 -0.4563  0.8556  0.5964
 6574TIP3    H143917   2.597   2.754   0.585 -0.8914  0.3898 -0.7070
 6574TIP3    H243918   2.747   2.778   0.592 -0.7463 -0.7361  0.2413
 6575TIP3   OH243919   5.481   6.662   1.104  0.0375 -0.3892  0.2614
 6575TIP3    H143920   5.480   6.726   1.032  0.7586 -1.3569 -0.6324
 6575TIP3    H243921   5.445   6.582   1.065  0.7341 -1.0181  0.8827
 6576TIP3   OH243922   4.134   5.690   9.949 -0.0531  0.3277 -0.2891
 6576TIP3    H143923   4.041   5.683   9.927  0.1699 -1.4076 -0.9129
 6576TIP3    H243924   4.137   5.689  10.044 -0.7525  2.5154 -0.1944
 6577TIP3   OH243925   5.849   3.092   8.668 -0.5544 -1.0434 -0.4786
 6577TIP3    H143926   5.860   2.998   8.686 -1.5399 -1.0771 -0.0189
 6577TIP3    H243927   5.882   3.135   8.746  1.2074 -0.9195 -1.2289
 6578TIP3   OH243928   5.543   1.029   7.998 -0.0204 -0.3193 -0.1300
 6578TIP3    H143929   5.627   0.982   7.998  0.2078  0.0246  1.2872
 6578TIP3    H243930   5.509   1.017   8.087 -1.8046 -0.9807 -0.8496
 6579TIP3   OH243931   0.726   7.064   2.550 -0.1524 -0.2196 -0.8622
 6579TIP3    H143932   0.811   7.072   2.506 -0.1463  0.0378 -0.8057
 6579TIP3    H243933   0.731   6.981   2.596  1.0654  0.9589  1.2830
 6580TIP3   OH243934   7.444   7.104   1.940  0.1549 -0.0246 -0.7248
 6580TIP3    H143935   7.474   7.170   2.003 -0.2731 -1.8138  1.4802
 6580TIP3    H243936   7.369   7.062   1.983 -0.0601 -1.4389 -2.3718
 6581TIP3   OH243937   7.491   6.933   9.128  0.2556 -0.1164  0.0486
 6581TIP3    H143938   7.402   6.962   9.151 -0.2214 -0.9546 -0.6879
 6581TIP3    H243939   7.513   6.868   9.195  0.6842  0.7501  0.7609
 6582TIP3   OH243940   3.745   3.272   2.872  0.2655  0.3987  0.5961
 6582TIP3    H143941   3.840   3.282   2.879  0.4793 -0.4483 -0.7515
 6582TIP3    H243942   3.729   3.265   2.778 -1.2028  1.1070  0.7708
 6583TIP3   OH243943   6.743   1.395   9.491 -0.0156 -0.9480 -0.5514
 6583TIP3    H143944   6.823   1.435   9.456 -0.8725  0.6772 -0.7267
 6583TIP3    H243945   6.748   1.410   9.586  0.1423 -1.3493 -0.4925
 6584TIP3   OH243946   0.613   5.249   0.961  0.3386 -0.4478  0.1804
 6584TIP3    H143947   0.665   5.170   0.977 -0.5369 -0.9706  0.4937
 6584TIP3    H243948   0.635   5.273   0.871  0.7132 -0.9740  0.1239
 6585TIP3   OH243949   0.512   4.302   1.055  0.0088 -0.2208 -0.1152
 6585TIP3    H143950   0.553   4.355   1.123 -0.5408  0.4755 -0.3153
 6585TIP3    H243951   0.436   4.263   1.097  0.3302 -0.7451 -0.0098
 6586TIP3   OH243952   5.266   2.002   1.597  0.2395  0.3940 -0.0404
 6586TIP3    H143953   5.336   1.952   1.556  1.0248  0.5809  1.0400
 6586TIP3    H243954   5.186   1.956   1.572  0.8183 -0.4198 -0.4442
 6587TIP3   OH243955   0.938   6.380   1.944 -0.6770  0.1796 -0.4156
 6587TIP3    H143956   0.932   6.314   1.875 -1.7662  1.5456 -1.7042
 6587TIP3    H243957   0.859   6.433   1.934 -1.6183 -0.3829  2.8309
 6588TIP3   OH243958   7.466   5.213   1.341  0.1702 -0.3295 -0.0925
 6588TIP3    H143959   7.519   5.292   1.350 -0.3118  0.0263 -0.3310
 6588TIP3    H243960   7.460   5.177   1.429  0.1272  0.0724  0.0683
 6589TIP3   OH243961   4.593   0.567   7.683 -0.2286  0.0431 -0.2646
 6589TIP3    H143962   4.614   0.506   7.613 -0.1430 -0.6757  0.3693
 6589TIP3    H243963   4.675   0.613   7.702  0.1826 -0.9580  0.4899
 6590TIP3   OH243964   2.112   3.777   9.492  0.6670 -0.6338 -0.1838
 6590TIP3    H143965   2.197   3.820   9.493  1.4905 -2.1685 -0.7701
 6590TIP3    H243966   2.052   3.840   9.532  1.7470  1.1147 -1.2249
 6591TIP3   OH243967   3.991   5.214   9.200  0.0739 -0.1172 -0.3811
 6591TIP3    H143968   4.024   5.171   9.279  0.2187 -0.4039 -0.5963
 6591TIP3    H243969   3.900   5.185   9.193  0.3741 -0.9537 -0.9108
 6592TIP3   OH243970   3.732   0.453   0.438 -0.3878 -0.3532 -0.1630
 6592TIP3    H143971   3.692   0.520   0.493 -1.0204 -1.7514  1.1504
 6592TIP3    H243972   3.786   0.502   0.377 -0.4610  1.3363  1.0453
 6593TIP3   OH243973   0.672   1.300   0.005 -0.0091  0.0585 -0.4849
 6593TIP3    H143974   0.620   1.240   0.058  0.3046  0.1999 -0.0030
 6593TIP3    H243975   0.669   1.384   0.053 -0.4625  0.4326 -1.1629
 6594TIP3   OH243976   4.413   1.956   7.741  0.3271  0.1414 -0.9091
 6594TIP3    H143977   4.463   1.923   7.816 -1.6543 -1.8503 -0.3622
 6594TIP3    H243978   4.327   1.976   7.776  0.4255  2.8505 -1.9628
 6595TIP3   OH243979   6.341   7.285   3.302  0.9727 -0.1921  0.1411
 6595TIP3    H143980   6.289   7.307   3.380 -0.0525  0.7407 -0.7699
 6595TIP3    H243981   6.279   7.293   3.230  1.4465 -2.7132 -0.6531
 6596TIP3   OH243982   4.633   2.117   2.542 -0.1357  0.7934  0.2116
 6596TIP3    H143983   4.670   2.119   2.453 -0.1082 -0.3941  0.1885
 6596TIP3    H243984   4.564   2.184   2.540 -0.8249  0.0849 -1.0172
 6597TIP3   OH243985   1.943   0.493   2.156  0.3980 -0.5925  0.1594
 6597TIP3    H143986   1.999   0.563   2.122 -0.9707  0.4361 -0.0792
 6597TIP3    H243987   1.881   0.476   2.085 -0.5514 -0.6140  0.9740
 6598TIP3   OH243988   6.919   2.599   2.028  0.1776  0.0593 -0.1355
 6598TIP3    H143989   6.991   2.541   2.004 -0.0478 -0.1288 -0.3618
 6598TIP3    H243990   6.844   2.541   2.039  0.2946  0.1194  1.1436
 6599TIP3   OH243991   3.012   4.003   9.428  0.0492  0.7700  0.2133
 6599TIP3    H143992   3.028   4.002   9.523  2.7357  0.1103 -0.1788
 6599TIP3    H243993   2.969   3.920   9.410  1.2167  0.0497  0.6391
 6600TIP3   OH243994   6.513   3.557   7.998 -0.1657  0.3837 -0.1888
 6600TIP3    H143995   6.433   3.508   7.980 -0.2639  0.4518  0.0486
 6600TIP3    H243996   6.541   3.592   7.913 -0.7468  0.9053 -0.1739
 6601TIP3   OH243997   6.024   0.025   2.284 -0.0026  0.0575  0.4355
 6601TIP3    H143998   5.964   0.089   2.323  0.3094 -0.4756  1.8180
 6601TIP3    H243999   5.967  -0.042   2.246 -0.3084  0.7006 -0.2777
 6602TIP3   OH244000   4.487   6.298   2.856  0.0465  0.1408  0.4379
 6602TIP3    H144001   4.439   6.250   2.924  0.5474 -0.1678  0.5795
 6602TIP3    H244002   4.556   6.343   2.903 -0.7662  1.4842  0.3834
 6603TIP3   OH244003   3.118   5.619   2.709  1.0383 -0.4551 -0.0268
 6603TIP3    H144004   3.200   5.570   2.708  1.7769  0.6037  2.1646
 6603TIP3    H244005   3.069   5.582   2.781  0.1354 -0.2020 -0.4989
 6604TIP3   OH244006   1.264   4.659   8.007  0.7760  0.0819 -0.4883
 6604TIP3    H144007   1.245   4.747   8.040  0.4643  0.0458 -0.5624
 6604TIP3    H244008   1.196   4.604   8.045  1.3562 -0.2511  0.0814
 6605TIP3   OH244009   0.630   4.578   1.754  0.1237  0.3897  0.2480
 6605TIP3    H144010   0.546   4.535   1.765  1.1351 -1.7741 -0.0978
 6605TIP3    H244011   0.682   4.550   1.829  0.9189  0.7673 -0.1457
 6606TIP3   OH244012   2.417   6.721   7.733  0.5960 -0.3531  0.0620
 6606TIP3    H144013   2.397   6.649   7.793  0.4998  0.4668  1.0543
 6606TIP3    H244014   2.346   6.719   7.669 -0.2663 -0.1972  0.9836
 6607TIP3   OH244015   0.558   0.334   7.720 -0.4415  0.0030 -0.2720
 6607TIP3    H144016   0.553   0.327   7.816 -0.0420  0.2896 -0.2300
 6607TIP3    H244017   0.586   0.424   7.704  0.1246 -0.2327 -0.6351
 6608TIP3   OH244018   2.965   0.319   8.885 -0.1818  0.4057  0.4208
 6608TIP3    H144019   3.024   0.390   8.912  0.2376  0.6116 -0.9439
 6608TIP3    H244020   2.891   0.363   8.843 -0.0382  0.0709 -0.2099
 6609TIP3   OH244021   3.189   5.082   2.270  0.0807 -0.4000 -0.2262
 6609TIP3    H144022   3.151   5.163   2.303  3.1624  1.3649 -0.5861
 6609TIP3    H244023   3.121   5.016   2.282 -3.7473  2.7048 -2.5096
 6610TIP3   OH244024   7.659   3.086   7.872  0.3621 -0.5879 -0.3004
 6610TIP3    H144025   7.730   3.062   7.813  0.2666  1.7470 -1.4844
 6610TIP3    H244026   7.697   3.080   7.960  1.1859 -1.9053 -0.7205
 6611TIP3   OH244027   3.286   0.996   0.452 -0.0297 -0.4093 -0.0791
 6611TIP3    H144028   3.200   0.959   0.433 -0.1089 -0.1608 -0.2109
 6611TIP3    H244029   3.283   1.014   0.546 -0.3293  0.1151 -0.1819
 6612TIP3   OH244030   0.131   7.288   1.956 -0.2508  0.6455  0.2531
 6612TIP3    H144031   0.056   7.343   1.934  0.1702  1.0801 -0.1013
 6612TIP3    H244032   0.121   7.211   1.899  0.8353  1.7625 -1.5372
 6613TIP3   OH244033   1.391   4.056   8.573  0.0803  0.3303  0.4516
 6613TIP3    H144034   1.436   3.985   8.527 -0.6039  0.2247 -0.0751
 6613TIP3    H244035   1.461   4.116   8.599  0.5244  0.1923 -0.3853
 6614TIP3   OH244036   5.324   0.456   0.368  0.6311 -0.3727  0.2412
 6614TIP3    H144037   5.277   0.539   0.360  1.3893 -0.0623 -1.4914
 6614TIP3    H244038   5.297   0.421   0.453  0.7479  1.9165  1.2993
 6615TIP3   OH244039   2.867   2.552   1.242 -0.1729 -0.1838  0.4167
 6615TIP3    H144040   2.794   2.552   1.303 -0.0840  0.5396  0.5363
 6615TIP3    H244041   2.837   2.499   1.168 -0.7844  0.0331  0.5075
 6616TIP3   OH244042   7.403   5.938   8.090 -0.2213  0.6014  0.3076
 6616TIP3    H144043   7.356   5.902   8.166 -1.2732  2.4403  0.5940
 6616TIP3    H244044   7.347   6.009   8.059  0.5485  0.3730 -1.7655
 6617TIP3   OH244045   4.643   6.925   2.830  0.0738  0.7183 -0.3145
 6617TIP3    H144046   4.563   6.975   2.844 -0.4019  0.1897 -1.0617
 6617TIP3    H244047   4.709   6.991   2.809 -0.2234  1.1363  0.0457
 6618TIP3   OH244048   2.695   4.107   9.616 -0.0044 -0.3667 -1.0207
 6618TIP3    H144049   2.682   4.195   9.582 -0.3993 -0.2865 -0.6705
 6618TIP3    H244050   2.785   4.106   9.648 -0.7420  0.6983  1.2469
 6619TIP3   OH244051   0.432   1.038   8.281 -0.7867  0.3809  0.1856
 6619TIP3    H144052   0.428   1.093   8.202 -0.5367  0.2128  0.0503
 6619TIP3    H244053   0.504   1.075   8.332  1.3881 -1.5142 -1.2500
 6620TIP3   OH244054   1.269   7.077   1.946  0.1561 -0.8749 -1.2229
 6620TIP3    H144055   1.299   6.988   1.964 -0.3772 -0.8982 -0.3812
 6620TIP3    H244056   1.349   7.127   1.927  0.8792 -0.7651  1.6300
 6621TIP3   OH244057   4.219   7.436   2.025  0.5082 -0.3842  0.4922
 6621TIP3    H144058   4.170   7.490   2.087 -0.5729  1.4912 -1.8478
 6621TIP3    H244059   4.156   7.373   1.992  0.1454  0.7490 -1.0601
 6622TIP3   OH244060   4.854   4.027   8.213  0.1731 -0.2196  0.2039
 6622TIP3    H144061   4.844   3.932   8.215 -1.5644 -0.0683  1.9288
 6622TIP3    H244062   4.919   4.046   8.280 -0.3269 -0.1405  0.6760
 6623TIP3   OH244063   7.331   1.704   0.604 -0.1552 -0.2201  0.4864
 6623TIP3    H144064   7.377   1.680   0.684  0.0538 -0.1399  0.3911
 6623TIP3    H244065   7.315   1.798   0.613 -0.2889 -0.2448  0.5123
 6624TIP3   OH244066   5.316   7.384   7.094  0.1813 -0.6860  1.1214
 6624TIP3    H144067   5.330   7.473   7.126  0.3582  1.1382 -3.3228
 6624TIP3    H244068   5.401   7.355   7.063 -0.6260 -0.4057 -1.6403
 6625TIP3   OH244069   5.445   2.382   1.258  0.0307 -0.5475 -0.6709
 6625TIP3    H144070   5.516   2.395   1.320  2.4563 -2.2222 -2.8514
 6625TIP3    H244071   5.376   2.339   1.309  0.8179  0.4761  1.3650
 6626TIP3   OH244072   6.360   0.852   9.082 -0.1399  0.0679  0.8954
 6626TIP3    H144073   6.430   0.916   9.067  1.7460 -1.8092  1.2150
 6626TIP3    H244074   6.331   0.828   8.994  0.7026 -0.2176  0.6812
 6627TIP3   OH244075   4.552   0.533   9.972 -0.2864  0.4422  0.7038
 6627TIP3    H144076   4.487   0.486  10.025  0.6413 -2.4005 -0.4899
 6627TIP3    H244077   4.628   0.475   9.972  0.5939  1.4959 -1.7326
 6628TIP3   OH244078   5.772   3.204   9.705  0.1452  0.4175  0.5679
 6628TIP3    H144079   5.761   3.288   9.660  0.9529  0.3049  0.1456
 6628TIP3    H244080   5.712   3.209   9.780 -1.9892  0.2090 -1.0406
 6629TIP3   OH244081   7.423   3.015   2.384  0.2000 -0.3775 -0.3285
 6629TIP3    H144082   7.441   2.923   2.369 -0.6548 -0.5815 -0.1705
 6629TIP3    H244083   7.426   3.025   2.480  0.0788 -0.2836 -0.3344
 6630TIP3   OH244084   0.761   2.546   8.021 -0.2152  0.3050 -0.7212
 6630TIP3    H144085   0.774   2.574   7.930 -1.2269  3.1789 -0.0657
 6630TIP3    H244086   0.719   2.460   8.013  0.0818  0.3043 -2.9627
 6631TIP3   OH244087   0.930   1.790   0.165  0.0141  0.7256 -0.1507
 6631TIP3    H144088   0.909   1.882   0.181 -2.5598 -0.1061  1.9960
 6631TIP3    H244089   0.941   1.784   0.070  3.5741  3.7464 -0.1877
 6632TIP3   OH244090   6.668   4.477   9.881 -0.4833 -0.3803  0.0141
 6632TIP3    H144091   6.731   4.450   9.947  1.7469  0.3479 -1.6867
 6632TIP3    H244092   6.629   4.395   9.851 -0.0852 -0.8922  0.8508
 6633TIP3   OH244093   2.784   1.683   1.096  0.5136 -0.1325 -0.3859
 6633TIP3    H144094   2.747   1.771   1.087 -0.7977 -0.7118 -0.8782
 6633TIP3    H244095   2.837   1.687   1.176 -1.6881  0.3818  1.1106
 6634TIP3   OH244096   0.250   0.121   9.345 -0.4378 -0.3329  0.3580
 6634TIP3    H144097   0.242   0.199   9.401 -1.6051 -0.9693  1.1360
 6634TIP3    H244098   0.188   0.059   9.384  0.2279 -1.5211 -0.4576
 6635TIP3   OH244099   6.087   1.625   0.239  0.2194 -0.2816  0.0692
 6635TIP3    H144100   5.997   1.649   0.219  1.0112  2.9927 -0.1249
 6635TIP3    H244101   6.080   1.539   0.281 -3.0366  0.1492  0.6841
 6636TIP3   OH244102   3.051   3.271   8.186 -0.0688  0.1663  0.8013
 6636TIP3    H144103   3.035   3.301   8.097  1.6124  0.9523  0.7225
 6636TIP3    H244104   2.997   3.193   8.195  0.7255 -0.7172 -1.3718
 6637TIP3   OH244105   0.069   0.449   1.853 -0.0546  0.8206  0.3151
 6637TIP3    H144106   0.159   0.443   1.820  0.3188  0.2674  1.3857
 6637TIP3    H244107   0.074   0.514   1.923 -0.7726  1.7493 -0.4627
 6638TIP3   OH244108   1.088   4.427   7.265 -0.6223  0.6571 -0.7112
 6638TIP3    H144109   1.066   4.505   7.316 -2.4072 -1.1969  1.5761
 6638TIP3    H244110   1.007   4.405   7.219 -1.1356 -1.4210  1.0252
 6639TIP3   OH244111   3.160   0.535   7.286 -0.5104 -0.3414 -0.3315
 6639TIP3    H144112   3.083   0.541   7.343 -0.6489 -1.2769 -0.4159
 6639TIP3    H244113   3.123   0.527   7.198 -0.2988  0.3810 -0.4950
 6640TIP3   OH244114   1.144   4.209   8.417 -0.0745  0.1229  0.4229
 6640TIP3    H144115   1.190   4.131   8.448 -0.1438 -0.1625 -0.1884
 6640TIP3    H244116   1.190   4.282   8.459  1.1154 -0.1295 -0.4031
 6641TIP3   OH244117   1.817   1.069   0.420 -0.2114 -0.2951 -0.2692
 6641TIP3    H144118   1.842   0.979   0.399  2.2565  0.1834  0.2502
 6641TIP3    H244119   1.901   1.114   0.435 -1.4421  1.5947  1.4534
 6642TIP3   OH244120   2.128   3.043   2.015  0.4332  0.5024  0.1884
 6642TIP3    H144121   2.036   3.071   2.014  0.4117  0.7517  2.6470
 6642TIP3    H244122   2.174   3.112   2.062  1.7491 -0.0155 -0.2898
 6643TIP3   OH244123   1.879   2.707   2.975 -0.0407 -0.5695  0.0183
 6643TIP3    H144124   1.874   2.626   3.025 -0.4221 -0.3988  0.2590
 6643TIP3    H244125   1.871   2.776   3.041 -1.0429 -0.3451 -0.3282
 6644TIP3   OH244126   3.061   6.405   8.074  0.2941  0.1807  0.4479
 6644TIP3    H144127   3.089   6.413   7.983  0.5819  1.5600  0.6421
 6644TIP3    H244128   2.979   6.356   8.069  0.3433  0.1727 -0.5504
 6645TIP3   OH244129   2.729   0.815   1.470 -0.6511 -0.3021 -0.3788
 6645TIP3    H144130   2.703   0.897   1.512  1.7648 -0.0576  0.8089
 6645TIP3    H244131   2.729   0.751   1.541  1.9903 -0.2278 -0.2159
 6646TIP3   OH244132   1.555   6.328   8.744  0.1490  0.0078  0.1608
 6646TIP3    H144133   1.502   6.306   8.820 -0.9651 -0.2276 -0.6524
 6646TIP3    H244134   1.624   6.262   8.743 -1.7834 -2.1302 -0.9083
 6647TIP3   OH244135   3.066   0.147   8.080 -0.0361  0.5991 -0.0611
 6647TIP3    H144136   3.148   0.187   8.051 -0.0995 -1.2827 -3.2580
 6647TIP3    H244137   3.093   0.071   8.132  0.2274  0.4233 -0.4535
 6648TIP3   OH244138   6.344   1.893   6.739 -0.5909 -0.1819 -0.0302
 6648TIP3    H144139   6.270   1.833   6.747 -1.0253  0.5833  2.5068
 6648TIP3    H244140   6.310   1.977   6.768  0.6321  0.7846 -1.2603
 6649TIP3   OH244141   5.961   7.378   9.703 -0.2949 -0.1277  0.5751
 6649TIP3    H144142   5.965   7.473   9.719 -1.2651  0.1811 -0.8029
 6649TIP3    H244143   5.948   7.371   9.609 -0.6201 -1.6355  0.7146
 6650TIP3   OH244144   1.853   5.707   2.558 -0.0252 -0.0896  0.4127
 6650TIP3    H144145   1.946   5.721   2.538 -0.1730 -0.8648 -0.9526
 6650TIP3    H244146   1.845   5.613   2.569 -0.4956  0.0663  1.4173
 6651TIP3   OH244147   0.743   1.732   1.607 -0.4374  0.2043 -0.3005
 6651TIP3    H144148   0.686   1.673   1.557 -0.5124  0.9450 -1.1180
 6651TIP3    H244149   0.794   1.674   1.663 -1.6619 -0.5134  0.1095
 6652TIP3   OH244150   2.713   3.363   9.138 -0.1537  0.0066 -0.7274
 6652TIP3    H144151   2.691   3.270   9.139  2.1015 -0.6168  1.2522
 6652TIP3    H244152   2.802   3.366   9.104  1.0608  0.9900  2.2487
 6653TIP3   OH244153   0.852   6.234   7.351 -0.5455 -0.3940  0.3249
 6653TIP3    H144154   0.840   6.168   7.419  1.7858 -1.0908  0.1671
 6653TIP3    H244155   0.918   6.196   7.293 -0.1636  1.4937 -0.5453
 6654TIP3   OH244156   1.937   5.424   1.358 -0.8418  0.8347 -0.1788
 6654TIP3    H144157   1.872   5.376   1.307  0.8885 -0.2048 -1.5275
 6654TIP3    H244158   1.951   5.505   1.309 -1.3850  1.2297  0.3149
 6655TIP3   OH244159   7.089   6.813   9.467  0.3189 -0.1486  0.2474
 6655TIP3    H144160   7.007   6.856   9.491 -0.4849 -1.4741 -0.0452
 6655TIP3    H244161   7.156   6.881   9.479 -0.8189  0.9841  0.4012
 6656TIP3   OH244162   4.358   2.506   0.462 -0.3612  0.5288  0.0577
 6656TIP3    H144163   4.272   2.505   0.422 -0.3346 -0.3489 -0.0034
 6656TIP3    H244164   4.353   2.441   0.532  0.5041 -0.1826 -0.5152
 6657TIP3   OH244165   0.634   7.326   1.386 -0.2213 -0.7136 -0.0730
 6657TIP3    H144166   0.573   7.308   1.457  0.9312  0.4052  1.2573
 6657TIP3    H244167   0.637   7.245   1.336 -1.7097 -1.2498  0.6335
 6658TIP3   OH244168   2.538   1.770   8.247 -0.3207  0.5382  0.0163
 6658TIP3    H144169   2.481   1.709   8.294  0.4430  0.0886  0.3666
 6658TIP3    H244170   2.490   1.790   8.167 -1.2558  0.6482  0.5788
 6659TIP3   OH244171   6.500   0.511   0.853 -0.0823 -0.8521  0.0447
 6659TIP3    H144172   6.572   0.467   0.807 -0.1154 -0.9490  0.0848
 6659TIP3    H244173   6.518   0.496   0.946 -0.4159 -1.2921  0.0387
 6660TIP3   OH244174   1.256   0.127   7.917  0.2919 -0.8509  0.5982
 6660TIP3    H144175   1.338   0.158   7.877 -1.1751  1.0472 -1.1616
 6660TIP3    H244176   1.249   0.177   7.998  0.3053 -0.0661  0.1338
 6661TIP3   OH244177   2.563   5.265   0.003  0.5814  0.1058  0.0091
 6661TIP3    H144178   2.596   5.350  -0.024  0.5031  0.0179 -0.3796
 6661TIP3    H244179   2.585   5.258   0.096 -3.4288  2.5202  1.3809
 6662TIP3   OH244180   0.775   7.422   9.127  0.3687  0.1909  0.0542
 6662TIP3    H144181   0.746   7.507   9.096  1.4726  0.0382 -1.5612
 6662TIP3    H244182   0.733   7.359   9.067  0.9642 -0.2588  0.0989
 6663TIP3   OH244183   1.720   2.875   0.106 -0.1472 -0.1701 -0.2671
 6663TIP3    H144184   1.627   2.890   0.092  0.0717  0.6912 -0.8402
 6663TIP3    H244185   1.758   2.962   0.118  0.8260 -0.3695 -1.6319
 6664TIP3   OH244186   0.561   1.516   9.282 -0.0358  0.5095 -0.4329
 6664TIP3    H144187   0.569   1.508   9.377 -2.3102  0.3649 -0.1998
 6664TIP3    H244188   0.622   1.587   9.260  2.7297 -1.3524  0.6614
 6665TIP3   OH244189   0.168   5.265   9.930  0.5514  0.4212 -0.0593
 6665TIP3    H144190   0.087   5.316   9.931  0.5315  0.5077  2.8435
 6665TIP3    H244191   0.184   5.246   9.837 -3.3891 -0.5714 -0.6973
 6666TIP3   OH244192   3.058   2.320   1.281  0.2775  0.2705  0.1798
 6666TIP3    H144193   3.003   2.256   1.236  1.0755  1.0803 -2.0802
 6666TIP3    H244194   3.025   2.405   1.252  0.1808  0.8896  1.9715
 6667TIP3   OH244195   6.501   2.077   1.215  0.3651  0.0506 -0.8506
 6667TIP3    H144196   6.504   2.001   1.272  0.1074  0.0064 -0.8958
 6667TIP3    H244197   6.412   2.112   1.225  0.4881  0.3581 -0.8134
 6668TIP3   OH244198   0.489   3.924   9.600  0.0082 -0.0127  0.1024
 6668TIP3    H144199   0.519   3.853   9.656 -1.6552 -1.1650 -0.4041
 6668TIP3    H244200   0.550   3.925   9.526 -0.2998 -1.3289 -0.1863
 6669TIP3   OH244201   4.393   1.879   0.722  0.0719 -0.1283  0.5769
 6669TIP3    H144202   4.477   1.918   0.698  0.5640 -1.4530  0.0711
 6669TIP3    H244203   4.389   1.887   0.818  0.2846  0.8682  0.5121
 6670TIP3   OH244204   4.432   0.347   8.217  0.3206 -0.0779  0.1535
 6670TIP3    H144205   4.482   0.272   8.185  0.6385  0.2180 -0.0491
 6670TIP3    H244206   4.357   0.309   8.262 -0.6521 -0.5029 -1.7491
 6671TIP3   OH244207   2.156   3.265   1.075 -0.2068 -0.0060 -0.0350
 6671TIP3    H144208   2.076   3.217   1.097 -0.7325  0.5786 -0.6598
 6671TIP3    H244209   2.159   3.336   1.139  0.2974 -0.5461  0.5582
 6672TIP3   OH244210   0.891   1.418   9.478 -0.2187  0.5435 -0.3578
 6672TIP3    H144211   0.940   1.380   9.404  0.0675 -0.5099  0.3533
 6672TIP3    H244212   0.806   1.375   9.474  0.0419 -0.0638  0.3365
 6673TIP3   OH244213   3.371   6.999   1.378  0.0678  0.0984 -0.3074
 6673TIP3    H144214   3.301   6.977   1.317  1.1050  1.2200 -1.9950
 6673TIP3    H244215   3.451   6.968   1.335  0.7757  0.3711  0.7715
 6674TIP3   OH244216   5.054   6.939   9.595  0.2870  0.3610  0.5711
 6674TIP3    H144217   5.114   6.926   9.669  0.2509 -0.3121  0.4804
 6674TIP3    H244218   5.110   6.937   9.518  0.0387 -1.3457  0.3979
 6675TIP3   OH244219   4.322   1.953   2.068 -0.1573  0.0798 -0.0587
 6675TIP3    H144220   4.402   1.993   2.102  0.9402 -1.7460 -0.3432
 6675TIP3    H244221   4.339   1.858   2.073 -1.6273 -0.3184 -1.6832
 6676TIP3   OH244222   3.337   6.435   1.416  0.4043 -0.3374 -0.3558
 6676TIP3    H144223   3.425   6.398   1.418  0.2272 -0.7634  1.5765
 6676TIP3    H244224   3.284   6.369   1.371  1.0112 -0.1725 -1.3392
 6677TIP3   OH244225   1.594   2.261   7.615 -0.3010 -0.1512  0.3996
 6677TIP3    H144226   1.533   2.319   7.660  0.9788  0.7787  0.9888
 6677TIP3    H244227   1.584   2.282   7.522 -1.4274 -0.5759  0.4164
 6678TIP3   OH244228   2.813   6.286   1.754 -0.1849 -0.0827  0.1484
 6678TIP3    H144229   2.821   6.192   1.767  2.0886  0.2035  1.2563
 6678TIP3    H244230   2.884   6.309   1.694 -0.0068  1.0806  0.7713
 6679TIP3   OH244231   0.601   6.290   8.829 -0.5729 -0.5040  0.4785
 6679TIP3    H144232   0.584   6.295   8.735 -1.8076  1.7856  0.7488
 6679TIP3    H244233   0.690   6.256   8.835 -1.4142 -3.4497 -1.3719
 6680TIP3   OH244234   2.223   0.643   8.568 -0.0599  0.0457  0.2676
 6680TIP3    H144235   2.298   0.589   8.542  0.7028  1.2159 -0.0650
 6680TIP3    H244236   2.147   0.585   8.559  0.9051 -1.5938  1.8829
 6681TIP3   OH244237   7.443   5.505   9.684  0.0280  0.0602 -0.0608
 6681TIP3    H144238   7.418   5.594   9.707 -0.1045  0.0347 -0.1018
 6681TIP3    H244239   7.458   5.461   9.768 -1.6161 -0.3691  0.0553
 6682TIP3   OH244240   0.673   6.491   3.293  0.4798 -0.3139  0.0837
 6682TIP3    H144241   0.600   6.501   3.355  0.2246  0.6042 -0.3419
 6682TIP3    H244242   0.748   6.527   3.339  0.6247 -1.0556  0.4386
 6683TIP3   OH244243   1.269   6.780   0.998 -0.4662 -0.0277 -0.1485
 6683TIP3    H144244   1.322   6.858   1.014 -0.4763 -0.3606  1.7048
 6683TIP3    H244245   1.179   6.808   1.016 -0.4130 -0.5800  1.0613
 6684TIP3   OH244246   6.360   7.368   8.291 -0.1537 -0.1016 -0.2507
 6684TIP3    H144247   6.421   7.375   8.218  2.0511  0.2735  1.5217
 6684TIP3    H244248   6.274   7.362   8.250  0.9204  0.8381 -2.8277
 6685TIP3   OH244249   1.912   0.652   9.413 -0.1475  0.0316  0.0029
 6685TIP3    H144250   1.948   0.689   9.493 -0.6889  1.9301 -0.5609
 6685TIP3    H244251   1.982   0.660   9.348 -0.7302  1.5183 -0.4910
 6686TIP3   OH244252   4.066   0.039   1.015  0.4405 -0.0140  0.2156
 6686TIP3    H144253   4.156   0.066   1.031  0.0306  1.9983 -0.6201
 6686TIP3    H244254   4.016   0.121   1.009 -1.1368 -0.9993 -1.1168
 6687TIP3   OH244255   6.987   1.407   8.521  0.0650 -0.2216 -0.6058
 6687TIP3    H144256   6.995   1.494   8.561  1.4823 -0.7704  0.4031
 6687TIP3    H244257   6.952   1.423   8.434 -0.4267  1.2873 -0.1546
 6688TIP3   OH244258   7.024   2.671   7.747 -0.0414 -0.2285  0.2756
 6688TIP3    H144259   7.041   2.587   7.788  1.4618  0.1694  0.5511
 6688TIP3    H244260   7.060   2.735   7.808 -0.9446  0.5992 -0.0425
 6689TIP3   OH244261   5.469   0.330   9.125 -0.0138  0.0248  0.2924
 6689TIP3    H144262   5.428   0.263   9.179 -0.5732  0.7640  0.7920
 6689TIP3    H244263   5.563   0.311   9.131 -0.2003 -1.0769 -0.0731
 6690TIP3   OH244264   0.174   6.415   7.107  0.5533  0.1278  0.1936
 6690TIP3    H144265   0.138   6.390   7.193  0.8311 -0.4591  0.1422
 6690TIP3    H244266   0.236   6.485   7.127  0.7323 -0.1097  0.4973
 6691TIP3   OH244267   5.645   1.364   9.115 -0.0866  0.3382 -0.0755
 6691TIP3    H144268   5.610   1.316   9.040  0.0282  0.8570 -0.4704
 6691TIP3    H244269   5.724   1.316   9.140  0.3970  0.6901 -0.8884
 6692TIP3   OH244270   0.044   1.105   7.178 -0.3842  0.0542 -0.5416
 6692TIP3    H144271   0.007   1.191   7.162 -0.3395 -0.0352 -1.1457
 6692TIP3    H244272   0.100   1.088   7.103  0.2260 -0.1722 -0.0464
 6693TIP3   OH244273   0.655   4.061   0.078  0.3348  0.2800  0.0095
 6693TIP3    H144274   0.686   3.979   0.116 -0.8165 -0.1479  0.0465
 6693TIP3    H244275   0.716   4.127   0.112  1.8828 -0.6572 -0.8207
 6694TIP3   OH244276   0.954   5.625   2.210  0.2003  0.5458 -0.1324
 6694TIP3    H144277   1.034   5.580   2.184 -0.4319 -0.0950 -1.0158
 6694TIP3    H244278   0.941   5.600   2.301  0.0982 -0.7250 -0.4793
 6695TIP3   OH244279   0.547   1.687   8.723 -0.3449 -0.1738 -0.0077
 6695TIP3    H144280   0.569   1.667   8.814  0.5781 -0.6568 -0.3282
 6695TIP3    H244281   0.512   1.776   8.726 -1.4388 -0.6040  0.9724
 6696TIP3   OH244282   7.216   1.120   1.166 -0.3334 -0.2192 -0.2708
 6696TIP3    H144283   7.272   1.174   1.221  1.0121  0.7020 -2.4158
 6696TIP3    H244284   7.239   1.030   1.188  0.4110  0.1298  0.4137
 6697TIP3   OH244285   7.220   3.578   9.843 -0.2106  0.0825  0.5138
 6697TIP3    H144286   7.207   3.672   9.857 -1.2097 -0.0612  0.6400
 6697TIP3    H244287   7.133   3.545   9.819 -0.0508 -0.9451  1.2652
 6698TIP3   OH244288   7.354   2.684   8.303 -0.0929  0.2611  0.4425
 6698TIP3    H144289   7.313   2.608   8.264  0.6760  0.8366 -1.6141
 6698TIP3    H244290   7.283   2.747   8.316 -0.6622 -0.6128  1.7931
 6699TIP3   OH244291   6.587   1.155   9.608  0.0179  0.6698 -0.4541
 6699TIP3    H144292   6.653   1.182   9.672 -0.4244 -0.2440  0.4192
 6699TIP3    H244293   6.637   1.137   9.528  0.6836  1.0594 -0.1328
 6700TIP3   OH244294   1.095   2.035   0.277 -0.5315 -0.1054  0.4315
 6700TIP3    H144295   1.058   2.041   0.189 -2.3343  2.1329  1.2359
 6700TIP3    H244296   1.096   2.125   0.308  3.5418 -0.3063  1.4243
 6701TIP3   OH244297   0.188   4.142   7.775  0.2091  0.6423 -0.6814
 6701TIP3    H144298   0.107   4.112   7.816 -0.0463  0.1846 -1.4982
 6701TIP3    H244299   0.250   4.153   7.848 -0.5807  0.9993 -0.0529
 6702TIP3   OH244300   1.277   3.435   1.043  0.4376  0.1922  0.1876
 6702TIP3    H144301   1.259   3.523   1.010 -0.8998  0.2799  1.0676
 6702TIP3    H244302   1.193   3.404   1.076  1.1210 -0.9869  0.9026
 6703TIP3   OH244303   7.409   3.098   9.072 -0.7774 -0.2423 -0.0821
 6703TIP3    H144304   7.346   3.163   9.041 -1.3494  0.3254  2.0715
 6703TIP3    H244305   7.417   3.116   9.166  0.7003 -1.9278  0.1690
 6704TIP3   OH244306   1.042   0.898   0.709  0.2597  0.4857 -0.0288
 6704TIP3    H144307   1.011   0.830   0.650  0.0537  0.5814 -0.0314
 6704TIP3    H244308   1.076   0.849   0.785 -0.6448  0.4013  0.3345
 6705TIP3   OH244309   5.716   6.821   1.855 -0.2019 -0.2535 -0.3905
 6705TIP3    H144310   5.692   6.912   1.839  1.3787  0.4047  0.7122
 6705TIP3    H244311   5.693   6.806   1.946  0.3062 -0.6852 -0.3276
 6706TIP3   OH244312   0.117   0.346   2.181  0.6245  0.0149  0.6668
 6706TIP3    H144313   0.204   0.385   2.174  0.5174  0.1991  0.3357
 6706TIP3    H244314   0.111   0.287   2.106 -0.6932  2.2963 -1.1709
 6707TIP3   OH244315   3.444   1.907   8.482  0.2724 -0.0997  0.0785
 6707TIP3    H144316   3.510   1.912   8.551 -0.1169 -0.4790  0.4811
 6707TIP3    H244317   3.409   1.819   8.488  1.9608 -1.0149 -2.2355
 6708TIP3   OH244318   2.331   6.942   7.015 -0.3957 -0.1248 -0.5556
 6708TIP3    H144319   2.271   6.996   7.067 -2.1271 -0.2863 -2.2730
 6708TIP3    H244320   2.355   6.997   6.941  1.4284 -0.1753 -0.0451
 6709TIP3   OH244321   0.771   4.917   9.363  0.1090 -0.3457  0.3844
 6709TIP3    H144322   0.755   4.847   9.425 -0.5002 -1.9290 -1.4795
 6709TIP3    H244323   0.819   4.876   9.291  0.7614  1.4114 -0.2625
 6710TIP3   OH244324   6.029   3.381   8.002 -0.0390  0.4211  0.3523
 6710TIP3    H144325   6.075   3.403   8.083 -2.8314  1.3175  1.8426
 6710TIP3    H244326   5.952   3.438   8.002 -0.7681 -0.4045 -2.3657
 6711TIP3   OH244327   6.699   4.381   7.756  0.3783  0.2851  1.0353
 6711TIP3    H144328   6.685   4.380   7.851  0.4342  1.2076  1.0679
 6711TIP3    H244329   6.645   4.310   7.722 -2.3913  2.0689  1.4119
 6712TIP3   OH244330   0.361   3.475   2.340 -0.2069  0.0549  0.3793
 6712TIP3    H144331   0.408   3.434   2.412  1.8234  1.0799 -0.2915
 6712TIP3    H244332   0.384   3.422   2.263 -0.2601  0.4840  0.0640
 6713TIP3   OH244333   5.223   6.884   0.934 -0.6753 -1.0180  0.5335
 6713TIP3    H144334   5.140   6.901   0.888  0.4274  1.2579 -0.8199
 6713TIP3    H244335   5.262   6.811   0.887 -1.4756 -1.4691  0.5617
 6714TIP3   OH244336   7.113   5.355   0.741  0.1353  0.1145 -0.1395
 6714TIP3    H144337   7.087   5.381   0.652  0.6078  0.2526 -0.2389
 6714TIP3    H244338   7.142   5.436   0.782 -1.9807  0.4498  0.8370
 6715TIP3   OH244339   5.122   5.446   9.954  0.2604  0.0406 -0.6191
 6715TIP3    H144340   5.051   5.420   9.895  0.1563  0.9862 -0.9307
 6715TIP3    H244341   5.082   5.445  10.041  0.5496 -1.8627 -0.4601
 6716TIP3   OH244342   3.208   1.634   3.378 -0.1466 -0.0353 -1.0278
 6716TIP3    H144343   3.166   1.639   3.292 -0.5574 -1.3457 -0.9142
 6716TIP3    H244344   3.140   1.604   3.437  0.2061  0.5970 -0.2790
 6717TIP3   OH244345   6.532   0.145   9.322 -0.0433  0.2402 -0.4992
 6717TIP3    H144346   6.449   0.184   9.351  0.8749  2.0989 -0.2478
 6717TIP3    H244347   6.508   0.093   9.245 -1.8113 -1.2646  0.9642
 6718TIP3   OH244348   0.210   3.620   9.295 -0.1124  0.1763 -0.3894
 6718TIP3    H144349   0.127   3.618   9.343  1.6196 -2.6936  3.0113
 6718TIP3    H244350   0.186   3.600   9.205 -3.1541  0.4546  0.2243
 6719TIP3   OH244351   6.519   2.682   1.521 -0.4847 -0.4521  0.5600
 6719TIP3    H144352   6.605   2.643   1.509 -0.3137 -0.6211  2.1672
 6719TIP3    H244353   6.530   2.746   1.591 -1.4520  0.2419  0.1047
 6720TIP3   OH244354   0.656   7.139   1.168 -0.1835  0.4787  0.4427
 6720TIP3    H144355   0.690   7.227   1.157 -1.4680  0.8435 -0.9902
 6720TIP3    H244356   0.615   7.118   1.084  1.2353 -2.0121  0.2509
 6721TIP3   OH244357   5.824   2.628   7.481  0.1184  0.1529 -0.0581
 6721TIP3    H144358   5.913   2.600   7.502 -0.0146  0.5725  1.1839
 6721TIP3    H244359   5.814   2.610   7.388  1.1284 -0.9044  0.0182
 6722TIP3   OH244360   6.936   5.826   8.506 -0.2213  0.1771  0.3765
 6722TIP3    H144361   6.904   5.881   8.578  0.0452  0.1633  0.5044
 6722TIP3    H244362   6.992   5.761   8.548 -0.3150 -0.0238  0.1923
 6723TIP3   OH244363   0.550   2.929   7.424  0.8888  0.0831  0.2887
 6723TIP3    H144364   0.490   2.913   7.351  1.9036 -2.1278 -0.1360
 6723TIP3    H244365   0.571   3.022   7.418 -2.3408  0.9590  0.3890
 6724TIP3   OH244366   5.015   6.814   8.330  0.4516 -0.3490 -0.0481
 6724TIP3    H144367   4.972   6.746   8.382 -3.7618  0.1264 -2.4653
 6724TIP3    H244368   5.017   6.778   8.241  1.8650  1.1927 -0.6884
 6725TIP3   OH244369   7.284   2.235   0.020  0.1680 -0.0190  0.3763
 6725TIP3    H144370   7.350   2.283  -0.031  2.4658 -2.0725  1.2570
 6725TIP3    H244371   7.294   2.267   0.109 -0.3596 -0.0284  0.4424
 6726TIP3   OH244372   2.989   2.640   7.790 -0.0049 -0.0195 -0.0684
 6726TIP3    H144373   3.014   2.603   7.874  0.2283  2.0291  0.8174
 6726TIP3    H244374   3.046   2.596   7.727  0.8994 -0.4967  1.0500
 6727TIP3   OH244375   5.383   0.948   7.333  1.2076  0.0020 -0.3300
 6727TIP3    H144376   5.412   1.032   7.297  1.5762  0.1646  0.3218
 6727TIP3    H244377   5.300   0.968   7.376  0.2300 -0.4106 -1.9763
 6728TIP3   OH244378   2.966   2.079   1.482 -0.4260  0.1131 -0.1446
 6728TIP3    H144379   2.871   2.076   1.478 -0.5072  1.1230  0.5247
 6728TIP3    H244380   2.991   2.145   1.418 -0.3643  1.4823  1.2100
 6729TIP3   OH244381   4.299   3.006   1.288 -0.1772  0.1821  0.0597
 6729TIP3    H144382   4.334   3.095   1.294 -0.4905  0.3305 -0.2852
 6729TIP3    H244383   4.221   3.007   1.344  0.8915 -0.4259  1.6412
 6730TIP3   OH244384   0.453   5.195   7.834 -0.0410 -0.4610 -0.4550
 6730TIP3    H144385   0.490   5.138   7.767  1.2616  1.0927 -1.1355
 6730TIP3    H244386   0.480   5.155   7.917 -0.2812 -1.5280 -0.8760
 6731TIP3   OH244387   4.208   1.223   2.244  0.6501 -0.3144  0.2719
 6731TIP3    H144388   4.116   1.237   2.265  1.0291 -0.9717  2.6422
 6731TIP3    H244389   4.227   1.286   2.174 -1.0314  1.4310  1.3073
 6732TIP3   OH244390   0.954   1.717   7.997  0.7136  0.0264 -0.7323
 6732TIP3    H144391   0.889   1.784   8.018  1.8686  0.8091  0.5535
 6732TIP3    H244392   0.914   1.665   7.927 -1.9489 -0.5208  1.0346
 6733TIP3   OH244393   3.969   3.354   7.745 -0.3723  0.3786  0.2629
 6733TIP3    H144394   4.014   3.315   7.820 -1.2118 -0.3828  0.3937
 6733TIP3    H244395   3.991   3.297   7.672 -0.2083  0.6529  0.1001
 6734TIP3   OH244396   2.751   7.579   2.507  0.2351 -0.4940  0.2962
 6734TIP3    H144397   2.687   7.625   2.452  1.0871  0.0646 -0.2396
 6734TIP3    H244398   2.787   7.511   2.450  0.0754 -0.8556  0.6217
 6735TIP3   OH244399   7.338   4.715   9.427 -0.5279 -0.1814 -0.3182
 6735TIP3    H144400   7.291   4.653   9.483 -1.1187 -0.6514 -1.3012
 6735TIP3    H244401   7.335   4.798   9.475 -1.0784 -0.5599  0.3182
 6736TIP3   OH244402   6.697   6.048   1.366 -0.4878  0.1173 -0.3798
 6736TIP3    H144403   6.739   6.025   1.283 -1.8215 -0.3694 -0.9307
 6736TIP3    H244404   6.722   5.978   1.426 -0.2215  0.0284 -0.5934
 6737TIP3   OH244405   7.473   4.380   8.018  0.5573  0.2118  0.1195
 6737TIP3    H144406   7.502   4.325   8.090  2.0701  2.1153  1.0639
 6737TIP3    H244407   7.426   4.453   8.059  1.3038  1.2478 -0.7920
 6738TIP3   OH244408   0.468   3.297   8.437 -0.6135  0.0849  0.5917
 6738TIP3    H144409   0.510   3.273   8.520  0.6101  3.7127  1.2224
 6738TIP3    H244410   0.416   3.374   8.458  0.8305  1.9778 -2.1984
 6739TIP3   OH244411   1.572   5.687   9.219  0.0326 -0.4239 -0.9794
 6739TIP3    H144412   1.637   5.710   9.152  0.9018  0.6407  0.1860
 6739TIP3    H244413   1.617   5.701   9.302 -1.5710 -0.0149 -0.1362
 6740TIP3   OH244414   2.585   4.740   0.212 -0.0351 -0.2199 -0.0185
 6740TIP3    H144415   2.588   4.672   0.279 -0.6301 -1.1644 -0.9313
 6740TIP3    H244416   2.596   4.694   0.129 -2.1026  0.5418 -0.7810
 6741TIP3   OH244417   2.859   0.888   2.524  0.5658  0.4910 -0.1399
 6741TIP3    H144418   2.797   0.815   2.526  0.7988  0.2876 -0.1660
 6741TIP3    H244419   2.856   0.924   2.613  2.2156 -1.0852  0.6388
 6742TIP3   OH244420   3.417   2.869   7.975 -0.0009  0.7549  1.3106
 6742TIP3    H144421   3.351   2.890   8.041  0.8414  1.0114  2.1064
 6742TIP3    H244422   3.483   2.819   8.023 -0.3137 -0.7877  0.1997
 6743TIP3   OH244423   2.205   1.049   7.953 -0.3797  0.1093  0.0964
 6743TIP3    H144424   2.187   1.019   8.042 -0.2440  0.1264  0.1291
 6743TIP3    H244425   2.249   1.133   7.964 -1.4993  0.7406 -0.0063
 6744TIP3   OH244426   7.305   5.812   9.063 -0.5604  0.0411  0.3233
 6744TIP3    H144427   7.378   5.842   9.117 -0.7933  1.8071 -0.2616
 6744TIP3    H244428   7.290   5.721   9.089  2.3731 -0.6573 -0.1335
 6745TIP3   OH244429   1.910   5.292   7.492 -0.4890 -0.5199 -0.3756
 6745TIP3    H144430   1.840   5.337   7.538  0.1922  0.8406 -0.6220
 6745TIP3    H244431   1.953   5.239   7.560 -1.4828 -1.0624 -0.1477
 6746TIP3   OH244432   4.997   3.066   9.436 -0.3192  0.1452  0.6693
 6746TIP3    H144433   5.027   3.015   9.511  0.8603  0.6468  0.5633
 6746TIP3    H244434   5.073   3.069   9.377 -0.8226  0.8224  0.0352
 6747TIP3   OH244435   7.210   6.425   8.171 -0.3169 -0.4260 -0.3887
 6747TIP3    H144436   7.127   6.469   8.154 -0.2638  0.3475  1.1380
 6747TIP3    H244437   7.260   6.436   8.091 -1.2246  0.1753 -0.8952
 6748TIP3   OH244438   6.988   5.751   9.302  0.4079 -0.4982  1.0414
 6748TIP3    H144439   6.956   5.668   9.336  1.1587 -0.8600  0.8729
 6748TIP3    H244440   7.069   5.767   9.351  1.2508 -0.7883 -0.2279
 6749TIP3   OH244441   3.032   1.942   7.805 -0.2967 -0.2877  0.4260
 6749TIP3    H144442   2.963   1.892   7.848 -0.8651  0.3724  0.3188
 6749TIP3    H244443   2.989   2.024   7.779 -0.1726 -0.9331 -2.0208
 6750TIP3   OH244444   4.497   7.404   1.091 -0.1098 -0.6509  0.6021
 6750TIP3    H144445   4.488   7.486   1.141 -0.0116 -0.8022  0.8724
 6750TIP3    H244446   4.432   7.345   1.130  0.2070 -0.8840  0.7898
 6751TIP3   OH244447   5.020   2.090   7.817 -0.1613  0.3391 -0.7221
 6751TIP3    H144448   4.978   2.099   7.903  0.6229  2.2979 -0.4673
 6751TIP3    H244449   4.949   2.095   7.754 -0.4793  3.3072 -0.2889
 6752TIP3   OH244450   5.944   6.519   8.485  0.5383 -0.2195  0.6690
 6752TIP3    H144451   6.013   6.534   8.421  0.6238 -0.0776  0.7928
 6752TIP3    H244452   5.967   6.575   8.559 -0.2040  0.5254  0.3448
 6753TIP3   OH244453   1.401   5.711   2.285  0.1715  0.6064  0.2633
 6753TIP3    H144454   1.451   5.633   2.307 -2.3099 -1.3601 -0.6693
 6753TIP3    H244455   1.364   5.741   2.368 -0.9928 -0.8098  0.2856
 6754TIP3   OH244456   6.844   5.576   8.936  0.0751 -0.2109  0.3553
 6754TIP3    H144457   6.904   5.651   8.944  0.5119 -0.4193 -0.8183
 6754TIP3    H244458   6.869   5.534   8.854 -0.6691 -1.2133  0.6255
 6755TIP3   OH244459   6.401   5.637   9.933  0.3118 -0.5141 -0.5309
 6755TIP3    H144460   6.401   5.609  10.025  0.9095  0.8338 -0.0972
 6755TIP3    H244461   6.458   5.575   9.889 -1.0926 -2.0369 -0.2927
 6756TIP3   OH244462   2.324   7.200   8.278 -0.1085  0.1629  0.2521
 6756TIP3    H144463   2.268   7.169   8.206  1.1181  2.6466 -1.9289
 6756TIP3    H244464   2.400   7.142   8.275 -1.4577 -1.8371  1.8196
 6757TIP3   OH244465   1.517   5.786   7.222 -0.2377  0.1196 -0.0878
 6757TIP3    H144466   1.439   5.823   7.263  0.0803  1.6356 -0.7688
 6757TIP3    H244467   1.488   5.760   7.135 -0.3738 -0.9528  0.2660
 6758TIP3   OH244468   2.222   4.758   1.598 -0.1213 -0.2523 -0.6376
 6758TIP3    H144469   2.291   4.705   1.638  2.1794  3.5517  0.9784
 6758TIP3    H244470   2.155   4.765   1.666 -0.3797 -0.9353 -0.8147
 6759TIP3   OH244471   1.388   6.536   9.189  0.3350  0.5353  0.4581
 6759TIP3    H144472   1.415   6.500   9.274  0.1930  4.2216  2.2572
 6759TIP3    H244473   1.301   6.499   9.175  1.6868 -2.9104 -0.0014
 6760TIP3   OH244474   0.334   2.718   2.966  0.2539 -0.3729  0.5543
 6760TIP3    H144475   0.238   2.709   2.966  0.2290 -1.4550 -2.6089
 6760TIP3    H244476   0.365   2.643   3.015 -0.5431 -1.3704 -0.3935
 6761TIP3   OH244477   4.940   7.500   8.327  0.2913 -0.1812 -0.3883
 6761TIP3    H144478   4.974   7.585   8.301  0.5182 -0.4098 -0.8426
 6761TIP3    H244479   4.949   7.499   8.423  2.0773 -0.4360 -0.5246
 6762TIP3   OH244480   0.036   3.869   8.577  0.4061 -1.0688  0.2093
 6762TIP3    H144481   0.006   3.780   8.592 -2.3909 -0.1312  0.8776
 6762TIP3    H244482  -0.040   3.923   8.596  2.1399  1.5194  0.3316
 6763TIP3   OH244483   6.638   1.029   9.954 -0.3407  0.1896 -0.2740
 6763TIP3    H144484   6.656   0.941   9.987 -0.0487  0.8962  1.5544
 6763TIP3    H244485   6.558   1.019   9.903 -1.7986 -0.7279  2.0188
 6764TIP3   OH244486   4.636   0.708   8.232 -0.0848 -0.4278  0.5505
 6764TIP3    H144487   4.551   0.737   8.265  1.0807  2.2003  1.4177
 6764TIP3    H244488   4.692   0.704   8.309  0.6449 -2.0944 -0.0242
 6765TIP3   OH244489   7.175   0.690   8.757 -0.0461  0.1219  1.2624
 6765TIP3    H144490   7.253   0.696   8.811  1.2514  2.0086 -0.6546
 6765TIP3    H244491   7.199   0.731   8.674 -1.8405 -2.7873 -0.9244
 6766TIP3   OH244492   6.967   5.570   8.083  0.1716 -0.1389  0.0046
 6766TIP3    H144493   7.048   5.617   8.066  0.7018 -0.6326  1.0628
 6766TIP3    H244494   6.988   5.478   8.064 -0.6566 -0.0739 -1.3970
 6767TIP3   OH244495   1.761   4.238   0.009  0.4627 -0.0074  0.0792
 6767TIP3    H144496   1.774   4.332   0.003  0.5802 -0.0740 -0.7122
 6767TIP3    H244497   1.702   4.216  -0.062 -0.0454 -0.4511  0.6279
 6768TIP3   OH244498   5.739   3.242   7.957  0.0222 -0.4854  0.8003
 6768TIP3    H144499   5.813   3.201   7.912  0.8137 -0.5627  2.1175
 6768TIP3    H244500   5.779   3.297   8.024 -1.0666  1.2104  0.1337
 6769TIP3   OH244501   2.383   7.495   2.424  0.4112 -0.0321 -0.1042
 6769TIP3    H144502   2.370   7.525   2.335  1.2671 -0.0024 -0.2285
 6769TIP3    H244503   2.397   7.401   2.416  1.4343  0.1111 -0.1102
 6770TIP3   OH244504   0.060   5.021   9.354 -0.4739  0.2543  0.1531
 6770TIP3    H144505   0.076   5.043   9.263  0.5657  0.1180  0.2894
 6770TIP3    H244506   0.116   4.945   9.371 -0.4031  0.4743  0.9828
 6771TIP3   OH244507   2.423   5.829   8.688 -0.5411  0.1860  0.0007
 6771TIP3    H144508   2.478   5.786   8.622 -0.3903  0.5541 -0.1138
 6771TIP3    H244509   2.390   5.757   8.742  0.8946  0.0300  0.7261
 6772TIP3   OH244510   0.354   6.954   0.473  0.2050  0.5039  0.1972
 6772TIP3    H144511   0.271   6.943   0.518  1.5162  1.0846  2.9390
 6772TIP3    H244512   0.411   6.999   0.536  2.5586  0.2743 -1.6028
 6773TIP3   OH244513   4.642   3.489   8.087  0.0722  0.2620 -0.2556
 6773TIP3    H144514   4.694   3.520   8.013  1.0168  1.4576  0.8703
 6773TIP3    H244515   4.563   3.543   8.086  1.3136  2.2229  1.1735
 6774TIP3   OH244516   0.060   5.460   1.721  0.2129 -0.2698  0.0884
 6774TIP3    H144517   0.109   5.397   1.668 -0.9345 -2.1643  1.1487
 6774TIP3    H244518   0.089   5.443   1.811  0.5626  1.4059  0.3195
 6775TIP3   OH244519   6.736   0.759   1.528  0.1163  0.5410 -0.8362
 6775TIP3    H144520   6.783   0.694   1.580 -1.3607  0.1349  0.0733
 6775TIP3    H244521   6.647   0.723   1.519 -0.1995  1.5297 -1.9936
 6776TIP3   OH244522   0.922   2.707   2.141  0.6514 -0.4183 -0.1212
 6776TIP3    H144523   0.940   2.613   2.132 -1.3817 -1.2144  2.7195
 6776TIP3    H244524   1.008   2.747   2.152  1.4522 -2.1771  0.2883
 6777TIP3   OH244525   0.085   6.242   7.924 -0.9830 -0.2444  0.0476
 6777TIP3    H144526   0.084   6.206   7.835 -1.2908 -0.8174  0.2785
 6777TIP3    H244527   0.170   6.285   7.931 -0.7706 -0.5831 -0.3752
 6778TIP3   OH244528   6.553   1.054   2.548  0.0607 -0.4976  0.0392
 6778TIP3    H144529   6.487   1.119   2.570 -0.2334 -0.1787 -1.6771
 6778TIP3    H244530   6.504   0.979   2.516  0.4699 -0.7409 -0.0247
 6779TIP3   OH244531   2.510   4.506   1.229 -0.0742  0.2825 -0.2901
 6779TIP3    H144532   2.430   4.546   1.196 -0.9354  0.0769  1.4135
 6779TIP3    H244533   2.567   4.580   1.251 -0.1352  0.4544 -0.7138
 6780TIP3   OH244534   4.955   0.093   7.397  0.2338  0.0427 -0.6397
 6780TIP3    H144535   4.899   0.031   7.442 -0.4176  0.9568 -0.1683
 6780TIP3    H244536   5.006   0.039   7.336  2.4573 -1.5674  2.3160
 6781TIP3   OH244537   2.089   1.779   1.240  0.3848  0.0302  0.0028
 6781TIP3    H144538   2.107   1.871   1.222 -0.1568  0.7784  2.8827
 6781TIP3    H244539   1.994   1.772   1.239  0.4090 -0.3793  0.3529
 6782TIP3   OH244540   2.520   6.087   1.060 -0.3437  0.0110  0.5796
 6782TIP3    H144541   2.493   6.139   0.985 -0.6878  0.8071  1.2479
 6782TIP3    H244542   2.539   6.151   1.128 -2.1903 -0.7599  1.9001
 6783TIP3   OH244543   2.458   5.336   7.800 -0.1727  0.3605  0.6298
 6783TIP3    H144544   2.366   5.343   7.826 -0.4476 -0.2814 -0.1294
 6783TIP3    H244545   2.488   5.426   7.794 -0.9854  0.6068  0.1115
 6784TIP3   OH244546   4.744   2.684   9.377  0.1727 -0.1331  0.0149
 6784TIP3    H144547   4.768   2.707   9.466 -2.7369  0.9181  0.6571
 6784TIP3    H244548   4.697   2.601   9.385 -1.4197  0.6998 -0.2481
 6785TIP3   OH244549   2.919   5.179   9.097  0.2424  0.0631 -0.1068
 6785TIP3    H144550   2.930   5.274   9.094 -0.0415  0.0838 -0.6889
 6785TIP3    H244551   2.824   5.166   9.092  0.1820 -0.2147  1.3070
 6786TIP3   OH244552   2.126   3.536   8.247 -0.0598 -0.1214  0.5089
 6786TIP3    H144553   2.034   3.510   8.246  0.1963 -1.0618  0.6411
 6786TIP3    H244554   2.174   3.455   8.229  0.7398  0.3525  0.4914
 6787TIP3   OH244555   3.366   1.376   1.288 -0.1765  0.3115 -0.7772
 6787TIP3    H144556   3.371   1.406   1.198 -1.5309 -0.5043 -1.1576
 6787TIP3    H244557   3.388   1.453   1.341  1.4108  0.5881 -1.7950
 6788TIP3   OH244558   7.551   2.107   0.228  0.8618  0.6270  0.3992
 6788TIP3    H144559   7.608   2.182   0.242  0.7257  0.9677 -0.7919
 6788TIP3    H244560   7.469   2.131   0.272  0.9468  1.0149  0.3523
 6789TIP3   OH244561   0.071   5.223   0.312  0.0900 -0.0481 -0.3576
 6789TIP3    H144562   0.006   5.192   0.249 -0.8804  0.9982  0.0850
 6789TIP3    H244563   0.053   5.175   0.392  1.1262 -1.1540 -0.7611
 6790TIP3   OH244564   7.062   7.121   9.682 -0.0833 -0.1396  0.2542
 6790TIP3    H144565   7.103   7.084   9.604 -0.4497 -0.4803  0.2190
 6790TIP3    H244566   6.992   7.178   9.648 -1.2638 -1.4878  0.3437
 6791TIP3   OH244567   6.208   1.323   3.197 -0.2342  0.3402  0.6220
 6791TIP3    H144568   6.185   1.269   3.121  0.5740  0.7987  0.0342
 6791TIP3    H244569   6.278   1.274   3.240  2.6515  2.1984 -1.5775
 6792TIP3   OH244570   7.110   0.921   6.849 -0.2268  0.6612  0.1405
 6792TIP3    H144571   7.112   0.845   6.908 -1.4961 -0.5314 -1.2758
 6792TIP3    H244572   7.175   0.900   6.782 -1.1059  0.4580 -0.6621
 6793TIP3   OH244573   5.739   3.471   9.869 -0.5582 -0.4198  0.1428
 6793TIP3    H144574   5.757   3.464   9.963  1.8072 -1.3134 -0.3060
 6793TIP3    H244575   5.722   3.564   9.855  0.6954  0.0131  1.2382
 6794TIP3   OH244576   4.995   4.207   7.502  0.1011  0.2038 -0.4084
 6794TIP3    H144577   4.968   4.152   7.575 -0.4309  1.9171  0.7392
 6794TIP3    H244578   5.081   4.173   7.477  0.4437 -0.2354  1.2287
 6795TIP3   OH244579   1.580   7.338   9.289  0.0255 -0.2386  0.2812
 6795TIP3    H144580   1.498   7.311   9.331 -0.6219  2.1262  0.6625
 6795TIP3    H244581   1.640   7.265   9.307 -1.5345 -1.3553  1.3137
 6796TIP3   OH244582   7.117   5.016   9.780  0.6050 -0.3313  0.4077
 6796TIP3    H144583   7.025   5.029   9.758  0.4789 -1.5020  0.1712
 6796TIP3    H244584   7.141   5.094   9.829 -0.7030 -0.3238  1.0745
 6797TIP3   OH244585   7.461   1.133   2.688  0.6268 -0.3963 -0.2465
 6797TIP3    H144586   7.373   1.095   2.686  0.0030  0.7383  2.0590
 6797TIP3    H244587   7.485   1.142   2.596 -0.3657 -3.5491 -0.9451
 6798TIP3   OH244588   4.782   7.642   9.755  0.2722 -0.1476  0.3173
 6798TIP3    H144589   4.863   7.605   9.788  1.0138  1.7266  0.7004
 6798TIP3    H244590   4.800   7.735   9.744 -1.8971  0.3693  0.6326
 6799TIP3   OH244591   1.327   1.895   0.779 -0.0503  0.1870 -0.9123
 6799TIP3    H144592   1.408   1.846   0.768  0.3364  0.6106 -0.0950
 6799TIP3    H244593   1.259   1.839   0.743  0.2079 -1.4721  0.9861
 6800TIP3   OH244594   7.193   3.890   0.476 -0.4214 -0.0618  0.3567
 6800TIP3    H144595   7.210   3.908   0.569 -1.1845 -1.6759  0.8321
 6800TIP3    H244596   7.235   3.963   0.430 -1.6624  1.8616  2.0456
 6801TIP3   OH244597   1.426   0.739   9.328 -0.1978  0.0413  0.1206
 6801TIP3    H144598   1.483   0.751   9.403  0.9681 -0.3631 -0.6695
 6801TIP3    H244599   1.365   0.670   9.355  0.9603 -0.9479  0.3044
 6802TIP3   OH244600   4.719   7.346   0.013  0.1042 -0.0307 -0.3324
 6802TIP3    H144601   4.671   7.300  -0.056 -2.4319  0.9142  0.6790
 6802TIP3    H244602   4.664   7.337   0.090  1.5950  1.1547  0.9382
 6803TIP3   OH244603   6.334   0.855   6.602 -0.3173  0.1640 -0.6983
 6803TIP3    H144604   6.374   0.938   6.577 -1.3437  0.3827 -1.6772
 6803TIP3    H244605   6.409   0.795   6.612  0.3505  0.9073 -1.1035
 6804TIP3   OH244606   5.117   7.088   8.860  0.0387 -0.4070 -0.0285
 6804TIP3    H144607   5.075   7.011   8.898 -0.9837  0.0103 -0.2740
 6804TIP3    H244608   5.180   7.053   8.797 -0.1694 -1.0362  0.1067
 6805TIP3   OH244609   3.120   6.588   8.623  0.2915 -0.2070  0.3672
 6805TIP3    H144610   3.104   6.494   8.632 -1.2898 -0.0042 -0.0298
 6805TIP3    H244611   3.213   6.598   8.639  0.3394 -1.7444  1.2302
 6806TIP3   OH244612   0.573   3.019   9.415 -0.3308  0.8922  0.5804
 6806TIP3    H144613   0.654   2.967   9.419 -0.4210  0.7943  1.2400
 6806TIP3    H244614   0.590   3.085   9.348 -0.3394 -0.1941 -0.5268
 6807TIP3   OH244615   0.214   0.102   8.420  0.4282  0.1216 -0.1023
 6807TIP3    H144616   0.148   0.056   8.370  2.1142 -0.9042 -1.4831
 6807TIP3    H244617   0.218   0.189   8.381  0.3267 -0.0146 -0.4135
 6808TIP3   OH244618   1.787   3.142   1.962 -0.3249 -0.7106 -0.8787
 6808TIP3    H144619   1.766   3.133   2.055 -1.7815  0.5982 -1.0264
 6808TIP3    H244620   1.746   3.067   1.921  0.0846 -1.1452 -0.5026
 6809TIP3   OH244621   3.294   0.463   0.935  0.0059 -0.0459 -0.1958
 6809TIP3    H144622   3.368   0.501   0.983 -1.4951  3.3098 -0.1866
 6809TIP3    H244623   3.281   0.377   0.975  2.8032 -0.0690  0.9201
 6810TIP3   OH244624   2.715   5.658   0.939 -0.0890  0.0143  0.6155
 6810TIP3    H144625   2.718   5.739   0.889  0.6954 -0.3046  0.1296
 6810TIP3    H244626   2.666   5.680   1.018 -1.7860  0.3972 -0.5111
 6811TIP3   OH244627   1.008   6.693   2.287  0.4181 -0.1888  0.0431
 6811TIP3    H144628   1.043   6.753   2.221 -0.6409 -0.5293 -0.8627
 6811TIP3    H244629   1.084   6.668   2.340  1.0804  1.0047 -0.3166
 6812TIP3   OH244630   2.553   2.365   8.338 -0.5683  0.2723  0.1354
 6812TIP3    H144631   2.540   2.389   8.430  0.0930 -1.6878  0.7857
 6812TIP3    H244632   2.640   2.325   8.336 -2.2715 -3.8885 -0.3618
 6813TIP3   OH244633   2.897   3.958   2.072  0.3192 -0.3668 -0.2987
 6813TIP3    H144634   2.930   4.034   2.023  0.1077  0.4659  0.8248
 6813TIP3    H244635   2.820   3.991   2.118  1.4251 -0.6622  1.8732
 6814TIP3   OH244636   6.364   6.986   9.190  0.6726 -0.5014  0.1155
 6814TIP3    H144637   6.450   6.961   9.156  0.4396 -0.9514 -0.1575
 6814TIP3    H244638   6.374   7.078   9.213 -0.1472  1.1070 -4.7695
 6815TIP3   OH244639   7.559   3.254   1.689  0.1369  0.6281  0.2888
 6815TIP3    H144640   7.489   3.273   1.751 -1.2025 -0.5767 -0.8046
 6815TIP3    H244641   7.553   3.324   1.624 -2.6532 -1.4413 -1.9193
 6816TIP3   OH244642   2.267   0.368   0.718 -0.1854 -0.2144 -0.1123
 6816TIP3    H144643   2.286   0.280   0.687  0.8146  0.4790 -1.5929
 6816TIP3    H244644   2.299   0.369   0.808  2.2532 -0.6409 -0.8930
 6817TIP3   OH244645   3.035   6.381   1.624  0.0218 -0.1156  0.1416
 6817TIP3    H144646   3.044   6.304   1.567 -0.6303  0.3541 -0.6051
 6817TIP3    H244647   3.091   6.447   1.583 -0.0211  0.0526  0.3563
 6818TIP3   OH244648   0.068   0.201   0.074 -0.3215 -0.0654 -0.6723
 6818TIP3    H144649   0.054   0.113   0.109 -0.0530  0.1283 -0.0635
 6818TIP3    H244650   0.032   0.259   0.141  2.2689  0.4064  0.4398
 6819TIP3   OH244651   7.227   1.363   0.803 -0.1897  0.0393 -0.3295
 6819TIP3    H144652   7.304   1.418   0.791  0.2825 -0.5036  0.1149
 6819TIP3    H244653   7.164   1.419   0.848  0.2257  0.2579 -0.0159
 6820TIP3   OH244654   5.010   6.430   8.094 -0.2715  0.3593  0.6153
 6820TIP3    H144655   5.085   6.407   8.150 -0.5840  1.3468  1.4794
 6820TIP3    H244656   4.937   6.379   8.130 -0.1816 -0.0513  0.2273
 6821TIP3   OH244657   0.332   7.620   2.243 -0.2236  0.2343 -0.0460
 6821TIP3    H144658   0.313   7.526   2.251 -0.4270  0.3469  0.9019
 6821TIP3    H244659   0.317   7.640   2.150 -0.8360 -0.5251 -0.1176
 6822TIP3   OH244660   1.602   1.313   1.255  0.0426  0.2861  0.6556
 6822TIP3    H144661   1.511   1.292   1.275 -0.4348  2.2028  0.6484
 6822TIP3    H244662   1.623   1.261   1.178 -0.3642 -1.7450  1.8458
 6823TIP3   OH244663   3.492   1.885   2.105 -0.4479 -0.0692  0.0946
 6823TIP3    H144664   3.543   1.921   2.032  1.8431 -1.1656  1.0415
 6823TIP3    H244665   3.461   1.800   2.074  0.2887 -0.4099  0.2576
 6824TIP3   OH244666   6.235   7.514   1.978 -0.6656 -0.1580  0.5315
 6824TIP3    H144667   6.174   7.587   1.985  0.4864  0.9976 -0.6823
 6824TIP3    H244668   6.218   7.477   1.892  0.3167  0.1860  0.1756
 6825TIP3   OH244669   2.545   0.578   2.672  0.6414 -0.3414  0.0413
 6825TIP3    H144670   2.585   0.572   2.759  2.9849 -0.8638 -0.9742
 6825TIP3    H244671   2.488   0.502   2.666  0.8248 -0.5591  0.9633
 6826TIP3   OH244672   1.684   4.956   9.769 -0.3520  0.1605  0.0868
 6826TIP3    H144673   1.607   4.995   9.810 -0.7053  0.7012 -1.0232
 6826TIP3    H244674   1.732   5.031   9.733  0.2239 -0.2432  0.0021
 6827TIP3   OH244675   1.242   4.193   7.700 -0.4296  0.2794  0.2242
 6827TIP3    H144676   1.245   4.209   7.794  2.2574 -0.0185  0.2698
 6827TIP3    H244677   1.220   4.278   7.661 -1.0489  0.5202  1.0768
 6828TIP3   OH244678   5.669   2.982   7.078 -0.1429 -0.4590  0.4518
 6828TIP3    H144679   5.701   2.902   7.120 -1.6862 -0.9567  0.7202
 6828TIP3    H244680   5.737   3.047   7.096  1.4038 -1.8036 -0.1962
 6829TIP3   OH244681   2.788   1.053   0.369 -0.5429 -0.3582  0.4013
 6829TIP3    H144682   2.799   1.097   0.285  1.4163  0.3028  0.9415
 6829TIP3    H244683   2.723   0.985   0.353 -0.6104  0.1179 -1.4969
 6830TIP3   OH244684   1.723   1.906   9.133 -0.2130 -0.2374  0.0242
 6830TIP3    H144685   1.766   1.847   9.196  1.3292  2.2753  1.4888
 6830TIP3    H244686   1.644   1.935   9.179 -0.9740 -1.1111 -0.6981
 6831TIP3   OH244687   1.272   3.444   0.626 -0.0748  0.3659  0.1185
 6831TIP3    H144688   1.238   3.416   0.542  0.5035  2.4384 -0.8859
 6831TIP3    H244689   1.363   3.413   0.627  0.0345  0.6754 -0.1970
 6832TIP3   OH244690   3.382   5.467   2.635  0.9596 -0.3031 -0.6477
 6832TIP3    H144691   3.446   5.539   2.641 -0.1304  0.6410  0.4015
 6832TIP3    H244692   3.368   5.442   2.726 -1.2607  0.5511 -0.7058
 6833TIP3   OH244693   7.407   2.404   7.710  0.1878 -0.9292 -0.5135
 6833TIP3    H144694   7.417   2.448   7.795 -0.3131  0.6190 -1.2112
 6833TIP3    H244695   7.494   2.371   7.690  1.0575  1.2513 -0.6837
 6834TIP3   OH244696   1.066   6.183   9.391 -0.2414 -0.2062  0.4996
 6834TIP3    H144697   1.043   6.209   9.481  0.0796 -1.0896  0.8550
 6834TIP3    H244698   0.988   6.137   9.360  0.4690 -1.9644  1.1953
 6835TIP3   OH244699   4.723   2.991   7.223  0.1258  0.1613 -0.5430
 6835TIP3    H144700   4.808   3.035   7.224 -0.7317  1.9318 -1.1433
 6835TIP3    H244701   4.679   3.026   7.146 -0.8999 -1.2462 -0.6335
 6836TIP3   OH244702   0.851   3.575   8.418 -0.4383 -0.2787  0.1286
 6836TIP3    H144703   0.818   3.567   8.329  0.6799 -0.7963 -0.2572
 6836TIP3    H244704   0.917   3.643   8.413  0.9338 -1.5601  0.1458
 6837TIP3   OH244705   2.682   4.166   0.113 -0.1812  0.4414  0.3444
 6837TIP3    H144706   2.606   4.220   0.092 -1.1369 -0.2478  1.8400
 6837TIP3    H244707   2.749   4.228   0.143  0.5220  1.2277 -2.5956
 6838TIP3   OH244708   6.315   2.208   2.491  0.5434 -0.1122 -0.5866
 6838TIP3    H144709   6.352   2.174   2.572  0.0464  0.6794 -0.0158
 6838TIP3    H244710   6.375   2.278   2.465  0.4918 -0.1087 -0.6951
 6839TIP3   OH244711   2.376   1.310   2.180 -0.0301  0.1969  0.4773
 6839TIP3    H144712   2.436   1.309   2.254 -0.2734 -1.1748  0.6771
 6839TIP3    H244713   2.365   1.218   2.156 -2.2950  0.3674  0.6395
 6840TIP3   OH244714   1.722   6.673   9.089 -0.1606  0.1020  0.1562
 6840TIP3    H144715   1.727   6.767   9.102  0.4786 -0.0751  1.2881
 6840TIP3    H244716   1.632   6.656   9.061  0.0008  1.1522 -1.1016
 6841TIP3   OH244717   1.242   3.648   8.795  0.6642  0.0781  0.2245
 6841TIP3    H144718   1.333   3.643   8.764 -0.2861 -1.6003 -2.6356
 6841TIP3    H244719   1.225   3.563   8.835  0.1395  0.1016  0.0603
 6842TIP3   OH244720   2.645   4.033   7.781 -0.4045  0.1766  0.2489
 6842TIP3    H144721   2.631   4.005   7.871  3.2003  2.5076  1.7488
 6842TIP3    H244722   2.712   3.973   7.747 -0.6835  0.2192 -0.4040
 6843TIP3   OH244723   2.816   4.230   8.441  0.1486  0.4086 -0.5768
 6843TIP3    H144724   2.802   4.164   8.509  1.2617 -1.0433 -1.6933
 6843TIP3    H244725   2.797   4.313   8.485 -0.4176 -0.5572  1.1331
 6844TIP3   OH244726   5.608   5.567   8.224 -0.1824  0.0570  0.0748
 6844TIP3    H144727   5.539   5.523   8.175 -1.2241  1.0634  0.5875
 6844TIP3    H244728   5.635   5.640   8.167 -0.1222  0.1581  0.2310
 6845TIP3   OH244729   5.555   1.817   8.102 -1.0334 -0.0565 -0.2988
 6845TIP3    H144730   5.626   1.770   8.146 -0.5406 -0.7585 -1.7830
 6845TIP3    H244731   5.480   1.808   8.161 -0.7456 -2.0823 -0.1675
 6846TIP3   OH244732   5.513   4.156   7.753  0.7704  0.0438  0.4751
 6846TIP3    H144733   5.449   4.146   7.822  0.9892 -2.0096  0.4313
 6846TIP3    H244734   5.568   4.078   7.759  0.6533 -0.3287 -2.1334
 6847TIP3   OH244735   0.556   2.493   9.871  0.2517  0.6220 -0.2649
 6847TIP3    H144736   0.647   2.463   9.875  0.5952  1.2727 -2.1801
 6847TIP3    H244737   0.509   2.419   9.831  0.1013  0.5991 -0.0438
 6848TIP3   OH244738   0.972   2.277   8.879 -0.5604  0.0072  0.5163
 6848TIP3    H144739   1.040   2.272   8.947 -1.5306 -1.0675  1.4587
 6848TIP3    H244740   0.966   2.370   8.858  0.2624  0.2789  1.3859
 6849TIP3   OH244741   4.824   2.409   2.077  0.1910  0.2006 -0.2233
 6849TIP3    H144742   4.857   2.347   2.012  0.0222  1.9038 -2.0260
 6849TIP3    H244743   4.858   2.494   2.049  0.1938  1.0119  2.0016
 6850TIP3   OH244744   7.425   0.558   8.821  0.2108 -0.0822  0.1527
 6850TIP3    H144745   7.490   0.507   8.771 -0.0372 -0.2665  0.0117
 6850TIP3    H244746   7.468   0.578   8.904  0.7347  0.4650 -0.2416
 6851TIP3   OH244747   3.622   2.964   0.466  0.2065 -0.4622 -0.4434
 6851TIP3    H144748   3.560   3.030   0.499 -0.2910 -1.4407  0.6515
 6851TIP3    H244749   3.632   2.986   0.374 -1.9326 -0.3742 -0.7223
 6852TIP3   OH244750   5.832   0.509   7.228 -0.7002  0.0128 -0.4134
 6852TIP3    H144751   5.895   0.437   7.223 -0.0392  0.4700  0.6927
 6852TIP3    H244752   5.834   0.548   7.141  0.5520 -0.0093 -0.4239
 6853TIP3   OH244753   7.653   3.513   7.746  0.3417 -0.0081 -0.0675
 6853TIP3    H144754   7.561   3.506   7.720  0.8302 -1.8664 -1.4699
 6853TIP3    H244755   7.700   3.529   7.664  1.5070 -1.8231  0.1931
 6854TIP3   OH244756   4.345   0.044   0.653  0.4954  0.0210 -0.5042
 6854TIP3    H144757   4.317  -0.019   0.719 -0.5943 -0.5511 -1.4798
 6854TIP3    H244758   4.267   0.097   0.636  0.7164  0.0521 -1.4511
 6855TIP3   OH244759   5.284   2.224   1.405 -0.2128 -0.1112  0.4526
 6855TIP3    H144760   5.217   2.287   1.431 -0.6236 -0.7971  1.1077
 6855TIP3    H244761   5.292   2.165   1.480  1.2089  0.0118  0.4260
 6856TIP3   OH244762   3.326   7.458   9.722  0.0814 -0.2499 -1.0462
 6856TIP3    H144763   3.383   7.485   9.793 -1.0667 -0.5336  0.0166
 6856TIP3    H244764   3.369   7.491   9.643  0.6488  1.3484 -0.1162
 6857TIP3   OH244765   0.613   4.458   9.574  0.1860  0.5504  0.7295
 6857TIP3    H144766   0.573   4.371   9.569 -1.1680  1.1457  0.7836
 6857TIP3    H244767   0.706   4.443   9.556 -0.2214 -0.7413 -0.4436
 6858TIP3   OH244768   3.956   0.472   9.198  0.1391 -0.1753 -0.4624
 6858TIP3    H144769   4.015   0.527   9.145 -1.5898  1.6272 -0.6421
 6858TIP3    H244770   3.974   0.498   9.288 -0.0829  0.0883 -0.4913
 6859TIP3   OH244771   5.384   0.582   7.783 -0.3090  0.2653  0.2882
 6859TIP3    H144772   5.466   0.610   7.743 -1.1673  0.2191 -1.6126
 6859TIP3    H244773   5.377   0.634   7.863  2.0226 -0.4404  1.0252
 6860TIP3   OH244774   6.384   6.844   7.170 -0.2783 -0.0925 -0.0380
 6860TIP3    H144775   6.476   6.868   7.166 -0.9669  3.5860  1.9997
 6860TIP3    H244776   6.341   6.907   7.112 -1.7827  0.6590  1.7856
 6861TIP3   OH244777   6.634   5.918   2.360  0.0837 -0.1917 -0.0011
 6861TIP3    H144778   6.568   5.907   2.428  0.9891  0.4256  1.0092
 6861TIP3    H244779   6.586   5.956   2.286 -0.8454 -0.5419  0.4064
 6862TIP3   OH244780   2.916   2.410   0.989 -0.3033  0.2401  0.0199
 6862TIP3    H144781   2.843   2.393   0.929  0.8061 -2.8609 -0.6521
 6862TIP3    H244782   2.979   2.342   0.969  1.5194  1.0221  2.6089
 6863TIP3   OH244783   3.552   1.434   0.822 -0.2133 -0.1947 -0.1859
 6863TIP3    H144784   3.581   1.350   0.787  0.3176 -0.0754 -0.0447
 6863TIP3    H244785   3.513   1.480   0.748  1.5482  0.3507 -0.8276
 6864TIP3   OH244786   1.893   6.627   9.441  0.1126  0.3592  0.1988
 6864TIP3    H144787   1.913   6.571   9.367  0.3934 -0.7184  1.0571
 6864TIP3    H244788   1.814   6.674   9.415 -0.1690 -0.4820 -0.5223
 6865TIP3   OH244789   0.349   1.980   1.834  0.2413  0.0702  0.2426
 6865TIP3    H144790   0.443   1.963   1.823  0.2751 -0.5701  1.3607
 6865TIP3    H244791   0.311   1.893   1.850 -0.4152  0.4222  0.6425
 6866TIP3   OH244792   2.051   5.430   7.787  0.1131  0.5167 -0.5454
 6866TIP3    H144793   1.996   5.456   7.861 -2.2066 -0.1531 -1.9029
 6866TIP3    H244794   2.072   5.338   7.804  0.7430  0.7423 -0.0774
 6867TIP3   OH244795   3.866   0.303   8.323 -0.4237 -0.1738 -0.0579
 6867TIP3    H144796   3.880   0.211   8.345 -1.7846 -0.2335  0.6822
 6867TIP3    H244797   3.772   0.309   8.304 -0.5361  1.2154  0.7886
 6868TIP3   OH244798   6.588   7.106   8.107  0.1806  0.7674  0.1186
 6868TIP3    H144799   6.656   7.048   8.073  0.2502  1.3524 -0.7733
 6868TIP3    H244800   6.542   7.138   8.029 -0.0147  1.7097  0.6013
 6869TIP3   OH244801   0.888   0.128   1.764  0.2323  0.2034  0.2242
 6869TIP3    H144802   0.868   0.126   1.857  1.9507 -0.2022  0.6331
 6869TIP3    H244803   0.912   0.220   1.747 -0.7556  0.4319  0.0006
 6870TIP3   OH244804   2.443   2.332   1.957 -0.0254 -0.4497  0.1471
 6870TIP3    H144805   2.450   2.388   1.879  0.4084 -1.1207 -0.3074
 6870TIP3    H244806   2.367   2.277   1.939 -1.4026  0.9771  1.2620
 6871TIP3   OH244807   2.509   1.757   9.312  0.4123 -0.1192 -0.2540
 6871TIP3    H144808   2.550   1.726   9.393  0.4681 -1.0547 -0.6301
 6871TIP3    H244809   2.472   1.842   9.336  1.6617  0.2769  0.3668
 6872TIP3   OH244810   6.341   2.195   9.178  0.2239 -0.1205 -0.2253
 6872TIP3    H144811   6.266   2.140   9.202  0.1764 -1.2405 -2.6376
 6872TIP3    H244812   6.417   2.140   9.195  0.5625  0.9101  1.9374
 6873TIP3   OH244813   0.349   0.048   1.986  0.7065  0.1389  0.0371
 6873TIP3    H144814   0.374   0.139   1.975  0.4874  0.1963  0.0101
 6873TIP3    H244815   0.270   0.038   1.933  0.9987 -0.1877 -0.3393
 6874TIP3   OH244816   3.347   6.570   1.769  0.0083  0.1865 -0.0861
 6874TIP3    H144817   3.396   6.498   1.729  0.6109  1.2906 -1.4245
 6874TIP3    H244818   3.337   6.634   1.699 -2.5267  0.4431  0.4181
 6875TIP3   OH244819   2.139   0.133   1.643  0.2771 -0.2434 -0.2036
 6875TIP3    H144820   2.123   0.048   1.682  1.7606 -1.2890 -1.7226
 6875TIP3    H244821   2.177   0.185   1.714  1.4416 -1.5840  0.2025
 6876TIP3   OH244822   6.317   1.874   0.186  0.4225  0.2340 -0.3729
 6876TIP3    H144823   6.304   1.900   0.277  1.1037  0.8326 -0.4290
 6876TIP3    H244824   6.314   1.956   0.138  1.6094  0.1051 -0.6914
 6877TIP3   OH244825   0.613   3.351   2.061 -0.0595  0.2404  0.3794
 6877TIP3    H144826   0.582   3.309   1.981  0.0866  1.4713 -0.3528
 6877TIP3    H244827   0.670   3.285   2.102  1.7107  0.3779 -1.7100
 6878TIP3   OH244828   2.862   4.238   2.128  0.1136  0.1071  0.5124
 6878TIP3    H144829   2.851   4.253   2.034  0.8803  2.6640  0.7489
 6878TIP3    H244830   2.774   4.242   2.164 -0.0099  1.1695  0.1215
 6879TIP3   OH244831   2.814   1.739   9.313  0.0137  0.0875  0.7546
 6879TIP3    H144832   2.807   1.797   9.238  1.4289  0.6237  1.0028
 6879TIP3    H244833   2.727   1.699   9.321 -0.7260  1.4762  0.0231
 6880TIP3   OH244834   5.094   2.452   6.976 -0.4715 -0.1978 -0.1712
 6880TIP3    H144835   5.030   2.388   6.945 -0.4612 -0.7873  0.9647
 6880TIP3    H244836   5.115   2.423   7.065  0.4942  0.6617 -0.1055
 6881TIP3   OH244837   5.880   1.000   8.434 -0.2837  0.7328 -0.1194
 6881TIP3    H144838   5.838   0.961   8.510 -3.1297  4.0624  0.2528
 6881TIP3    H244839   5.929   1.075   8.469  0.2953  0.9455 -1.3182
 6882TIP3   OH244840   4.329   6.148   0.654 -0.3454  0.1276  0.1215
 6882TIP3    H144841   4.268   6.203   0.605 -0.2241  1.0979  1.0304
 6882TIP3    H244842   4.340   6.192   0.738  1.0374 -0.4199  0.2593
 6883TIP3   OH244843   1.670   2.190   8.093  0.4622  0.2563  0.0131
 6883TIP3    H144844   1.670   2.111   8.147 -2.2903 -0.1351 -0.4196
 6883TIP3    H244845   1.695   2.158   8.006 -0.0448 -0.0468 -0.0265
 6884TIP3   OH244846   5.619   5.852   6.420  0.1408 -0.6652 -0.3950
 6884TIP3    H144847   5.711   5.870   6.436  0.1706 -0.6893 -0.5432
 6884TIP3    H244848   5.579   5.939   6.410  0.0882 -0.6403 -0.0099
 6885TIP3   OH244849   4.919   3.631   9.041  0.1432  0.8231 -0.1570
 6885TIP3    H144850   4.840   3.636   9.094 -0.9293  1.8789 -1.7900
 6885TIP3    H244851   4.991   3.643   9.104 -1.0633  1.9055  1.0727
 6886TIP3   OH244852   3.651   7.107   7.604  0.4434 -0.1926 -0.0974
 6886TIP3    H144853   3.609   7.097   7.519 -0.2091 -1.0650  0.3025
 6886TIP3    H244854   3.601   7.177   7.648  0.2508 -0.3152 -0.1213
 6887TIP3   OH244855   6.380   6.708   7.998 -0.3164  0.0018  0.1398
 6887TIP3    H144856   6.434   6.724   7.920 -1.4512  3.3106 -0.1281
 6887TIP3    H244857   6.418   6.764   8.065 -1.5255 -0.0668  0.9006
 6888TIP3   OH244858   2.561   6.346   7.442  0.2259  0.6574 -0.5801
 6888TIP3    H144859   2.535   6.347   7.534  2.4865  0.0943  0.1261
 6888TIP3    H244860   2.543   6.435   7.411 -0.2585  0.9426  0.4723
 6889TIP3   OH244861   1.749   1.439   2.697  0.2387 -0.1181 -0.9232
 6889TIP3    H144862   1.719   1.399   2.616 -1.4928  1.7823 -1.2807
 6889TIP3    H244863   1.708   1.387   2.766  1.7636 -1.7763 -1.1703
 6890TIP3   OH244864   2.962   6.749   6.897  0.0388 -0.7556 -0.2269
 6890TIP3    H144865   2.879   6.796   6.884  0.0308 -0.6315  0.2462
 6890TIP3    H244866   2.938   6.656   6.891  0.1231 -0.7141 -1.5737
 6891TIP3   OH244867   0.962   1.831   3.118 -0.3813  0.6201  0.4550
 6891TIP3    H144868   0.882   1.786   3.146 -0.9367  1.4982  0.3096
 6891TIP3    H244869   0.936   1.881   3.041  0.3629  0.7649  0.2871
 6892TIP3   OH244870   7.176   3.788   7.494 -0.0867  0.0052 -0.4120
 6892TIP3    H144871   7.205   3.872   7.529  0.0066  0.0986 -0.7130
 6892TIP3    H244872   7.094   3.807   7.450 -0.6454 -0.2672  0.4780
 6893TIP3   OH244873   2.772   3.703   8.879 -0.2160  0.3587 -0.5105
 6893TIP3    H144874   2.694   3.680   8.928 -0.5381  0.3799 -1.0085
 6893TIP3    H244875   2.747   3.694   8.787  0.8478 -1.2164 -0.6765
 6894TIP3   OH244876   0.037   0.504   0.495 -0.4677 -0.2822 -0.2277
 6894TIP3    H144877  -0.016   0.580   0.519  1.1357  0.7691  0.1389
 6894TIP3    H244878   0.069   0.469   0.578  1.2031  0.4634 -0.5275
 6895TIP3   OH244879   2.512   6.903   7.447 -0.7326 -0.1901  0.6070
 6895TIP3    H144880   2.605   6.911   7.426 -0.8232 -2.4375 -0.9994
 6895TIP3    H244881   2.496   6.973   7.511  2.1488 -0.0694  1.3428
 6896TIP3   OH244882   5.552   3.563   9.517 -0.0044  0.0393 -0.2496
 6896TIP3    H144883   5.469   3.610   9.530  0.4937  1.1050 -0.8096
 6896TIP3    H244884   5.525   3.474   9.491 -0.9664  0.3529 -0.3725
 6897TIP3   OH244885   0.627   4.378   2.163 -0.8805 -0.3058  0.4624
 6897TIP3    H144886   0.695   4.415   2.107 -2.2364 -0.8445 -1.6305
 6897TIP3    H244887   0.551   4.435   2.151 -1.6397 -1.2524  0.6282
 6898TIP3   OH244888   6.770   7.347   7.192  0.4190 -0.7800 -0.5111
 6898TIP3    H144889   6.815   7.314   7.114  1.5633 -1.7521  0.5135
 6898TIP3    H244890   6.720   7.272   7.225  0.6648 -0.6591  0.1663
 6899TIP3   OH244891   2.302   2.750   7.892  0.2164 -0.2622  0.2634
 6899TIP3    H144892   2.265   2.761   7.980 -0.4710 -1.0983  0.0932
 6899TIP3    H244893   2.341   2.662   7.893  0.8023 -0.0120 -0.0621
 6900TIP3   OH244894   5.644   5.930   0.292  0.8812 -0.2420  0.0110
 6900TIP3    H144895   5.663   5.840   0.319  1.1222  0.7017  3.4824
 6900TIP3    H244896   5.556   5.926   0.255  0.5840 -1.8064  0.8075
 6901TIP3   OH244897   2.924   0.333   6.538 -1.0954 -0.7138 -0.3111
 6901TIP3    H144898   2.837   0.331   6.576 -0.8498  0.2636  0.3401
 6901TIP3    H244899   2.972   0.399   6.589 -1.0042  1.3434 -2.8003
 6902TIP3   OH244900   0.518   7.337   7.249 -0.3838 -0.5731 -0.4320
 6902TIP3    H144901   0.508   7.361   7.341 -2.4639 -0.7162 -0.5798
 6902TIP3    H244902   0.451   7.388   7.203  0.1311 -1.0519 -1.7747
 6903TIP3   OH244903   1.363   0.817   9.786  0.0799 -0.1832 -0.2416
 6903TIP3    H144904   1.409   0.819   9.869 -0.0199  1.5258 -0.1953
 6903TIP3    H244905   1.283   0.767   9.804  1.2445 -2.0653 -0.0102
 6904TIP3   OH244906   7.300   6.750   0.218  0.5748 -0.2763  0.4713
 6904TIP3    H144907   7.396   6.755   0.220  0.6425  0.6333 -1.5379
 6904TIP3    H244908   7.280   6.728   0.126 -1.1815  2.6936  0.0309
 6905TIP3   OH244909   4.126   0.638   0.832  0.2018  0.3428 -0.5630
 6905TIP3    H144910   4.206   0.586   0.843 -1.1129 -1.5820  0.6113
 6905TIP3    H244911   4.093   0.649   0.921 -0.5817  1.5617 -0.9887
 6906TIP3   OH244912   2.493   1.929   2.564 -0.0829  0.0764 -0.6635
 6906TIP3    H144913   2.418   1.950   2.620 -0.1701 -0.4148 -0.5864
 6906TIP3    H244914   2.541   2.011   2.557 -0.7239  0.4452 -0.8622
 6907TIP3   OH244915   0.115   2.947   0.203  0.5401 -0.6101 -0.1365
 6907TIP3    H144916   0.044   2.893   0.238 -0.6524  0.1154 -1.3490
 6907TIP3    H244917   0.121   2.920   0.111  1.7432 -0.5354 -0.0941
 6908TIP3   OH244918   3.059   2.071   8.779 -0.3736  0.0701 -0.4582
 6908TIP3    H144919   2.998   2.116   8.721 -0.0195  1.2249  0.0377
 6908TIP3    H244920   3.030   2.093   8.867  0.1167 -0.2422 -0.2119
 6909TIP3   OH244921   3.301   7.257   0.851 -0.1772 -0.0952 -0.2636
 6909TIP3    H144922   3.383   7.209   0.860 -0.3826 -0.5281 -0.6865
 6909TIP3    H244923   3.314   7.337   0.903  0.7143  0.1082 -0.7814
 6910TIP3   OH244924   2.612   3.919   9.388  0.0982  0.2986  0.3964
 6910TIP3    H144925   2.639   3.986   9.451  1.7283  0.6758 -0.6483
 6910TIP3    H244926   2.641   3.837   9.427  0.2037  0.4377  0.6136
 6911TIP3   OH244927   5.812   1.434   8.679 -0.3104 -0.3767  0.0476
 6911TIP3    H144928   5.888   1.429   8.737 -0.2813 -0.0144  0.0484
 6911TIP3    H244929   5.741   1.467   8.736 -0.7722 -1.7907  0.3251
 6912TIP3   OH244930   3.124   5.232   8.016 -0.3437  0.0227 -0.0536
 6912TIP3    H144931   3.094   5.142   8.024  0.1790 -0.1614 -0.1488
 6912TIP3    H244932   3.080   5.265   7.937 -0.2573 -0.2626 -0.2231
 6913TIP3   OH244933   0.061   7.089   9.128 -0.6684 -0.1537 -0.0519
 6913TIP3    H144934   0.063   6.998   9.157  0.1472  0.1090  0.7700
 6913TIP3    H244935  -0.031   7.115   9.141 -1.3653 -1.3866 -2.1134
 6914TIP3   OH244936   0.167   3.930   1.973  0.3277 -0.1603 -0.1370
 6914TIP3    H144937   0.084   3.976   1.954  1.3777  2.5030  1.2045
 6914TIP3    H244938   0.183   3.947   2.066  2.0649 -1.1861 -0.2090
 6915TIP3   OH244939   6.355   5.342   9.560 -0.1372 -0.2524  0.1783
 6915TIP3    H144940   6.279   5.382   9.602  0.5872  2.0833 -0.5865
 6915TIP3    H244941   6.372   5.397   9.484  1.0496 -1.9819 -0.8728
 6916TIP3   OH244942   1.068   0.764   1.844 -0.7290  0.3297 -0.2086
 6916TIP3    H144943   1.022   0.699   1.792 -1.1624  0.8983 -0.5496
 6916TIP3    H244944   1.002   0.799   1.904 -0.9356  1.6041 -1.1344
 6917TIP3   OH244945   6.003   7.429   0.050  0.1504 -0.5423  0.0337
 6917TIP3    H144946   5.965   7.343   0.037  0.1395 -0.4566 -0.4934
 6917TIP3    H244947   6.033   7.428   0.141  0.0295 -1.0522  0.0703
 6918TIP3   OH244948   5.986   1.127   1.334  0.0669  0.1045  0.3936
 6918TIP3    H144949   6.077   1.133   1.304 -0.5576  0.1524 -1.6595
 6918TIP3    H244950   5.953   1.216   1.329 -0.4677 -0.1160 -0.2259
 6919TIP3   OH244951   5.189   0.083   7.747 -0.2132 -0.1294 -0.0502
 6919TIP3    H144952   5.236   0.166   7.742  0.1988 -0.3605 -0.0427
 6919TIP3    H244953   5.099   0.105   7.722  0.3163 -0.0297 -2.0579
 6920TIP3   OH244954   0.632   2.447   7.599  0.1216  0.0244  0.1637
 6920TIP3    H144955   0.628   2.493   7.683 -0.4119 -0.1045  0.2097
 6920TIP3    H244956   0.716   2.473   7.562  0.1093  0.5317  0.4778
 6921TIP3   OH244957   5.583   0.813   1.421  0.0779 -0.5074 -0.8323
 6921TIP3    H144958   5.652   0.862   1.377 -0.8312 -1.0764 -3.0217
 6921TIP3    H244959   5.627   0.771   1.495  1.8809 -0.1246 -1.6313
 6922TIP3   OH244960   0.400   6.885   1.566 -0.0060 -0.2221 -0.1346
 6922TIP3    H144961   0.328   6.893   1.629 -0.8959 -1.5728 -0.9204
 6922TIP3    H244962   0.399   6.967   1.518  0.9787  1.0288  1.8418
 6923TIP3   OH244963   1.610   0.037   1.622  0.3878  0.5151 -0.3251
 6923TIP3    H144964   1.521   0.043   1.586  0.5158  0.3406 -0.6797
 6923TIP3    H244965   1.664   0.081   1.557  0.5972  0.3750 -0.2451
 6924TIP3   OH244966   2.187   2.525   2.623 -0.0459  0.1180 -0.1141
 6924TIP3    H144967   2.161   2.506   2.714 -0.2564 -2.6429 -0.6582
 6924TIP3    H244968   2.283   2.532   2.628  0.4455 -4.1010 -0.1272
 6925TIP3   OH244969   2.740   5.695   9.004  0.0135  0.8153 -0.2907
 6925TIP3    H144970   2.714   5.603   9.010 -0.1480  0.7709 -1.3319
 6925TIP3    H244971   2.748   5.711   8.909  3.0456  1.0156 -0.1040
 6926TIP3   OH244972   0.630   3.801   8.738 -0.5878 -1.0049 -0.7106
 6926TIP3    H144973   0.578   3.755   8.803  1.0149 -3.1229 -0.8101
 6926TIP3    H244974   0.691   3.854   8.789  0.2400 -2.1695 -0.4327
 6927TIP3   OH244975   1.847   0.861   2.145 -0.2737 -0.6568  0.1511
 6927TIP3    H144976   1.794   0.915   2.204 -0.1975 -0.6612  0.2242
 6927TIP3    H244977   1.790   0.789   2.121 -0.3263 -0.6222  0.1715
 6928TIP3   OH244978   0.262   1.215   9.154  0.0554 -0.7970 -0.2075
 6928TIP3    H144979   0.254   1.311   9.148 -0.0593 -0.6003  2.1816
 6928TIP3    H244980   0.191   1.182   9.099  0.6911  0.4429 -1.8645
 6929TIP3   OH244981   3.232   4.967   2.006 -0.0808 -0.4320  0.1670
 6929TIP3    H144982   3.206   4.993   2.095 -1.4431 -1.0647 -0.0135
 6929TIP3    H244983   3.327   4.959   2.010  0.0730  1.2969  1.0867
 6930TIP3   OH244984   3.468   4.077   7.351 -0.1642 -0.1702  0.2472
 6930TIP3    H144985   3.381   4.042   7.374 -0.7109 -0.0629 -1.5246
 6930TIP3    H244986   3.509   4.095   7.436 -0.9901 -2.3376  1.2001
 6931TIP3   OH244987   1.580   5.662   2.667  0.1349 -0.2347 -0.0573
 6931TIP3    H144988   1.496   5.646   2.708 -0.0973  1.5257  0.2365
 6931TIP3    H244989   1.639   5.681   2.740  1.2258 -2.8732 -0.1165
 6932TIP3   OH244990   1.475   7.596   9.469 -0.2650 -0.1231 -0.0728
 6932TIP3    H144991   1.464   7.665   9.404  0.1787  0.1189  0.1080
 6932TIP3    H244992   1.469   7.514   9.419 -0.9171  0.0335 -0.2699
 6933TIP3   OH244993   4.603   7.528   9.032  0.1608  0.2196 -0.3979
 6933TIP3    H144994   4.511   7.509   9.018 -0.3210  1.0641  1.3680
 6933TIP3    H244995   4.606   7.580   9.112  1.8533  3.2806 -2.2546
 6934TIP3   OH244996   0.265   5.441   8.611 -0.6172  0.1838 -0.0828
 6934TIP3    H144997   0.326   5.511   8.585  1.0218 -0.7773  1.0157
 6934TIP3    H244998   0.268   5.442   8.707 -1.2365 -0.8454 -0.0456
 6935TIP3   OH244999   3.502   0.089   2.482  0.3332 -0.0270 -0.3882
 6935TIP3    H145000   3.436   0.132   2.537  1.1715 -1.0882  1.5472
 6935TIP3    H245001   3.473  -0.003   2.477  1.2118 -0.3206 -0.2232
 6936TIP3   OH245002   1.586   6.288   1.122 -0.0043  0.6444 -0.5391
 6936TIP3    H145003   1.677   6.293   1.094  0.1734  2.8793  0.2435
 6936TIP3    H245004   1.571   6.194   1.137  2.2273  0.2370 -0.4560
 6937TIP3   OH245005   0.865   6.125   2.855 -0.4336 -0.0092 -0.7198
 6937TIP3    H145006   0.954   6.147   2.883 -0.2720 -1.7999  0.4136
 6937TIP3    H245007   0.813   6.132   2.935 -0.8580 -1.0587 -0.8857
 6938TIP3   OH245008   5.022   0.882   2.488 -0.5911 -0.4999  0.1787
 6938TIP3    H145009   5.097   0.935   2.517 -0.0349 -2.4437  2.7291
 6938TIP3    H245010   4.946   0.928   2.523 -0.7861  1.7104 -2.7729
 6939TIP3   OH245011   0.409   2.645   0.916 -0.3829  0.2725  0.2860
 6939TIP3    H145012   0.333   2.698   0.889  0.0259 -0.0045 -1.4775
 6939TIP3    H245013   0.375   2.589   0.986 -1.6621  0.5509 -0.0862
 6940TIP3   OH245014   6.070   7.305   2.302  0.0140 -0.1125  0.1755
 6940TIP3    H145015   6.095   7.398   2.297  1.0624 -0.4315 -1.0546
 6940TIP3    H245016   5.985   7.306   2.345  0.4167  1.3482  1.0329
 6941TIP3   OH245017   4.761   4.407   7.851  0.1652  0.1791 -0.1707
 6941TIP3    H145018   4.756   4.346   7.777  2.1224 -0.9628  0.5760
 6941TIP3    H245019   4.792   4.489   7.813  1.3259 -0.4481 -0.6168
 6942TIP3   OH245020   1.636   7.523   0.913  0.3890  0.4330  0.0883
 6942TIP3    H145021   1.696   7.477   0.972 -0.8964  0.2345  1.3011
 6942TIP3    H245022   1.567   7.555   0.970 -1.0730 -0.0133 -1.3466
 6943TIP3   OH245023   6.756   0.370   1.116 -0.2129 -0.0003  0.1904
 6943TIP3    H145024   6.732   0.448   1.166 -1.6161  0.9235 -1.7752
 6943TIP3    H245025   6.697   0.371   1.041  0.2709 -2.5562 -0.3135
 6944TIP3   OH245026   6.609   6.972   6.840  0.1424 -0.1506 -0.5991
 6944TIP3    H145027   6.628   6.979   6.933 -1.2743  2.9452 -0.4033
 6944TIP3    H245028   6.692   6.945   6.800  1.4509  0.8213  1.3316
 6945TIP3   OH245029   7.135   2.777   1.166  0.1814 -0.3569 -0.0156
 6945TIP3    H145030   7.156   2.863   1.129  0.2760  0.4690  1.8612
 6945TIP3    H245031   7.219   2.743   1.196  0.2468 -1.4308 -1.3396
 6946TIP3   OH245032   5.776   0.899   0.226 -0.0965  0.3202  0.1363
 6946TIP3    H145033   5.821   0.946   0.296 -2.1744  0.9626  1.1469
 6946TIP3    H245034   5.802   0.944   0.146 -0.7416  2.2128  0.9245
 6947TIP3   OH245035   7.063   5.644   9.638  0.3755  0.0348 -0.1122
 6947TIP3    H145036   7.037   5.611   9.552  1.1309 -1.0680  0.0604
 6947TIP3    H245037   7.081   5.565   9.689 -1.0291  0.6388  1.3871
 6948TIP3   OH245038   4.342   1.014   9.578  0.4380  0.1548  0.4067
 6948TIP3    H145039   4.323   0.920   9.582 -1.8207  0.2748 -2.9208
 6948TIP3    H245040   4.291   1.052   9.650 -0.7646 -0.9795  0.1891
 6949TIP3   OH245041   1.651   5.591   0.120  0.3514 -0.2217  0.4730
 6949TIP3    H145042   1.744   5.574   0.128  0.5839  0.6248 -0.3153
 6949TIP3    H245043   1.636   5.600   0.026 -0.9948 -2.8104  0.3311
 6950TIP3   OH245044   6.936   6.544   1.982  0.2760 -0.6226 -0.3874
 6950TIP3    H145045   6.860   6.522   1.928  1.0093 -0.9077 -1.3344
 6950TIP3    H245046   6.986   6.462   1.987  2.2268  0.3161 -2.6283
 6951TIP3   OH245047   0.185   3.767   8.930 -0.0633 -0.0031 -0.1407
 6951TIP3    H145048   0.223   3.852   8.910  2.1202 -0.4567  1.6594
 6951TIP3    H245049   0.168   3.728   8.845  0.4026  1.5863 -1.0065
 6952TIP3   OH245050   1.884   2.710   0.299 -0.6511  0.5291  0.0525
 6952TIP3    H145051   1.791   2.732   0.293 -0.7651 -0.1174 -0.7457
 6952TIP3    H245052   1.929   2.787   0.266 -0.8782  1.0256  0.8823
 6953TIP3   OH245053   3.686   2.032   1.969  0.7617 -0.4529 -0.2527
 6953TIP3    H145054   3.698   2.127   1.968 -0.1688 -0.3213  0.2433
 6953TIP3    H245055   3.756   1.999   1.912 -0.2745  0.6965 -2.3194
 6954TIP3   OH245056   4.664   1.770   9.167 -0.3457 -0.1812  0.0848
 6954TIP3    H145057   4.641   1.741   9.079  0.4359 -1.6881  0.3440
 6954TIP3    H245058   4.696   1.860   9.155 -1.3270  0.0569 -0.9752
 6955TIP3   OH245059   2.227   6.509   2.646  0.2834  0.2600  0.0243
 6955TIP3    H145060   2.258   6.547   2.728 -0.8984  1.1782  0.0700
 6955TIP3    H245061   2.270   6.561   2.578 -1.6993  2.0977  0.0819
 6956TIP3   OH245062   7.488   0.197   7.566  0.0264 -0.2649 -0.8625
 6956TIP3    H145063   7.524   0.224   7.651  0.0665 -1.7560 -0.3812
 6956TIP3    H245064   7.549   0.233   7.502  0.3509  0.3407 -0.2269
 6957TIP3   OH245065   6.444   3.789   9.995  0.1852 -0.0252 -0.3583
 6957TIP3    H145066   6.480   3.803  10.083 -1.9917  1.4290  0.3832
 6957TIP3    H245067   6.419   3.876   9.965  0.1177 -0.6079 -2.0899
 6958TIP3   OH245068   2.820   0.528   7.969 -0.2683  0.2671 -0.4139
 6958TIP3    H145069   2.783   0.450   8.009 -1.5995  0.6667 -0.8223
 6958TIP3    H245070   2.915   0.519   7.982 -0.5859  0.6893  3.3861
 6959TIP3   OH245071   2.798   6.954   8.055 -0.3702 -0.3931  0.2618
 6959TIP3    H145072   2.858   6.893   8.011  1.6681  1.3738  0.4370
 6959TIP3    H245073   2.801   6.928   8.147  0.7934  0.1805  0.3986
 6960TIP3   OH245074   3.908   6.978   9.658  0.2478 -0.1921 -0.2688
 6960TIP3    H145075   3.897   7.067   9.693  0.9116  0.3041 -1.2648
 6960TIP3    H245076   3.876   6.984   9.568  0.2932 -0.9730 -0.3447
 6961TIP3   OH245077   3.207   4.468   7.156 -0.0105 -0.3013  0.5804
 6961TIP3    H145078   3.144   4.399   7.137 -0.1769  0.5208 -2.3559
 6961TIP3    H245079   3.293   4.426   7.148 -0.1306 -0.4131 -0.1822
 6962TIP3   OH245080   7.220   1.977   9.915 -0.7244 -0.5117  0.3429
 6962TIP3    H145081   7.162   1.982   9.991 -0.2695 -0.6839  0.7056
 6962TIP3    H245082   7.275   2.055   9.922 -1.4069  0.0516 -0.4169
 6963TIP3   OH245083   4.494   7.400   1.602 -0.5655  0.4202  0.0074
 6963TIP3    H145084   4.439   7.455   1.657  0.7815  3.4746 -1.4671
 6963TIP3    H245085   4.519   7.456   1.529  0.7528 -2.2828 -1.7772
 6964TIP3   OH245086   0.771   5.786   1.608  0.2293 -0.1933 -0.2123
 6964TIP3    H145087   0.699   5.744   1.656 -0.1874 -0.4157 -1.0091
 6964TIP3    H245088   0.840   5.797   1.674 -1.6320  3.0208  1.4640
 6965TIP3   OH245089   5.495   2.423   0.633 -0.4534 -0.0095 -0.3646
 6965TIP3    H145090   5.524   2.415   0.724 -0.2989 -0.1964 -0.4298
 6965TIP3    H245091   5.553   2.490   0.595 -0.3362 -0.1315 -0.4005
 6966TIP3   OH245092   1.023   0.212   9.233  0.0572  0.0605  0.0611
 6966TIP3    H145093   1.075   0.234   9.157 -0.2929 -0.9600 -0.4855
 6966TIP3    H245094   0.943   0.173   9.198  0.3566 -1.4305  0.9593
 6967TIP3   OH245095   3.285   0.990   9.103  0.1667 -0.6855  0.3442
 6967TIP3    H145096   3.199   1.032   9.101  0.6958  0.4413 -1.4160
 6967TIP3    H245097   3.274   0.913   9.046  0.3195 -0.5240  0.0947
 6968TIP3   OH245098   6.889   4.170   8.021 -0.3838 -0.0571  0.2457
 6968TIP3    H145099   6.900   4.082   7.984  0.1984 -0.0166  0.3121
 6968TIP3    H245100   6.895   4.229   7.946  0.0764 -0.0213  0.3088
 6969TIP3   OH245101   3.752   0.814   1.399 -0.1719  0.3133 -0.0471
 6969TIP3    H145102   3.761   0.805   1.304 -1.0321  1.1188 -0.2251
 6969TIP3    H245103   3.780   0.730   1.435  3.1458  0.9665 -0.7818
 6970TIP3   OH245104   7.102   3.895   9.023  0.2154 -0.2062 -0.3727
 6970TIP3    H145105   7.108   3.937   8.937 -0.7834  0.8102  0.0191
 6970TIP3    H245106   7.191   3.901   9.058 -0.2997  4.0225  0.7082
 6971TIP3   OH245107   6.989   4.953   8.911  0.7501  0.1354 -0.4583
 6971TIP3    H145108   6.981   5.035   8.863  1.4432  0.5728  0.1498
 6971TIP3    H245109   6.911   4.951   8.967  1.2150  0.8829  0.2502
 6972TIP3   OH245110   4.971   2.407   9.242  0.3143 -0.3824 -0.1512
 6972TIP3    H145111   5.051   2.374   9.283 -0.0822  0.8887  1.7953
 6972TIP3    H245112   4.900   2.373   9.296 -0.4850 -1.2060 -1.6501
 6973TIP3   OH245113   0.099   5.750   8.450 -0.3480 -0.7540 -0.0913
 6973TIP3    H145114   0.021   5.792   8.415 -1.0393 -2.9172 -1.3240
 6973TIP3    H245115   0.084   5.747   8.544 -0.1533  1.8467  0.0981
 6974TIP3   OH245116   0.009   1.589   2.184  0.1425  0.0718 -0.4641
 6974TIP3    H145117   0.096   1.553   2.202  0.4867  0.2080 -1.8033
 6974TIP3    H245118  -0.048   1.512   2.181  0.0129  0.0406  1.2952
 6975TIP3   OH245119   6.489   6.739   6.841 -0.5352  0.4413  0.3148
 6975TIP3    H145120   6.568   6.715   6.891  0.4485  1.2043 -0.8122
 6975TIP3    H245121   6.491   6.835   6.839 -1.0147  0.4416 -0.4586
 6976TIP3   OH245122   4.806   1.548   8.821  0.0715 -0.1435  0.1268
 6976TIP3    H145123   4.871   1.518   8.757  0.1987 -0.4835  0.4166
 6976TIP3    H245124   4.857   1.570   8.899  0.0286  1.1767 -0.1854
 6977TIP3   OH245125   3.070   4.039   0.443 -0.0894 -0.4006  0.3017
 6977TIP3    H145126   3.089   4.132   0.455 -0.6541 -0.2255 -0.1457
 6977TIP3    H245127   2.978   4.036   0.416 -0.3032 -1.1447  1.0803
 6978TIP3   OH245128   0.669   2.735   8.220 -0.2804  0.2040  0.5158
 6978TIP3    H145129   0.705   2.813   8.176  1.2658 -0.1260  1.1046
 6978TIP3    H245130   0.666   2.668   8.153  0.4152  0.1935  0.4834
 6979TIP3   OH245131   3.030   5.696   7.635  0.7167 -0.3182  0.0005
 6979TIP3    H145132   2.967   5.682   7.564 -0.9650 -0.4635  1.4754
 6979TIP3    H245133   3.067   5.782   7.617 -0.4443  0.0942 -0.5142
 6980TIP3   OH245134   1.125   2.076   9.972 -0.0557 -0.6876  1.0284
 6980TIP3    H145135   1.186   2.148   9.992 -0.5200 -0.6897  2.5875
 6980TIP3    H245136   1.173   2.021   9.911  0.0428  1.3177 -0.8441
 6981TIP3   OH245137   4.900   5.415   8.792 -0.1353  0.7404  0.2678
 6981TIP3    H145138   4.943   5.498   8.771 -0.9991  1.3291  0.7532
 6981TIP3    H245139   4.827   5.410   8.730  0.1030  0.1756  0.0270
 6982TIP3   OH245140   0.923   4.256   0.397 -0.0290  0.3032  0.1032
 6982TIP3    H145141   0.896   4.169   0.427 -0.7948  0.3570 -0.3997
 6982TIP3    H245142   0.915   4.251   0.302 -1.9608  1.5169  0.1534
 6983TIP3   OH245143   3.476   0.786   0.837 -0.6147  0.0637  0.4668
 6983TIP3    H145144   3.533   0.835   0.777 -0.2481 -1.1898 -0.2393
 6983TIP3    H245145   3.415   0.740   0.780 -0.1180 -1.3320  1.0191
 6984TIP3   OH245146   5.800   6.249   8.527 -0.0464 -0.1067 -0.4465
 6984TIP3    H145147   5.799   6.344   8.537 -0.8113 -0.3621  2.6748
 6984TIP3    H245148   5.760   6.233   8.441  0.8361  2.3606 -1.3969
 6985TIP3   OH245149   5.527   6.092   8.591  0.5496  0.2947 -0.0959
 6985TIP3    H145150   5.467   6.126   8.658 -0.8994  0.2946 -1.3526
 6985TIP3    H245151   5.584   6.166   8.571  1.0887  0.2654  1.1825
 6986TIP3   OH245152   4.323   0.762   8.886 -0.5687 -0.2416  0.1277
 6986TIP3    H145153   4.313   0.691   8.823 -0.5052 -1.1520  1.1095
 6986TIP3    H245154   4.272   0.834   8.850 -0.4045 -0.6825 -1.0257
 6987TIP3   OH245155   0.756   7.146   8.238  0.3571  0.5512 -0.0281
 6987TIP3    H145156   0.677   7.111   8.279 -0.7536  0.9273 -1.7446
 6987TIP3    H245157   0.823   7.078   8.253 -0.8561 -0.7695 -0.3660
 6988TIP3   OH245158   0.551   1.067   0.737  0.1022 -0.0835  0.3672
 6988TIP3    H145159   0.579   0.990   0.786 -1.0573 -0.3261  0.6790
 6988TIP3    H245160   0.472   1.097   0.783 -0.9928 -0.2824 -1.3005
 6989TIP3   OH245161   0.309   4.009   9.001  0.1678  0.3884 -0.5534
 6989TIP3    H145162   0.389   4.059   8.990  0.0324  1.4439  2.3558
 6989TIP3    H245163   0.260   4.024   8.920  2.4107  0.5518 -1.9650
 6990TIP3   OH245164   0.747   4.602   9.861  0.0541  0.4780  0.0921
 6990TIP3    H145165   0.843   4.597   9.858  0.0445  0.6341 -0.7703
 6990TIP3    H245166   0.720   4.589   9.770 -0.7210  0.9545  0.2474
 6991TIP3   OH245167   5.900   5.465   8.050 -0.0659  0.1949 -0.2540
 6991TIP3    H145168   5.983   5.511   8.059  0.5264 -0.4197 -2.0496
 6991TIP3    H245169   5.836   5.534   8.031  0.0347  0.6499  0.9700
 6992TIP3   OH245170   1.570   2.758   7.192  0.0443 -0.1523  0.1971
 6992TIP3    H145171   1.607   2.686   7.243 -0.3163 -0.1931  0.4080
 6992TIP3    H245172   1.478   2.734   7.179 -0.8143  1.4400  2.5256
 6993TIP3   OH245173   4.115   1.863   9.955 -0.3252 -0.4085 -0.1822
 6993TIP3    H145174   4.157   1.783   9.988  0.2889  0.0073  0.0608
 6993TIP3    H245175   4.024   1.855   9.983 -0.6285 -1.7038 -1.4027
 6994TIP3   OH245176   6.205   2.091   2.044 -0.5107  0.0307  0.2969
 6994TIP3    H145177   6.147   2.155   2.085 -0.4901  0.1137  0.1987
 6994TIP3    H245178   6.212   2.121   1.953 -0.4646 -0.0854  0.2622
 6995TIP3   OH245179   3.445   7.321   1.866 -0.0976 -0.2372 -0.0611
 6995TIP3    H145180   3.527   7.331   1.915  0.0024  0.8015 -0.4369
 6995TIP3    H245181   3.400   7.250   1.911  0.1651  0.4402  1.3241
 6996TIP3   OH245182   0.569   6.618   8.172 -0.1739  0.2340  0.0373
 6996TIP3    H145183   0.636   6.678   8.138 -0.5420  1.6106  1.6018
 6996TIP3    H245184   0.604   6.589   8.256 -0.2407 -1.3900 -0.4669
 6997TIP3   OH245185   6.836   1.755   0.414 -0.1430 -0.1894 -0.0655
 6997TIP3    H145186   6.757   1.795   0.451 -1.1685 -1.3708 -0.9201
 6997TIP3    H245187   6.899   1.755   0.486 -1.1243  0.2333  0.8063
 6998TIP3   OH245188   2.137   6.703   8.268 -0.0676 -0.0699 -0.3053
 6998TIP3    H145189   2.062   6.725   8.213  1.1628  2.4473 -1.1504
 6998TIP3    H245190   2.100   6.693   8.356 -1.3232  2.3828 -0.4586
 6999TIP3   OH245191   7.101   4.106   8.803  0.4133  0.2111  0.6080
 6999TIP3    H145192   7.124   4.083   8.713  1.9634  1.4656  0.6308
 6999TIP3    H245193   7.109   4.201   8.806 -3.1583  0.6228  1.1781
 7000TIP3   OH245194   5.379   2.104   0.402 -0.5398 -0.6105 -1.1821
 7000TIP3    H145195   5.297   2.145   0.428  0.8540  2.2694 -0.9097
 7000TIP3    H245196   5.409   2.155   0.327  1.1095 -1.4446 -1.1418
 7001TIP3   OH245197   1.345   4.131   8.203  0.7062  0.4370 -0.2816
 7001TIP3    H145198   1.441   4.123   8.203  0.8296  1.6243  0.4147
 7001TIP3    H245199   1.328   4.207   8.259 -0.7088 -0.3795  0.4298
 7002TIP3   OH245200   3.066   2.950   1.187  0.5518 -0.2053  0.0228
 7002TIP3    H145201   3.018   2.938   1.106  2.7480  2.9117 -2.0038
 7002TIP3    H245202   3.145   2.897   1.176  1.2675  0.9001 -0.3548
 7003TIP3   OH245203   4.691   0.732   1.710 -0.7015 -0.2865 -0.5149
 7003TIP3    H145204   4.711   0.739   1.616 -0.1624  1.8660 -0.2823
 7003TIP3    H245205   4.744   0.799   1.751  0.7478 -2.6021  1.6614
 7004TIP3   OH245206   1.635   5.858   0.949 -0.3509 -0.2554 -0.0145
 7004TIP3    H145207   1.729   5.863   0.969 -0.5871 -1.9621  1.8186
 7004TIP3    H245208   1.631   5.856   0.853  1.2542  2.7614 -0.2556
 7005TIP3   OH245209   3.234   0.391   8.679  0.4298  0.2802 -0.0821
 7005TIP3    H145210   3.245   0.478   8.641  3.6366  0.2262  0.4619
 7005TIP3    H245211   3.246   0.404   8.773 -0.4448 -0.5802  0.1648
 7006TIP3   OH245212   7.576   1.342   9.574 -0.4754  0.1799 -0.0851
 7006TIP3    H145213   7.536   1.417   9.619 -0.2500 -1.0568  2.3728
 7006TIP3    H245214   7.655   1.377   9.534 -1.6186  1.7192 -1.1113
 7007TIP3   OH245215   1.579   6.538   0.143  0.0511  0.1265  0.3229
 7007TIP3    H145216   1.532   6.619   0.123 -0.5340 -0.2072  0.3178
 7007TIP3    H245217   1.656   6.541   0.086  0.4713  1.0660  0.9202
 7008TIP3   OH245218   1.806   1.779   1.215  0.1622  0.5006 -0.0677
 7008TIP3    H145219   1.763   1.708   1.263  0.4135  1.3141  1.3867
 7008TIP3    H245220   1.806   1.853   1.275  2.5832  0.8760 -0.4192
 7009TIP3   OH245221   6.425   0.333   2.801  0.4752  0.8142  0.8141
 7009TIP3    H145222   6.505   0.347   2.852  1.2723 -2.0519  0.5462
 7009TIP3    H245223   6.354   0.354   2.862  1.4350 -0.2063  2.3647
 7010TIP3   OH245224   1.453   0.356   2.315 -0.0204  0.2814  0.3034
 7010TIP3    H145225   1.460   0.440   2.358  2.4074 -0.3203  1.2520
 7010TIP3    H245226   1.537   0.345   2.269  0.3188 -2.1579  1.3315
 7011TIP3   OH245227   2.882   6.038   7.492 -0.8979  0.1916 -0.0521
 7011TIP3    H145228   2.846   6.102   7.430 -0.9943 -0.2435 -0.4481
 7011TIP3    H245229   2.939   6.089   7.549 -2.0965  0.9009  0.5638
 7012TIP3   OH245230   7.235   6.088   0.843 -0.2282 -0.0764 -0.1135
 7012TIP3    H145231   7.195   6.161   0.891  0.5506 -0.4222  1.1307
 7012TIP3    H245232   7.312   6.127   0.801 -0.5764  0.1005 -0.5961
 7013TIP3   OH245233   5.684   2.417   1.392  0.1858 -0.3748 -0.1861
 7013TIP3    H145234   5.775   2.448   1.397  0.6194 -1.4244 -1.0459
 7013TIP3    H245235   5.673   2.364   1.470  0.8188 -1.4625 -0.8128
 7014TIP3   OH245236   0.991   1.905   8.237 -0.1990 -0.4635 -0.6469
 7014TIP3    H145237   1.062   1.889   8.299  0.2043  0.9002 -0.7374
 7014TIP3    H245238   1.031   1.892   8.151 -0.3543 -0.7746 -0.6758
 7015TIP3   OH245239   1.265   1.533   8.536  0.4337 -0.2616 -0.5552
 7015TIP3    H145240   1.313   1.479   8.472  0.4785 -1.2336  0.2688
 7015TIP3    H245241   1.330   1.595   8.569  0.4823  0.0590 -1.2329
 7016TIP3   OH245242   1.231   3.559   9.891  0.3836  0.1576  0.1337
 7016TIP3    H145243   1.301   3.614   9.856 -0.1361  1.1793  0.6275
 7016TIP3    H245244   1.243   3.474   9.849 -0.1109  1.2422 -2.4272
 7017TIP3   OH245245   6.439   0.967   9.745  0.0035 -0.6787 -0.8785
 7017TIP3    H145246   6.458   0.887   9.695  0.7710  0.2217 -2.0674
 7017TIP3    H245247   6.485   1.037   9.699 -0.5999  0.4652  0.1726
 7018TIP3   OH245248   6.520   0.576   1.118 -0.4553  0.1164  0.1161
 7018TIP3    H145249   6.509   0.667   1.090  1.0714 -0.2980 -2.0795
 7018TIP3    H245250   6.445   0.559   1.176 -1.2178  2.4970 -0.0763
 7019TIP3   OH245251   5.098   7.514   3.215  0.4589 -0.2374  0.2787
 7019TIP3    H145252   5.004   7.530   3.218  0.2812 -1.3228  1.0994
 7019TIP3    H245253   5.127   7.557   3.134 -0.7423  0.0606 -0.0147
 7020TIP3   OH245254   3.227   2.288   8.410 -0.2816 -0.1592  0.1076
 7020TIP3    H145255   3.279   2.260   8.485  2.1591 -0.2414 -1.5080
 7020TIP3    H245256   3.263   2.374   8.385 -1.3336  0.0785 -0.7180
 7021TIP3   OH245257   1.586   1.544   6.729  0.6642  0.7763  0.1603
 7021TIP3    H145258   1.515   1.479   6.736  0.5129  0.7141 -1.4495
 7021TIP3    H245259   1.616   1.535   6.638  2.1902  1.3783  0.5918
 7022TIP3   OH245260   1.392   1.367   6.809  0.5493 -0.0119  0.4107
 7022TIP3    H145261   1.344   1.295   6.768  3.1384  0.3368 -3.8994
 7022TIP3    H245262   1.453   1.325   6.870  1.1725 -1.4352 -1.1272
 7023TIP3   OH245263   5.803   5.627   9.605 -0.2689  0.1784 -0.0295
 7023TIP3    H145264   5.831   5.589   9.688  0.2602  1.0002  0.1837
 7023TIP3    H245265   5.708   5.635   9.613  0.0089  2.9109  1.7107
 7024TIP3   OH245266   1.917   0.359   1.316 -0.0802  0.1203 -0.7396
 7024TIP3    H145267   2.002   0.316   1.324  0.8946  1.5759 -2.5840
 7024TIP3    H245268   1.925   0.415   1.239 -2.5216  0.7757 -0.6074
 7025TIP3   OH245269   2.565   5.423   0.447  0.1929  0.3019 -0.0884
 7025TIP3    H145270   2.501   5.457   0.385 -0.3630  0.4064  0.5269
 7025TIP3    H245271   2.591   5.499   0.499 -0.3760 -0.0254  0.6984
 7026TIP3   OH245272   2.557   6.641   9.305  0.6895 -0.0832 -0.5298
 7026TIP3    H145273   2.554   6.605   9.393 -1.2653 -0.6004 -0.7545
 7026TIP3    H245274   2.592   6.570   9.251 -1.6019 -1.1591 -0.7090
 7027TIP3   OH245275   3.250   3.851   9.393 -0.0433  0.1921 -0.1444
 7027TIP3    H145276   3.333   3.899   9.395 -0.1091  0.3132  1.9600
 7027TIP3    H245277   3.190   3.908   9.346  0.8872  0.3720 -1.1694
 7028TIP3   OH245278   6.801   5.052   0.422 -0.2910  0.0041  0.2379
 7028TIP3    H145279   6.842   5.076   0.506 -1.6801 -0.4954  1.0880
 7028TIP3    H245280   6.841   4.968   0.400  1.2007  0.8399 -0.4097
 7029TIP3   OH245281   1.343   7.248   9.423 -0.3070 -0.2075 -0.0376
 7029TIP3    H145282   1.339   7.153   9.423  1.1622 -0.3513 -2.1494
 7029TIP3    H245283   1.255   7.276   9.400 -0.5313 -1.1111 -0.3082
 7030TIP3   OH245284   3.859   0.590   7.674 -0.0488  0.3732 -0.3891
 7030TIP3    H145285   3.869   0.654   7.744  2.2917  1.2342 -1.3785
 7030TIP3    H245286   3.920   0.520   7.697  0.6430  0.6000 -1.4340
 7031TIP3   OH245287   1.086   2.875   2.416 -0.4517  0.4832 -0.9395
 7031TIP3    H145288   1.069   2.969   2.424  0.6028  0.6038  0.1522
 7031TIP3    H245289   1.101   2.861   2.323  0.1811  1.5528 -1.0083
 7032TIP3   OH245290   7.382   7.617   8.291  0.1441 -0.2811  0.0127
 7032TIP3    H145291   7.324   7.592   8.362 -1.2815  2.5313 -0.0309
 7032TIP3    H245292   7.428   7.695   8.324  0.5355  0.2020 -1.5874
 7033TIP3   OH245293   2.383   1.022   8.830  0.1655 -0.2137 -0.3959
 7033TIP3    H145294   2.379   0.996   8.738 -0.0741 -1.3304 -0.0903
 7033TIP3    H245295   2.367   0.941   8.878 -0.0931  0.4289  0.6283
 7034TIP3   OH245296   0.865   6.804   3.051  0.4367  0.1463 -0.5807
 7034TIP3    H145297   0.914   6.799   3.133 -0.2976 -0.1490 -0.1456
 7034TIP3    H245298   0.786   6.752   3.068  0.6280 -0.5307 -1.7279
 7035TIP3   OH245299   6.967   7.635   8.855  0.1317  1.0062 -0.8425
 7035TIP3    H145300   6.964   7.724   8.892 -0.2525  0.9699 -0.7743
 7035TIP3    H245301   6.875   7.616   8.833 -0.1388 -0.1776  1.0709
 7036TIP3   OH245302   6.867   1.434   8.279 -0.0320  0.0762 -0.0545
 7036TIP3    H145303   6.892   1.521   8.248  0.0703  0.0307 -0.0978
 7036TIP3    H245304   6.853   1.383   8.199 -2.1649  0.6333 -0.0874
 7037TIP3   OH245305   4.276   1.403   8.893  0.1772  0.7051 -0.1452
 7037TIP3    H145306   4.330   1.472   8.856  1.1421 -1.0274 -2.2460
 7037TIP3    H245307   4.335   1.353   8.949 -0.0811  0.6225  0.0576
 7038TIP3   OH245308   3.081   6.060   1.047  0.0972  0.1403 -0.2239
 7038TIP3    H145309   3.008   6.112   1.013 -0.0582 -0.2397 -0.4776
 7038TIP3    H245310   3.042   5.976   1.070  0.6628 -0.4870 -1.4738
 7039TIP3   OH245311   4.992   5.426   0.190  0.8290 -0.2906 -0.4275
 7039TIP3    H145312   4.901   5.454   0.181  0.6120 -1.2088 -1.2119
 7039TIP3    H245313   4.986   5.333   0.213  1.5660 -0.5095 -1.0819
 7040TIP3   OH245314   4.441   4.299   9.913  0.0844 -0.6576  0.7098
 7040TIP3    H145315   4.443   4.223   9.853  2.5745 -1.4142  1.6096
 7040TIP3    H245316   4.385   4.270   9.985 -1.6384 -0.3431 -0.4340
 7041TIP3   OH245317   5.012   6.660   7.961  0.4258  0.2377  0.3203
 7041TIP3    H145318   4.988   6.576   8.002  0.1329  0.6127  0.9264
 7041TIP3    H245319   4.945   6.721   7.990 -0.4307  0.2944 -1.6159
 7042TIP3   OH245320   6.514   4.171   7.727  0.4672 -0.0648 -0.6478
 7042TIP3    H145321   6.523   4.076   7.734  0.1562  0.0001  1.1209
 7042TIP3    H245322   6.494   4.200   7.816 -3.4810  1.2566 -1.7346
 7043TIP3   OH245323   6.954   7.286   0.178  0.1240 -0.2346 -0.3951
 7043TIP3    H145324   6.900   7.329   0.112  0.4028  0.6158 -0.0722
 7043TIP3    H245325   6.907   7.204   0.196 -1.5213  0.8296  0.4657
 7044TIP3   OH245326   7.581   3.233   9.361  0.2786 -0.0926  0.0650
 7044TIP3    H145327   7.642   3.159   9.361 -0.6974 -0.9818 -2.2104
 7044TIP3    H245328   7.494   3.193   9.367 -0.2611  0.8540 -1.0508
 7045TIP3   OH245329   7.315   3.353   1.347  0.2824 -0.2587 -0.2855
 7045TIP3    H145330   7.304   3.388   1.259  1.2108  3.0916  0.7762
 7045TIP3    H245331   7.391   3.295   1.341 -0.6416 -1.3776 -1.9522
 7046TIP3   OH245332   2.842   0.488   9.766  0.1606 -0.0882 -0.3963
 7046TIP3    H145333   2.802   0.411   9.806  0.5382  0.7116  1.6550
 7046TIP3    H245334   2.935   0.466   9.757  0.8347  1.0024  2.7710
 7047TIP3   OH245335   3.526   3.654   9.282 -0.1732 -0.1081  0.5165
 7047TIP3    H145336   3.515   3.747   9.262 -2.7994 -0.7518 -1.6511
 7047TIP3    H245337   3.468   3.638   9.357  0.4080  0.0152  0.9976
 7048TIP3   OH245338   5.217   5.142   8.257  0.1274 -0.1453  0.0232
 7048TIP3    H145339   5.172   5.080   8.199  0.2769 -0.3298  0.1042
 7048TIP3    H245340   5.149   5.171   8.318  0.0669 -0.2612  0.0120
 7049TIP3   OH245341   3.698   0.664   0.628 -0.1280  0.5737 -0.3710
 7049TIP3    H145342   3.793   0.661   0.619  0.1327  1.8478  1.2870
 7049TIP3    H245343   3.674   0.749   0.590 -0.3385  1.0414  0.7485
 7050TIP3   OH245344   2.431   4.963   8.645  0.5487 -0.2871 -0.1866
 7050TIP3    H145345   2.393   5.005   8.567 -0.1150 -0.2796  0.1373
 7050TIP3    H245346   2.452   5.036   8.703 -0.3562 -0.3667  0.2633
 7051TIP3   OH245347   3.834   6.770   1.087 -0.5595  0.4817 -0.0797
 7051TIP3    H145348   3.834   6.681   1.053 -0.3324  0.3426  0.2779
 7051TIP3    H245349   3.862   6.761   1.178  2.0512  1.1801 -0.7422
 7052TIP3   OH245350   7.542   4.247   2.209 -0.0857  0.0035  0.2571
 7052TIP3    H145351   7.579   4.299   2.138  0.4390  1.4084  1.5004
 7052TIP3    H245352   7.593   4.272   2.286 -1.8964  0.0069  1.5232
 7053TIP3   OH245353   1.503   7.358   7.032 -0.4265  0.0935 -0.0482
 7053TIP3    H145354   1.546   7.311   6.961 -0.9078  0.4232 -0.5690
 7053TIP3    H245355   1.438   7.413   6.988 -0.9987  0.0096  0.6823
 7054TIP3   OH245356   6.226   1.657   2.009  0.0401  0.4595  0.4367
 7054TIP3    H145357   6.134   1.635   2.026  0.2378 -1.3298 -0.5635
 7054TIP3    H245358   6.223   1.724   1.941 -0.5341 -0.5515 -0.5679
 7055TIP3   OH245359   6.579   5.932   8.202  0.1645 -0.0287  0.1744
 7055TIP3    H145360   6.674   5.918   8.203  0.2593  0.5809  0.3537
 7055TIP3    H245361   6.555   5.939   8.294 -0.3065 -1.6950  0.2097
 7056TIP3   OH245362   3.987   2.399   0.974  0.0414 -0.2856 -0.2772
 7056TIP3    H145363   3.907   2.359   0.939 -1.6169  0.7041  2.0684
 7056TIP3    H245364   3.961   2.488   0.997  1.6468 -0.1099  1.0957
 7057TIP3   OH245365   5.394   4.223   9.745 -0.3964 -0.7557  0.4584
 7057TIP3    H145366   5.359   4.310   9.765  0.4129 -0.0373 -1.0806
 7057TIP3    H245367   5.474   4.240   9.696 -0.8461 -2.3795 -0.9397
 7058TIP3   OH245368   2.141   5.925   8.172  0.1919 -0.1831  0.4082
 7058TIP3    H145369   2.171   5.991   8.234  0.2401  1.0827 -0.9282
 7058TIP3    H245370   2.078   5.970   8.116  0.5279 -1.1381 -0.8010
 7059TIP3   OH245371   1.053   4.066   1.247 -0.2566 -0.3605 -0.0689
 7059TIP3    H145372   1.025   4.115   1.325  0.1495 -0.7609  0.3320
 7059TIP3    H245373   1.148   4.059   1.255 -0.3995 -2.2373  0.5165
 7060TIP3   OH245374   2.864   6.554   2.499 -0.1842  0.2358 -0.5041
 7060TIP3    H145375   2.826   6.490   2.439  0.5437 -0.4398 -0.2620
 7060TIP3    H245376   2.831   6.639   2.468 -1.5517 -0.2790 -0.5358
 7061TIP3   OH245377   2.652   3.568   0.634  0.3226 -0.4061  0.5931
 7061TIP3    H145378   2.582   3.590   0.695 -0.5675  1.0947 -0.8879
 7061TIP3    H245379   2.620   3.490   0.588 -0.4140  0.2798 -0.0857
 7062TIP3   OH245380   4.828   4.280   9.742 -0.4065  0.4709  0.1996
 7062TIP3    H145381   4.796   4.195   9.773  0.0766  1.3614  3.4868
 7062TIP3    H245382   4.921   4.266   9.724 -0.4347  0.2049  0.2609
 7063TIP3   OH245383   0.572   1.027   7.556  0.4113 -0.1645 -0.5057
 7063TIP3    H145384   0.574   1.006   7.462 -0.9454 -0.2498 -0.5367
 7063TIP3    H245385   0.633   0.964   7.596  0.3025 -0.7352 -1.2177
 7064TIP3   OH245386   1.041   2.494   1.994 -0.5202 -0.0296  0.9115
 7064TIP3    H145387   0.972   2.430   2.010 -0.9604 -0.5336 -2.3225
 7064TIP3    H245388   1.121   2.443   1.989 -0.6183 -0.1190  0.0877
 7065TIP3   OH245389   5.337   0.074   1.184  0.2059 -0.0100 -0.2764
 7065TIP3    H145390   5.242   0.069   1.173  0.2319 -2.5366  0.0646
 7065TIP3    H245391   5.350   0.147   1.245 -1.8331 -1.4995  2.1629
 7066TIP3   OH245392   1.911   0.368   2.983  0.3347 -0.0020  0.3380
 7066TIP3    H145393   1.876   0.437   3.038 -0.3178 -0.1124  0.0680
 7066TIP3    H245394   1.840   0.304   2.976  0.9159 -0.6926  0.5647
 7067TIP3   OH245395   3.114   2.974   2.749 -0.1552  0.3447 -0.6367
 7067TIP3    H145396   3.137   2.919   2.823  1.7888 -0.5107 -1.8060
 7067TIP3    H245397   3.043   3.029   2.781 -1.1437 -1.7670  1.0619
 7068TIP3   OH245398   1.711   2.316   2.652  0.1559  0.3941  0.3816
 7068TIP3    H145399   1.674   2.324   2.740  0.3094  1.9418  0.3301
 7068TIP3    H245400   1.748   2.402   2.633  2.5829 -0.6687 -0.1262
 7069TIP3   OH245401   4.718   3.355   8.610  0.1735  0.0079  0.3614
 7069TIP3    H145402   4.759   3.432   8.573 -0.5524 -0.1143 -0.7500
 7069TIP3    H245403   4.764   3.281   8.570 -1.2785 -0.1342 -1.1691
 7070TIP3   OH245404   5.334   4.437   8.793  0.1829 -0.1177 -0.1851
 7070TIP3    H145405   5.318   4.403   8.705 -1.2469  1.7438 -0.6976
 7070TIP3    H245406   5.248   4.463   8.826  1.0254  2.1221  0.4808
 7071TIP3   OH245407   1.575   4.247   8.601 -0.2794 -0.1449 -0.1203
 7071TIP3    H145408   1.652   4.191   8.610 -1.6315 -2.0235  0.3022
 7071TIP3    H245409   1.571   4.296   8.684  0.5102  0.0514 -0.1942
 7072TIP3   OH245410   3.430   3.017   3.532 -0.5999 -0.2410  0.2720
 7072TIP3    H145411   3.341   3.046   3.516 -1.3729 -1.7965  1.4853
 7072TIP3    H245412   3.423   2.922   3.546  1.5416 -0.8280 -1.8158
 7073TIP3   OH245413   1.906   7.083   1.060  0.2388 -0.3158  0.4930
 7073TIP3    H145414   1.978   7.029   1.028 -0.3867 -0.2770 -1.0448
 7073TIP3    H245415   1.852   7.024   1.112  0.4349 -0.7857  0.1694
 7074TIP3   OH245416   6.790   3.691   8.333 -0.3802 -0.1626 -0.0927
 7074TIP3    H145417   6.800   3.743   8.413  0.7204 -0.1841 -0.1950
 7074TIP3    H245418   6.878   3.656   8.316 -0.6898 -0.5033 -1.0777
 7075TIP3   OH245419   6.343   6.789   7.563  0.5487 -0.7427  0.5809
 7075TIP3    H145420   6.295   6.816   7.641 -0.4669 -1.9915  0.4238
 7075TIP3    H245421   6.328   6.859   7.500 -0.8505 -0.9638  0.6325
 7076TIP3   OH245422   0.927   4.621   7.473  0.3310  0.1068 -0.3438
 7076TIP3    H145423   0.921   4.657   7.562  2.3009 -0.9905  0.2960
 7076TIP3    H245424   0.841   4.639   7.434 -0.9694 -0.2706  2.1243
 7077TIP3   OH245425   6.507   6.779   8.356  0.2984 -0.7469 -0.0560
 7077TIP3    H145426   6.435   6.809   8.300  1.8050  2.2801 -0.5693
 7077TIP3    H245427   6.585   6.791   8.303  1.7815  2.0607  2.4784
 7078TIP3   OH245428   1.993   0.500   8.549  0.2869 -0.6473 -0.1956
 7078TIP3    H145429   1.994   0.475   8.641  0.9085  0.7516  0.2037
 7078TIP3    H245430   1.922   0.564   8.542 -0.2183 -1.2620 -0.8476
 7079TIP3   OH245431   1.358   5.563   9.063 -0.6241  0.3282  0.0998
 7079TIP3    H145432   1.434   5.539   9.010 -0.1472  0.0604  0.8972
 7079TIP3    H245433   1.383   5.645   9.105 -0.2109 -0.4564  1.4544
 7080TIP3   OH245434   0.353   4.053   0.256 -0.5284 -0.0976  0.1628
 7080TIP3    H145435   0.315   4.109   0.189  1.1799  0.6646 -0.2165
 7080TIP3    H245436   0.447   4.058   0.242 -0.2543 -2.2751  0.7680
 7081TIP3   OH245437   3.875   0.684   0.293 -0.1904  0.3189  0.3322
 7081TIP3    H145438   3.844   0.697   0.204 -1.0955 -0.8908  0.4559
 7081TIP3    H245439   3.964   0.721   0.293  0.3622 -0.8798 -1.4353
 7082TIP3   OH245440   0.175   1.046   7.422  0.2044  0.1086 -0.3891
 7082TIP3    H145441   0.136   1.089   7.498  0.2323  0.6984 -0.6973
 7082TIP3    H245442   0.121   1.073   7.348  0.1037 -0.5605 -0.5651
 7083TIP3   OH245443   5.885   7.328   9.442  0.1218  0.3511  0.0033
 7083TIP3    H145444   5.820   7.259   9.430  2.6150 -2.4379  1.3569
 7083TIP3    H245445   5.947   7.315   9.370  0.1964  1.8095 -0.2328
 7084TIP3   OH245446   1.233   0.700   8.946  0.1906 -0.4129 -0.5983
 7084TIP3    H145447   1.186   0.723   9.026  0.5996 -0.6680 -0.2800
 7084TIP3    H245448   1.211   0.770   8.885  0.3436  0.1087 -0.0730
 7085TIP3   OH245449   5.627   0.277   0.600 -0.1873 -0.3071  0.2037
 7085TIP3    H145450   5.550   0.326   0.628 -0.1225 -0.0518 -0.0561
 7085TIP3    H245451   5.695   0.300   0.663  0.0489  0.5186 -0.3432
 7086TIP3   OH245452   2.753   0.892   9.407 -0.3226 -0.1969  0.2803
 7086TIP3    H145453   2.699   0.907   9.329  2.3770  2.1573 -1.3127
 7086TIP3    H245454   2.767   0.979   9.444 -0.2208 -1.0979  2.5545
 7087TIP3   OH245455   2.337   5.746   9.166  0.0310 -0.2284 -0.5902
 7087TIP3    H145456   2.365   5.655   9.158 -0.7004 -0.3659 -1.9075
 7087TIP3    H245457   2.241   5.741   9.175  0.0119  0.3947 -0.3642
 7088TIP3   OH245458   3.924   5.794   8.656 -0.3192  0.2971  0.0622
 7088TIP3    H145459   3.834   5.825   8.659  0.3105  2.1892  0.9707
 7088TIP3    H245460   3.959   5.830   8.574 -0.1745  0.1463  0.0560
 7089TIP3   OH245461   3.451   3.191   7.522 -0.0594 -0.2738 -0.1394
 7089TIP3    H145462   3.493   3.136   7.588 -1.0674 -1.0917 -0.1651
 7089TIP3    H245463   3.358   3.191   7.546 -0.5442 -1.0949 -1.8955
 7090TIP3   OH245464   7.279   6.638   9.384 -0.3292  0.1778  0.2303
 7090TIP3    H145465   7.290   6.592   9.301  0.5511 -0.6149  0.7486
 7090TIP3    H245466   7.212   6.704   9.368  0.5192  0.6935 -1.3648
 7091TIP3   OH245467   3.291   3.628   0.499  0.7797 -0.2482  0.5350
 7091TIP3    H145468   3.368   3.654   0.448 -0.5419  1.2242 -0.8422
 7091TIP3    H245469   3.249   3.711   0.523  0.1676 -0.9873  2.1369
 7092TIP3   OH245470   3.475   6.439   7.383  0.0769 -0.2497 -0.2564
 7092TIP3    H145471   3.491   6.497   7.308  0.3810  0.2526  0.1966
 7092TIP3    H245472   3.480   6.351   7.346  1.2573 -0.0410 -0.6376
 7093TIP3   OH245473   7.248   3.285   0.573  0.2313  0.4168 -0.3887
 7093TIP3    H145474   7.256   3.203   0.524  0.0412  0.1620  0.0040
 7093TIP3    H245475   7.210   3.259   0.657 -0.3397  0.9870 -0.4686
 7094TIP3   OH245476   5.708   5.677   0.276  0.2009  0.3689 -0.7724
 7094TIP3    H145477   5.638   5.627   0.233 -0.9159  1.0361  0.2065
 7094TIP3    H245478   5.788   5.653   0.229  0.0704 -3.7348  0.7520
 7095TIP3   OH245479   2.682   0.257   0.275  0.4952  0.5545 -0.3859
 7095TIP3    H145480   2.699   0.305   0.357  0.3556  0.8978 -0.5542
 7095TIP3    H245481   2.603   0.206   0.293 -0.2462  1.5642 -0.6892
 7096TIP3   OH245482   6.863   2.380   1.685 -0.2598 -0.2765  0.0775
 7096TIP3    H145483   6.818   2.418   1.609 -0.3681 -1.5667 -0.5317
 7096TIP3    H245484   6.798   2.380   1.755 -0.3393  0.3888  0.0075
 7097TIP3   OH245485   2.726   3.449   0.102  0.1199 -0.3370  0.7691
 7097TIP3    H145486   2.813   3.410   0.115  0.6089  0.3511 -0.2316
 7097TIP3    H245487   2.702   3.422   0.013 -0.5805 -0.3124  0.9510
 7098TIP3   OH245488   1.224   6.692   2.452  0.1476 -0.3906 -0.2007
 7098TIP3    H145489   1.274   6.765   2.490 -0.1529 -0.0477 -0.4598
 7098TIP3    H245490   1.287   6.646   2.397  0.8353 -1.4178  1.3845
 7099TIP3   OH245491   0.660   0.426   2.823 -0.4265  0.0945  0.9110
 7099TIP3    H145492   0.624   0.509   2.791 -0.6337  0.2447  1.5247
 7099TIP3    H245493   0.734   0.452   2.877 -0.8900 -0.0716  1.6475
 7100TIP3   OH245494   4.079   4.801   0.029 -0.3739  0.1392  0.5626
 7100TIP3    H145495   4.123   4.752   0.098  0.6195  0.7207  0.3713
 7100TIP3    H245496   4.056   4.736  -0.037  1.4681 -0.0255  0.0275
 7101TIP3   OH245497   3.934   4.153   7.701  0.3124 -0.3073  0.4931
 7101TIP3    H145498   3.916   4.146   7.607 -0.4553 -0.3393  0.6423
 7101TIP3    H245499   3.923   4.246   7.721  0.9820 -0.2111  0.4594
 7102TIP3   OH245500   5.328   1.024   6.974  0.3553  0.0034  0.0523
 7102TIP3    H145501   5.339   0.978   7.057 -1.5253  0.2038  0.4419
 7102TIP3    H245502   5.317   0.954   6.909  1.3054 -0.1394  0.0271
 7103TIP3   OH245503   2.075   0.612   1.900 -0.1991  0.0534 -0.1589
 7103TIP3    H145504   2.033   0.679   1.845  1.9556 -0.2072 -2.3251
 7103TIP3    H245505   2.117   0.553   1.837 -0.0986 -2.0437  1.7581
 7104TIP3   OH245506   2.846   2.320   8.349  0.5873 -0.1212 -0.1471
 7104TIP3    H145507   2.900   2.244   8.375 -2.0804 -1.7453  1.0876
 7104TIP3    H245508   2.858   2.383   8.420  2.8417  0.7447 -1.1888
 7105TIP3   OH245509   2.771   6.839   1.289  0.4347 -0.1880  0.0000
 7105TIP3    H145510   2.822   6.918   1.271 -1.1374  0.5929 -1.3066
 7105TIP3    H245511   2.740   6.850   1.378  1.6917 -0.2152  0.4685
 7106TIP3   OH245512   7.293   1.584   7.736 -0.5292  0.2459 -0.0857
 7106TIP3    H145513   7.350   1.656   7.710  1.0456 -1.3387 -1.3173
 7106TIP3    H245514   7.211   1.626   7.762 -0.3633  2.3801 -2.6031
 7107TIP3   OH245515   1.082   5.237   3.259  0.6149  0.3011 -0.1282
 7107TIP3    H145516   1.111   5.192   3.339 -1.9069  0.7642  1.1577
 7107TIP3    H245517   1.159   5.286   3.230  1.3201  1.1004  2.7311
 7108TIP3   OH245518   6.341   1.960   0.517 -0.3446  0.1047 -0.1055
 7108TIP3    H145519   6.245   1.957   0.522 -0.4055 -0.4615 -1.1955
 7108TIP3    H245520   6.363   2.052   0.534 -1.0061  0.0699  1.0475
 7109TIP3   OH245521   3.856   5.468   9.263  0.0208 -0.1462  0.0493
 7109TIP3    H145522   3.866   5.373   9.272 -0.6417 -0.1496  0.9348
 7109TIP3    H245523   3.944   5.500   9.243  0.1544 -0.9964 -0.8094
 7110TIP3   OH245524   2.131   1.290   2.812  0.2123 -0.6349  0.2525
 7110TIP3    H145525   2.219   1.327   2.809 -0.5455  1.1908 -0.6560
 7110TIP3    H245526   2.084   1.342   2.877 -0.5750 -0.7028 -0.2444
 7111TIP3   OH245527   1.706   0.424   2.788  0.6854  0.4062  0.5607
 7111TIP3    H145528   1.675   0.503   2.833 -1.0998  1.4233 -2.2573
 7111TIP3    H245529   1.730   0.454   2.701  0.6470 -2.0764 -0.3655
 7112TIP3   OH245530   6.372   2.356   7.673 -0.3032 -0.1673 -0.1022
 7112TIP3    H145531   6.428   2.421   7.714 -1.6731 -0.2208  2.0123
 7112TIP3    H245532   6.433   2.295   7.630  1.1000  0.9922  0.1791
 7113TIP3   OH245533   6.020   1.986   9.480  0.0936  0.2905  0.0434
 7113TIP3    H145534   6.082   2.059   9.479 -0.1845  0.5232 -0.3577
 7113TIP3    H245535   5.968   1.998   9.401 -0.9769  0.5271  0.7679
 7114TIP3   OH245536   1.844   2.549   2.720 -0.4665 -0.0855 -0.1825
 7114TIP3    H145537   1.895   2.474   2.749 -0.8133 -0.4997 -0.6431
 7114TIP3    H245538   1.869   2.619   2.781  1.7716  0.1549 -1.2824
 7115TIP3   OH245539   6.098   4.330   8.597  0.3854 -0.0702  0.1177
 7115TIP3    H145540   6.132   4.374   8.519 -0.0664  0.8487  0.4310
 7115TIP3    H245541   6.042   4.260   8.562 -0.7472  1.0520 -0.4008
 7116TIP3   OH245542   5.235   1.097   1.001  0.1750 -0.1957 -0.2469
 7116TIP3    H145543   5.261   1.159   0.933 -0.4586  1.1671  0.6979
 7116TIP3    H245544   5.311   1.093   1.059  0.1731 -0.1914 -0.2439
 7117TIP3   OH245545   7.352   7.541   0.701  0.6820  0.2944  0.2835
 7117TIP3    H145546   7.367   7.479   0.772 -0.3531 -0.3475 -0.0406
 7117TIP3    H245547   7.308   7.490   0.633  2.3771  0.6846 -1.1808
 7118TIP3   OH245548   7.374   6.483   1.697  0.2101  0.1529 -0.2072
 7118TIP3    H145549   7.289   6.525   1.684  0.6443  0.6782 -1.6057
 7118TIP3    H245550   7.387   6.432   1.617  1.1008 -0.1110  0.1000
 7119TIP3   OH245551   1.652   1.043   1.872  0.0971  0.2079  0.0297
 7119TIP3    H145552   1.656   0.968   1.932  0.2109 -0.3015 -0.6088
 7119TIP3    H245553   1.668   1.006   1.786  0.5839  1.0407 -0.2456
 7120TIP3   OH245554   7.159   7.539   9.699  0.2482 -0.1944 -0.2894
 7120TIP3    H145555   7.076   7.491   9.690  0.2495 -0.0298 -1.3835
 7120TIP3    H245556   7.199   7.533   9.612  1.4539 -0.3837  0.2603
 7121TIP3   OH245557   0.324   4.755   9.871 -0.1953  0.3335 -0.2015
 7121TIP3    H145558   0.375   4.685   9.829 -0.6132 -1.1711  1.6388
 7121TIP3    H245559   0.235   4.744   9.838 -0.1659  0.3035 -0.2705
 7122TIP3   OH245560   1.857   1.059   2.739  0.1974  0.2055  0.1291
 7122TIP3    H145561   1.763   1.075   2.738 -0.0497 -0.7222  2.2180
 7122TIP3    H245562   1.883   1.072   2.830  1.6099 -1.9399  0.1167
 7123TIP3   OH245563   7.226   0.710   1.994 -0.0118 -0.0113 -0.0424
 7123TIP3    H145564   7.196   0.793   2.029 -0.0051 -0.7672  1.8436
 7123TIP3    H245565   7.200   0.712   1.902 -3.0956  0.6739  0.7390
 7124TIP3   OH245566   5.926   1.482   0.851  0.2594  0.0629 -0.0250
 7124TIP3    H145567   5.848   1.519   0.892  0.6641 -0.7410  1.5260
 7124TIP3    H245568   5.898   1.395   0.821  0.6217 -0.3588  0.8261
 7125TIP3   OH245569   7.346   0.902   0.677 -0.0143  0.1917  0.3701
 7125TIP3    H145570   7.424   0.942   0.638  0.7035 -2.5854 -1.3000
 7125TIP3    H245571   7.281   0.973   0.676  0.2556  0.8394 -5.0343
 7126TIP3   OH245572   7.444   5.082   2.208 -0.2909 -0.2565  0.1870
 7126TIP3    H145573   7.413   5.062   2.296 -1.4276 -1.1869 -0.3990
 7126TIP3    H245574   7.516   5.021   2.193  0.6836  0.6845  0.8739
 7127TIP3   OH245575   5.750   0.214   8.665 -0.4184  0.0122  0.2982
 7127TIP3    H145576   5.691   0.140   8.678  1.1996 -1.3468  0.0718
 7127TIP3    H245577   5.817   0.204   8.732 -0.6806  1.8270  0.8828
 7128TIP3   OH245578   4.037   1.318   9.357  0.0314  0.2110  0.2786
 7128TIP3    H145579   4.121   1.364   9.363  0.8121 -0.8248 -1.7662
 7128TIP3    H245580   4.058   1.227   9.373 -0.3090 -0.3325 -1.9541
 7129TIP3   OH245581   6.781   6.387   8.775  0.0635 -0.1994  0.2643
 7129TIP3    H145582   6.757   6.350   8.690 -0.5841  0.9206 -0.0606
 7129TIP3    H245583   6.706   6.370   8.831 -0.3485  0.8308  0.0389
 7130TIP3   OH245584   3.423   5.659   2.935 -0.2223 -0.1987  0.3287
 7130TIP3    H145585   3.404   5.718   3.008 -1.9291 -0.1810 -0.0719
 7130TIP3    H245586   3.430   5.715   2.859 -1.7245 -0.4433 -0.0322
 7131TIP3   OH245587   4.769   4.286   8.112 -0.2474  0.5963 -0.0498
 7131TIP3    H145588   4.770   4.321   8.023  0.6502  2.9758  0.8082
 7131TIP3    H245589   4.783   4.192   8.102 -0.3589  0.7831 -2.4022
 7132TIP3   OH245590   0.645   4.845   1.153  0.3668 -0.3200  0.1388
 7132TIP3    H145591   0.656   4.752   1.133 -0.4978 -0.5268  0.5653
 7132TIP3    H245592   0.558   4.851   1.192 -0.9622  1.1103 -2.7017
 7133TIP3   OH245593   0.639   0.984   1.985  0.9219 -0.0420 -0.2260
 7133TIP3    H145594   0.625   1.002   1.892 -0.8826 -0.8275 -0.1421
 7133TIP3    H245595   0.595   1.057   2.030  0.6226 -0.3738  0.0207
 7134TIP3   OH245596   1.371   6.067   7.758  0.0102  0.5199 -0.2449
 7134TIP3    H145597   1.430   6.014   7.812  0.1093  3.0526  2.3765
 7134TIP3    H245598   1.420   6.148   7.741 -0.8306  0.6415 -2.4724
 7135TIP3   OH245599   0.791   3.287   1.653  0.7269  0.1268  0.1294
 7135TIP3    H145600   0.733   3.274   1.728 -2.5766 -1.4459 -2.4359
 7135TIP3    H245601   0.791   3.382   1.640  0.0419  0.2910  1.1973
 7136TIP3   OH245602   0.574   4.395   0.176  1.0742  0.0471 -0.0094
 7136TIP3    H145603   0.513   4.335   0.133  0.2103  0.1424  1.0408
 7136TIP3    H245604   0.547   4.482   0.147  1.5581  0.0064 -0.5851
 7137TIP3   OH245605   3.984   6.029   0.539 -0.3010 -0.1767 -0.6599
 7137TIP3    H145606   3.910   6.071   0.496  0.2334  2.6804  0.9421
 7137TIP3    H245607   4.060   6.082   0.512  0.4321 -0.1007  1.3623
 7138TIP3   OH245608   4.702   2.422   7.796  0.1224 -0.1655  0.1108
 7138TIP3    H145609   4.718   2.355   7.862  0.6296  0.0902  0.2427
 7138TIP3    H245610   4.756   2.395   7.721  0.7320  0.3764  0.3505
 7139TIP3   OH245611   3.689   2.249   1.332 -0.0234 -0.1929 -0.2611
 7139TIP3    H145612   3.639   2.319   1.291  0.5164  1.0691  1.1208
 7139TIP3    H245613   3.637   2.224   1.409  0.8466  0.2988  0.5129
 7140TIP3   OH245614   2.553   6.614   7.413  0.2477  0.0945 -0.1729
 7140TIP3    H145615   2.494   6.594   7.341 -0.2179 -0.6839  0.4185
 7140TIP3    H245616   2.534   6.705   7.435  0.4170  0.3541 -1.0395
 7141TIP3   OH245617   3.522   6.890   7.430  0.1011  0.1184  0.5246
 7141TIP3    H145618   3.500   6.839   7.509 -0.0215  0.4699  0.7231
 7141TIP3    H245619   3.617   6.891   7.428  0.1104 -0.6390  0.1739
 7142TIP3   OH245620   2.979   5.269   0.442 -0.0634  0.6676  0.8788
 7142TIP3    H145621   2.998   5.230   0.527  2.7728  0.3574  0.1941
 7142TIP3    H245622   3.001   5.201   0.378 -1.5849  1.0941 -0.1734
 7143TIP3   OH245623   1.895   0.323   7.934 -0.0903 -0.0036 -0.4102
 7143TIP3    H145624   1.916   0.324   8.028  1.3854  0.9128 -0.7096
 7143TIP3    H245625   1.940   0.246   7.900  0.0830  0.1331 -0.4955
 7144TIP3   OH245626   0.439   7.086   1.355 -0.3362 -0.0830  0.1620
 7144TIP3    H145627   0.356   7.134   1.341  0.2343  1.5667  1.9385
 7144TIP3    H245628   0.492   7.108   1.278 -0.5835  1.0776  0.3025
 7145TIP3   OH245629   4.622   5.219   7.116 -0.2258 -0.2291 -0.4669
 7145TIP3    H145630   4.700   5.180   7.077 -0.8555 -2.0559 -0.0349
 7145TIP3    H245631   4.558   5.222   7.045 -0.4934 -0.9590 -0.2670
 7146TIP3   OH245632   4.113   2.245   8.962 -0.2449  0.4268  0.5507
 7146TIP3    H145633   4.078   2.164   8.999  0.1021  0.0027 -0.0319
 7146TIP3    H245634   4.142   2.221   8.874 -0.3310  1.2342  0.2905
 7147TIP3   OH245635   3.685   6.031   1.904 -0.2811  0.1820 -0.5979
 7147TIP3    H145636   3.752   6.078   1.953  1.1384 -2.2608 -0.0073
 7147TIP3    H245637   3.720   6.026   1.815 -1.4603  2.0359 -1.2160
 7148TIP3   OH245638   5.134   0.289   9.006 -0.0908  0.3386  0.0912
 7148TIP3    H145639   5.130   0.323   8.917 -0.8103 -0.4512 -0.1914
 7148TIP3    H245640   5.196   0.347   9.051  0.9784  0.2050 -1.1460
 7149TIP3   OH245641   3.860   2.396   8.288  0.1228 -0.2258  0.2280
 7149TIP3    H145642   3.802   2.378   8.362  0.8700  0.7954  1.0806
 7149TIP3    H245643   3.947   2.401   8.326  0.8237 -1.7253 -1.0383
 7150TIP3   OH245644   4.124   1.999   1.065  0.3071  0.0379  0.1612
 7150TIP3    H145645   4.043   2.034   1.104  1.0834  3.0572 -0.6596
 7150TIP3    H245646   4.176   2.077   1.045  2.2092 -1.6586 -1.9850
 7151TIP3   OH245647   7.670   0.369   0.945 -0.3938 -0.0414 -0.1278
 7151TIP3    H145648   7.667   0.460   0.917 -1.1946  0.4644  1.4994
 7151TIP3    H245649   7.586   0.333   0.919 -0.5525  0.0239  0.2855
 7152TIP3   OH245650   0.971   2.440   0.761 -0.4122  0.0285  0.2843
 7152TIP3    H145651   1.031   2.367   0.749  1.6357  1.8828 -1.5311
 7152TIP3    H245652   0.984   2.468   0.851  2.0615  0.8303 -0.2671
 7153TIP3   OH245653   7.046   5.185   7.562  0.5404 -0.1442 -0.7072
 7153TIP3    H145654   6.997   5.203   7.643 -0.3848  0.7948 -1.4490
 7153TIP3    H245655   7.062   5.272   7.525 -2.0193 -0.5920 -3.2439
 7154TIP3   OH245656   1.092   5.706   9.811  0.3132 -0.0880 -0.1264
 7154TIP3    H145657   1.031   5.689   9.739  0.5896 -0.4368 -0.2805
 7154TIP3    H245658   1.178   5.680   9.776  0.5356  0.3021  0.1223
 7155TIP3   OH245659   3.086   4.322   0.533 -0.1027 -0.1823  0.0594
 7155TIP3    H145660   3.014   4.373   0.573 -0.3745  0.5005 -1.2432
 7155TIP3    H245661   3.165   4.357   0.574 -0.2412  1.7061 -1.1527
 7156TIP3   OH245662   1.781   5.155   1.566 -0.1280  0.0365 -0.4600
 7156TIP3    H145663   1.849   5.169   1.631 -0.4456  1.5277 -0.4115
 7156TIP3    H245664   1.744   5.242   1.551 -3.6632 -0.9679  1.3284
 7157TIP3   OH245665   3.014   7.481   1.380  0.2112  0.7902  0.1558
 7157TIP3    H145666   2.937   7.539   1.381  0.9934  1.9859 -2.0562
 7157TIP3    H245667   3.057   7.497   1.464 -0.9923  1.4371  0.6848
 7158TIP3   OH245668   4.411   1.037   2.355 -0.3713 -0.0754  0.0767
 7158TIP3    H145669   4.487   1.095   2.358 -0.8229  0.5060  1.4437
 7158TIP3    H245670   4.344   1.087   2.308 -0.7820  0.6030  1.3100
 7159TIP3   OH245671   2.378   3.979   8.987  0.1451  0.1110 -0.3691
 7159TIP3    H145672   2.333   4.063   8.985 -0.0463  0.0928  1.4151
 7159TIP3    H245673   2.466   3.999   9.017  0.5834 -0.1574 -1.4338
 7160TIP3   OH245674   0.697   1.701   0.661  0.0472  0.1306  0.3289
 7160TIP3    H145675   0.770   1.759   0.639  0.2608 -0.0834  0.4719
 7160TIP3    H245676   0.639   1.755   0.714  0.8872 -0.1542  1.5805
 7161TIP3   OH245677   1.962   4.236   9.139  0.1760  0.0766  0.2374
 7161TIP3    H145678   1.931   4.160   9.089 -0.4007 -0.0117  0.7242
 7161TIP3    H245679   1.909   4.235   9.219  0.4227  0.7821  0.4092
 7162TIP3   OH245680   1.866   0.303   0.939 -0.5100  0.2972 -0.5196
 7162TIP3    H145681   1.915   0.292   0.857 -0.3520 -0.3840 -0.3425
 7162TIP3    H245682   1.906   0.378   0.981  0.8532 -0.6546 -0.0595
 7163TIP3   OH245683   0.453   1.399   1.267 -0.4780 -0.2162 -0.1994
 7163TIP3    H145684   0.507   1.386   1.189 -0.0475 -1.5109  0.2958
 7163TIP3    H245685   0.381   1.454   1.237  0.0389 -0.1522 -1.3574
 7164TIP3   OH245686   7.002   6.511   1.000 -0.5950 -0.3476  0.0745
 7164TIP3    H145687   7.053   6.431   0.986 -0.6018 -0.2134 -0.7780
 7164TIP3    H245688   6.970   6.503   1.090  0.4649 -0.6962  0.4466
 7165TIP3   OH245689   4.366   6.908   2.037  0.1907  0.1830  0.1751
 7165TIP3    H145690   4.287   6.862   2.010 -0.0338  1.0049 -0.6094
 7165TIP3    H245691   4.430   6.888   1.968  1.3943 -2.2061  1.8173
 7166TIP3   OH245692   5.299   6.142   8.766  0.3017 -0.1204 -0.4513
 7166TIP3    H145693   5.341   6.159   8.850  1.0383 -1.0706 -0.6066
 7166TIP3    H245694   5.236   6.214   8.755  0.2326  0.0426  0.8744
 7167TIP3   OH245695   1.179   5.524   0.496 -0.3560 -0.0930  0.0195
 7167TIP3    H145696   1.145   5.577   0.424 -0.0516 -0.7849 -0.6518
 7167TIP3    H245697   1.260   5.567   0.522 -0.1716 -0.1563 -0.4394
 7168TIP3   OH245698   4.042   2.888   2.276  0.8979 -0.0331 -0.0194
 7168TIP3    H145699   4.062   2.795   2.285  0.3640  0.0428  3.0081
 7168TIP3    H245700   4.099   2.931   2.340  0.0537  1.5373 -0.2633
 7169TIP3   OH245701   6.570   6.187   8.116 -0.3896 -0.2618 -0.1800
 7169TIP3    H145702   6.494   6.228   8.158 -0.4241  0.6567 -1.0983
 7169TIP3    H245703   6.565   6.095   8.141 -1.2404 -0.0198  0.5891
 7170TIP3   OH245704   5.940   7.219   8.384 -0.3197 -0.2142 -0.5159
 7170TIP3    H145705   5.974   7.156   8.447 -0.8938  0.7074  0.7684
 7170TIP3    H245706   5.937   7.302   8.432 -1.0953  0.4459 -1.6538
 7171TIP3   OH245707   7.586   1.806   2.043 -0.3170 -0.4007 -0.2725
 7171TIP3    H145708   7.650   1.806   1.972  2.8524  0.2015  2.3614
 7171TIP3    H245709   7.596   1.720   2.084  0.4539  0.4827  1.4806
 7172TIP3   OH245710   1.883   5.531   0.448  0.0656  0.1967  0.1231
 7172TIP3    H145711   1.843   5.452   0.412  0.2380 -0.6993  1.7673
 7172TIP3    H245712   1.811   5.578   0.491  0.5316 -1.0698  2.4824
 7173TIP3   OH245713   3.457   3.936   9.232 -0.0876  0.0193 -0.4428
 7173TIP3    H145714   3.526   3.981   9.281  0.4244 -0.0346 -1.0897
 7173TIP3    H245715   3.468   3.968   9.142  0.0751 -1.1296 -0.8558
 7174TIP3   OH245716   5.687   2.273   8.959  0.0997  0.4888 -0.2771
 7174TIP3    H145717   5.614   2.310   9.008 -0.2649  0.7140 -0.9736
 7174TIP3    H245718   5.651   2.255   8.872  0.4067 -0.9916 -0.1254
 7175TIP3   OH245719   2.350   4.907   3.427  0.3555 -0.6723 -0.1697
 7175TIP3    H145720   2.326   4.999   3.434  1.3946 -0.4033  0.0814
 7175TIP3    H245721   2.414   4.904   3.356  1.0124 -1.0443  0.4174
 7176TIP3   OH245722   0.573   1.231   1.532 -0.5510  0.1126 -0.4059
 7176TIP3    H145723   0.566   1.281   1.451 -0.4481 -0.8708 -1.0318
 7176TIP3    H245724   0.482   1.223   1.563 -0.6646 -0.0734 -0.7800
 7177TIP3   OH245725   7.506   0.443   8.013  0.0327 -0.3229 -0.3041
 7177TIP3    H145726   7.508   0.375   8.079  1.1835 -0.1447 -0.1473
 7177TIP3    H245727   7.436   0.502   8.042 -0.4897 -1.0425 -0.0690
 7178TIP3   OH245728   0.169   3.802   0.310 -0.0749  0.5663 -0.4074
 7178TIP3    H145729   0.166   3.832   0.219  0.3649  1.9110  0.0047
 7178TIP3    H245730   0.081   3.822   0.344 -0.4334 -0.4814 -0.6905
 7179TIP3   OH245731   6.985   6.787   2.318  0.3700 -0.1085  1.0565
 7179TIP3    H145732   6.925   6.737   2.263  1.9052 -2.3250  1.2345
 7179TIP3    H245733   6.933   6.859   2.353 -1.6561 -0.8867 -0.2185
 7180TIP3   OH245734   1.697   6.674   1.471  0.4804  0.2713  0.3123
 7180TIP3    H145735   1.687   6.648   1.380 -1.4130  0.9018  0.2879
 7180TIP3    H245736   1.627   6.626   1.517  2.3621 -1.2666  1.7499
 7181TIP3   OH245737   5.040   0.573   8.585 -0.1490 -0.0649  0.4200
 7181TIP3    H145738   5.032   0.648   8.645  1.1384 -0.0991  0.6548
 7181TIP3    H245739   5.065   0.500   8.642  0.2771 -0.2872 -0.0528
 7182TIP3   OH245740   3.690   6.656   9.122  0.4975 -0.1279 -0.2097
 7182TIP3    H145741   3.695   6.694   9.210  0.3869  0.0680 -0.2873
 7182TIP3    H245742   3.645   6.572   9.135 -1.5976  0.9012 -0.3919
 7183TIP3   OH245743   2.874   5.801   9.209 -0.3836 -0.5709  0.5424
 7183TIP3    H145744   2.838   5.779   9.123  1.4239  0.6284 -0.5904
 7183TIP3    H245745   2.830   5.884   9.232  2.3964  1.6780 -1.5039
 7184TIP3   OH245746   0.816   0.456   9.980 -0.4400 -0.1278 -0.7783
 7184TIP3    H145747   0.753   0.432  10.047 -0.1780  0.3797 -0.3468
 7184TIP3    H245748   0.809   0.551   9.972  0.6650  0.0202 -0.3018
 7185TIP3   OH245749   2.582   2.556   9.938 -0.0422 -0.2058 -0.3363
 7185TIP3    H145750   2.664   2.547   9.986 -0.5934 -1.7476  0.3762
 7185TIP3    H245751   2.514   2.528  10.000 -1.1357  1.0703 -0.8922
 7186TIP3   OH245752   2.975   6.072   8.303  0.5171  0.5946 -0.3684
 7186TIP3    H145753   2.993   6.049   8.211  0.6463  1.2688 -0.5170
 7186TIP3    H245754   2.952   5.989   8.344  0.1780  0.3220 -1.0817
 7187TIP3   OH245755   0.829   7.071   0.652 -0.0620  0.6925 -0.0814
 7187TIP3    H145756   0.899   7.133   0.630  0.0540 -0.0872 -2.1598
 7187TIP3    H245757   0.875   6.993   0.682 -0.1632  1.1541  1.3105
 7188TIP3   OH245758   6.576   0.155   7.473 -0.8487 -0.3673 -0.1302
 7188TIP3    H145759   6.659   0.201   7.487 -0.8669 -0.0893 -0.8559
 7188TIP3    H245760   6.511   0.225   7.465 -1.2885 -0.6109  1.1988
 7189TIP3   OH245761   2.009   7.517   9.451  0.4682  0.5873  0.0183
 7189TIP3    H145762   2.033   7.479   9.536 -2.0737 -2.8981 -0.6178
 7189TIP3    H245763   1.976   7.604   9.473  2.0440  0.7170  2.2604
 7190TIP3   OH245764   3.457   2.728   0.277 -0.3709  0.2228 -0.0667
 7190TIP3    H145765   3.543   2.726   0.234  0.1746 -1.1793  1.0052
 7190TIP3    H245766   3.395   2.708   0.208  0.4695 -1.7534 -0.2987
 7191TIP3   OH245767   1.073   6.762   3.220 -0.0062 -0.1324  0.2541
 7191TIP3    H145768   1.131   6.796   3.289  0.6158  2.1807 -1.2758
 7191TIP3    H245769   1.129   6.704   3.168  1.2394  2.4299 -1.4766
 7192TIP3   OH245770   7.149   0.108   1.934  0.9401  0.4304  0.1300
 7192TIP3    H145771   7.210   0.048   1.977 -0.0193 -0.3125  0.4869
 7192TIP3    H245772   7.198   0.143   1.860  1.0538 -2.0585 -1.0922
 7193TIP3   OH245773   3.531   6.432   9.768 -0.5325  0.0072 -0.6670
 7193TIP3    H145774   3.468   6.421   9.840 -0.8248 -0.5149 -1.0008
 7193TIP3    H245775   3.580   6.511   9.791  0.1905 -0.7894  0.7336
 7194TIP3   OH245776   5.713   7.503   8.857  0.1853  0.5896  0.0867
 7194TIP3    H145777   5.758   7.432   8.811  0.3133 -1.2764  2.8689
 7194TIP3    H245778   5.624   7.471   8.871  0.0109  1.2913  0.6859
 7195TIP3   OH245779   0.862   2.366   1.765 -0.4840  0.0719 -0.1237
 7195TIP3    H145780   0.812   2.340   1.842  1.1155  0.4958  1.1149
 7195TIP3    H245781   0.938   2.309   1.766  0.8009  1.7134  0.0684
 7196TIP3   OH245782   1.921   3.653   9.311 -0.1241 -0.1027 -0.3423
 7196TIP3    H145783   1.897   3.578   9.367 -0.1820  0.8459  0.9595
 7196TIP3    H245784   1.976   3.707   9.368  0.6910  0.3892 -1.5697
 7197TIP3   OH245785   3.577   5.496   0.174 -0.0810 -0.1553 -0.3037
 7197TIP3    H145786   3.577   5.404   0.201 -0.0831 -0.4424 -1.2391
 7197TIP3    H245787   3.646   5.502   0.108  1.9432  1.1767  1.7958
 7198TIP3   OH245788   6.867   1.905   7.947 -0.2326  0.1451 -0.0672
 7198TIP3    H145789   6.779   1.944   7.951 -0.2951  0.2029 -1.4058
 7198TIP3    H245790   6.876   1.877   7.856  0.3966 -1.6515  0.5084
 7199TIP3   OH245791   1.302   4.252   7.267  0.6082  0.0030 -0.1341
 7199TIP3    H145792   1.239   4.323   7.262 -0.3799 -0.7822  0.6735
 7199TIP3    H245793   1.366   4.271   7.198 -1.1614  0.1955 -1.7838
 7200TIP3   OH245794   1.219   3.910   1.043 -0.3876  0.6134 -0.8258
 7200TIP3    H145795   1.149   3.973   1.026 -0.3283  1.1213  0.6318
 7200TIP3    H245796   1.240   3.923   1.135  0.2510 -0.9364 -0.7298
 7201TIP3   OH245797   4.164   7.601   8.196  0.0863  0.6177  0.5066
 7201TIP3    H145798   4.224   7.622   8.124  0.5527  0.7083  0.9156
 7201TIP3    H245799   4.211   7.536   8.248 -0.9029 -0.6675 -0.1422
 7202TIP3   OH245800   5.055   1.381   7.105  0.2189  0.5173 -0.7253
 7202TIP3    H145801   5.114   1.454   7.125  0.8614 -0.1357 -0.1908
 7202TIP3    H245802   5.109   1.319   7.055 -0.6885  0.9937 -2.3692
 7203TIP3   OH245803   4.373   5.751   9.452 -0.2339 -0.1006  0.4823
 7203TIP3    H145804   4.307   5.787   9.393  0.1260  1.7370  1.1245
 7203TIP3    H245805   4.324   5.728   9.531 -0.5466 -1.5946 -0.1055
 7204TIP3   OH245806   0.298   0.905   7.739 -0.2679 -0.0101  0.4830
 7204TIP3    H145807   0.230   0.925   7.675 -0.0679  1.1261  0.6136
 7204TIP3    H245808   0.380   0.912   7.690 -0.2251 -1.6106  0.2652
 7205TIP3   OH245809   1.645   3.191   6.956 -0.3080  0.2437 -0.6473
 7205TIP3    H145810   1.632   3.179   7.050  0.5031 -1.2160 -0.6932
 7205TIP3    H245811   1.557   3.205   6.921 -0.6419  0.5680  0.2835
 7206TIP3   OH245812   7.357   2.377   2.031  0.1552  0.4837  0.1351
 7206TIP3    H145813   7.334   2.426   2.110  0.1738 -0.2709  0.6208
 7206TIP3    H245814   7.386   2.292   2.064  1.4522  0.6239 -0.6061
 7207TIP3   OH245815   0.674   5.366   8.683  0.0054  0.6657 -0.4110
 7207TIP3    H145816   0.743   5.432   8.669  0.9414 -0.6369 -2.3371
 7207TIP3    H245817   0.609   5.411   8.737  1.4406  2.5746 -0.1548
 7208TIP3   OH245818   1.611   2.756   2.916  0.2888 -0.1755  0.1889
 7208TIP3    H145819   1.707   2.748   2.917  0.3943  0.9100  1.2244
 7208TIP3    H245820   1.588   2.770   3.008 -0.8205  0.0750 -0.1193
 7209TIP3   OH245821   0.301   3.858   6.987  0.4198 -0.3037  0.3602
 7209TIP3    H145822   0.223   3.909   6.966  0.9588 -0.3865 -2.1484
 7209TIP3    H245823   0.270   3.790   7.046 -1.3536 -0.1618 -0.3514
 7210TIP3   OH245824   2.004   2.071   0.703  0.2644 -0.3068  0.2636
 7210TIP3    H145825   2.011   2.064   0.798 -1.6960 -1.5240  0.3762
 7210TIP3    H245826   2.046   1.992   0.670 -0.0179 -0.4205  0.1759
 7211TIP3   OH245827   7.487   6.453   9.958 -0.3473 -0.5131  0.2099
 7211TIP3    H145828   7.486   6.402   9.877 -0.3688 -0.3518  0.1072
 7211TIP3    H245829   7.568   6.426  10.002  0.5253  0.5875 -0.6395
 7212TIP3   OH245830   7.235   2.300   8.682 -0.4922  0.4417 -0.8206
 7212TIP3    H145831   7.298   2.337   8.744 -0.4003  0.6272 -1.0238
 7212TIP3    H245832   7.280   2.303   8.597  0.0920 -1.4774 -0.6328
 7213TIP3   OH245833   5.259   0.919   7.745 -0.3738 -0.4663 -0.3021
 7213TIP3    H145834   5.335   0.929   7.687 -0.5808  0.4333 -0.4317
 7213TIP3    H245835   5.199   0.862   7.697  0.2867 -1.3421 -0.1182
 7214TIP3   OH245836   1.794   3.787   0.366  0.0393  0.0555  0.6773
 7214TIP3    H145837   1.825   3.700   0.340  0.4429  0.4600 -0.2384
 7214TIP3    H245838   1.834   3.847   0.304 -1.2810  0.7750  0.4690
 7215TIP3   OH245839   1.555   4.236   9.834 -0.2260 -0.1484  0.1910
 7215TIP3    H145840   1.507   4.167   9.788  1.0318  0.2278 -1.8160
 7215TIP3    H245841   1.488   4.300   9.858 -1.3826 -1.8907  1.8951
 7216TIP3   OH245842   6.063   1.964   0.613  0.2419  0.3732 -0.5895
 7216TIP3    H145843   6.039   2.017   0.538  2.0481  1.1314 -0.6833
 7216TIP3    H245844   5.991   1.902   0.623 -0.1766  0.4404 -2.7645
 7217TIP3   OH245845   0.428   5.325   0.526 -0.3600  0.2444 -0.1112
 7217TIP3    H145846   0.384   5.292   0.447  0.9946 -0.1805 -0.7205
 7217TIP3    H245847   0.360   5.374   0.572 -1.7457 -1.1883 -0.5087
 7218TIP3   OH245848   6.609   1.805   0.752  0.2082  0.1195 -0.2621
 7218TIP3    H145849   6.567   1.792   0.667  0.2800  2.9191 -0.8237
 7218TIP3    H245850   6.556   1.874   0.794  1.9997  1.0404  0.5815
 7219TIP3   OH245851   2.903   2.451   7.452  0.0174 -0.1624  0.2670
 7219TIP3    H145852   2.975   2.483   7.506  0.0119  0.9243 -0.3277
 7219TIP3    H245853   2.926   2.478   7.363 -1.4609  0.8654  0.1573
 7220TIP3   OH245854   3.121   4.320   0.263  0.1053 -0.1692  0.5730
 7220TIP3    H145855   3.210   4.355   0.256 -1.1088  3.3968  0.7109
 7220TIP3    H245856   3.106   4.310   0.357 -0.3680  1.7480  0.7614
 7221TIP3   OH245857   1.644   2.296   9.866  0.9902  0.1088 -0.3465
 7221TIP3    H145858   1.606   2.211   9.887  2.1325 -0.5709 -0.8915
 7221TIP3    H245859   1.734   2.276   9.840  0.4877  1.1060 -3.3118
 7222TIP3   OH245860   5.761   5.526   8.999 -0.0635 -0.7519  0.0446
 7222TIP3    H145861   5.760   5.521   8.903  1.1675 -1.4642  0.0441
 7222TIP3    H245862   5.670   5.510   9.024 -0.7983  1.3499 -1.0445
 7223TIP3   OH245863   0.012   3.370   2.652 -0.0402  0.0913  0.0432
 7223TIP3    H145864  -0.082   3.388   2.645  0.1824  1.5842  0.5212
 7223TIP3    H245865   0.053   3.430   2.590  0.5403 -1.5515 -1.2267
 7224TIP3   OH245866   6.296   3.165   8.122 -0.5879  0.1555  0.1212
 7224TIP3    H145867   6.305   3.115   8.203 -0.4919 -0.2432 -0.1302
 7224TIP3    H245868   6.347   3.115   8.058 -1.0023  0.2452 -0.2802
 7225TIP3   OH245869   4.958   6.452   2.039 -0.9478  0.1531  0.3556
 7225TIP3    H145870   5.022   6.430   2.107 -0.8312 -0.6558 -0.0022
 7225TIP3    H245871   4.900   6.376   2.036 -1.4570  0.5470  0.1332
 7226TIP3   OH245872   7.238   2.445   2.827 -0.2027 -0.3301  0.4317
 7226TIP3    H145873   7.144   2.444   2.845 -0.2580 -1.1795  0.1441
 7226TIP3    H245874   7.274   2.375   2.881  0.4043  0.5145  1.1680
 7227TIP3   OH245875   5.981   7.585   7.927 -0.6858  0.4078 -0.2946
 7227TIP3    H145876   5.959   7.531   8.003 -3.5939  0.7476 -0.7958
 7227TIP3    H245877   5.968   7.675   7.957 -0.4527  0.6170 -0.8120
 7228TIP3   OH245878   7.664   2.821   9.549 -0.6824  0.2431 -0.5387
 7228TIP3    H145879   7.711   2.773   9.481 -0.3908 -0.4996  0.1637
 7228TIP3    H245880   7.721   2.896   9.569  0.1449 -0.5405  0.1627
 7229TIP3   OH245881   4.877   1.600   1.920 -0.9975  0.5802  0.1113
 7229TIP3    H145882   4.919   1.520   1.950  1.6648  1.2728 -1.4204
 7229TIP3    H245883   4.911   1.613   1.831 -1.4946  3.2754  0.2292
 7230TIP3   OH245884   2.563   4.045   1.361 -0.0679 -0.7834  0.2411
 7230TIP3    H145885   2.522   3.975   1.311 -0.8497 -0.6283  0.6549
 7230TIP3    H245886   2.657   4.031   1.349 -0.2309 -1.1606 -0.6957
 7231TIP3   OH245887   0.722   0.026   1.039 -0.2131 -0.6395 -0.1027
 7231TIP3    H145888   0.655  -0.040   1.057  0.5608 -1.8384 -1.4554
 7231TIP3    H245889   0.801  -0.024   1.022  0.2295  0.5766 -1.9170
 7232TIP3   OH245890   0.005   5.442   8.429  0.0285  0.0569  0.7039
 7232TIP3    H145891   0.071   5.503   8.395  1.4921 -1.0253  1.4782
 7232TIP3    H245892   0.028   5.432   8.521 -1.7745  0.2989  1.2210
 7233TIP3   OH245893   7.007   7.468   7.227  0.2778  0.8888  0.3553
 7233TIP3    H145894   7.034   7.433   7.312 -1.3750  0.5062  0.7659
 7233TIP3    H245895   6.913   7.451   7.223  0.6019 -0.8638 -2.3795
 7234TIP3   OH245896   4.736   2.009   8.723 -0.1174 -0.1553  0.0484
 7234TIP3    H145897   4.776   2.084   8.679 -1.3883 -0.2766 -1.4299
 7234TIP3    H245898   4.680   1.969   8.656 -0.3601 -1.7509  1.1384
 7235TIP3   OH245899   4.429   2.365   7.692  0.5108  0.1960 -0.1879
 7235TIP3    H145900   4.510   2.391   7.649  0.4182  1.2527  0.2402
 7235TIP3    H245901   4.455   2.344   7.781  0.3866  0.1155 -0.1709
 7236TIP3   OH245902   2.236   4.961   2.763  0.2235  0.3487 -0.1150
 7236TIP3    H145903   2.145   4.937   2.744  0.4601 -1.0816  0.4331
 7236TIP3    H245904   2.280   4.877   2.780  1.3911  1.0947  0.6849
 7237TIP3   OH245905   1.496   4.414   0.152  0.3536  0.1019 -0.5221
 7237TIP3    H145906   1.449   4.365   0.084 -1.2094 -0.6438  1.0426
 7237TIP3    H245907   1.428   4.445   0.211  1.7456 -0.0980  1.2567
 7238TIP3   OH245908   1.927   1.275   1.151 -0.1043  0.2122  0.0790
 7238TIP3    H145909   1.926   1.367   1.125  1.3475 -0.4404 -2.6380
 7238TIP3    H245910   1.852   1.236   1.105  0.9997 -0.4794 -1.2046
 7239TIP3   OH245911   7.667   1.598   9.878  0.6882 -0.3160  0.1639
 7239TIP3    H145912   7.754   1.638   9.876  1.2282 -1.4739 -0.0468
 7239TIP3    H245913   7.673   1.529   9.943  0.1636 -0.9306 -0.4217
 7240TIP3   OH245914   2.328   6.575   8.862  0.1949  0.0680  0.2414
 7240TIP3    H145915   2.334   6.503   8.799 -0.0169 -0.2881  0.6151
 7240TIP3    H245916   2.268   6.637   8.823  1.5849  0.8072 -0.8078
 7241TIP3   OH245917   1.696   2.736   1.975  0.1048  0.1610  0.1020
 7241TIP3    H145918   1.686   2.819   1.927  0.5052 -0.1266 -0.4918
 7241TIP3    H245919   1.791   2.723   1.981  0.0478 -0.0161  0.6078
 7242TIP3   OH245920   0.607   6.322   2.140 -0.2807 -0.0107 -0.4311
 7242TIP3    H145921   0.546   6.270   2.087 -0.2209  0.1247 -0.6348
 7242TIP3    H245922   0.552   6.385   2.185 -0.0797  1.8709 -2.6200
 7243TIP3   OH245923   5.136   1.777   0.187 -0.1535 -0.4219  0.3124
 7243TIP3    H145924   5.092   1.845   0.137 -2.0472 -1.2056  0.8492
 7243TIP3    H245925   5.171   1.821   0.264  0.4829  0.2972 -0.3699
 7244TIP3   OH245926   0.988   7.351   0.068  0.3877  0.2374 -0.1921
 7244TIP3    H145927   0.909   7.305   0.093  0.1809  1.1236  0.9257
 7244TIP3    H245928   1.018   7.392   0.150  0.6461  1.9065 -1.0727
 7245TIP3   OH245929   0.414   4.293   8.048  0.8817  0.4310  0.0058
 7245TIP3    H145930   0.461   4.355   7.991  1.4636 -0.1517 -0.1522
 7245TIP3    H245931   0.479   4.264   8.111  0.5428  0.1668  0.2324
 7246TIP3   OH245932   7.412   2.154   7.217  0.2492  0.8581 -0.4496
 7246TIP3    H145933   7.358   2.181   7.292  1.9364  0.6213  0.9192
 7246TIP3    H245934   7.494   2.125   7.257  1.0833  0.4273 -2.4013
 7247TIP3   OH245935   4.596   4.121   9.494  0.3713 -0.4362  0.3265
 7247TIP3    H145936   4.600   4.099   9.587  0.3200 -0.6870  0.2694
 7247TIP3    H245937   4.664   4.187   9.482 -1.1951  1.4109  1.0360
 7248TIP3   OH245938   4.359   0.376   0.141 -0.3271  0.8882 -0.0221
 7248TIP3    H145939   4.279   0.403   0.186 -0.0351  0.0580  1.0256
 7248TIP3    H245940   4.332   0.303   0.085 -0.1076 -0.1425  1.1846
 7249TIP3   OH245941   2.459   6.405   8.202  0.2593 -0.4781  0.3999
 7249TIP3    H145942   2.519   6.475   8.178  2.0349 -1.7737  0.8248
 7249TIP3    H245943   2.485   6.379   8.290 -3.0171  0.9718  1.9790
 7250TIP3   OH245944   1.001   6.433   8.175 -0.2723  0.5576  0.6210
 7250TIP3    H145945   0.975   6.486   8.100 -0.0901 -0.9724 -0.5663
 7250TIP3    H245946   1.092   6.407   8.157 -1.0329 -1.9492  0.0420
 7251TIP3   OH245947   5.071   5.511   6.887  0.0170  0.2905 -0.8826
 7251TIP3    H145948   5.009   5.565   6.838 -0.8505  1.2635  1.1971
 7251TIP3    H245949   5.147   5.568   6.900 -1.0739  1.3189  1.7031
 7252TIP3   OH245950   3.658   3.059   7.194 -0.7295 -0.4248 -0.0571
 7252TIP3    H145951   3.594   3.036   7.126 -0.6678 -1.4813  0.2213
 7252TIP3    H245952   3.673   3.152   7.182 -2.5391 -0.0741  0.0499
 7253TIP3   OH245953   1.603   5.972   9.406 -0.0786  0.5664  0.2145
 7253TIP3    H145954   1.514   6.002   9.386  0.1288  1.7331  0.9753
 7253TIP3    H245955   1.607   5.971   9.501  1.6380  3.5341  0.2839
 7254TIP3   OH245956   2.931   0.261   7.397  0.3877 -0.1647 -0.5189
 7254TIP3    H145957   2.921   0.350   7.362  0.4406  0.6451  1.3885
 7254TIP3    H245958   2.844   0.221   7.388 -0.5905  1.2964  1.6211
 7255TIP3   OH245959   6.536   0.185   8.064  0.5262 -1.1041  0.5092
 7255TIP3    H145960   6.494   0.123   8.124 -0.8547 -0.6211  0.0789
 7255TIP3    H245961   6.566   0.256   8.120  1.1538 -1.6326  0.8702
 7256TIP3   OH245962   6.836   3.290   0.013  0.2447 -0.0228 -0.0466
 7256TIP3    H145963   6.919   3.244   0.017  0.1562 -0.2943 -0.9613
 7256TIP3    H245964   6.855   3.379   0.042  1.0641  0.1770 -1.1346
 7257TIP3   OH245965   4.043   5.246   7.576  0.2603  0.2758 -0.3835
 7257TIP3    H145966   3.956   5.256   7.614  0.6381  1.7197  0.1670
 7257TIP3    H245967   4.037   5.293   7.492  0.1711 -0.6845 -0.9297
 7258TIP3   OH245968   1.608   3.050   9.931  0.0807 -0.2765  0.1161
 7258TIP3    H145969   1.688   3.078   9.975  0.7900 -1.5453 -0.3364
 7258TIP3    H245970   1.599   3.111   9.857  1.5171 -1.0963 -0.7676
 7259TIP3   OH245971   1.659   1.336   9.282  0.2535 -0.0878  0.2408
 7259TIP3    H145972   1.580   1.285   9.300  0.1957  0.0983  0.5180
 7259TIP3    H245973   1.628   1.424   9.261  0.3072 -0.3561 -1.0313
 7260TIP3   OH245974   4.592   3.654   8.851  0.1551 -0.0888 -0.8623
 7260TIP3    H145975   4.584   3.635   8.944 -1.8951 -0.5945 -1.0998
 7260TIP3    H245976   4.515   3.708   8.830  0.5900  0.0485 -2.2610
 7261TIP3   OH245977   6.134   0.948   0.204  0.2707 -0.2752 -0.1366
 7261TIP3    H145978   6.220   0.971   0.168  0.1682  0.9310  0.3536
 7261TIP3    H245979   6.071   0.995   0.149  0.0206  0.1085  0.4612
 7262TIP3   OH245980   6.760   5.830   3.246 -0.5648  0.4578 -0.1754
 7262TIP3    H145981   6.776   5.748   3.199  1.3329  0.8562 -0.2606
 7262TIP3    H245982   6.794   5.814   3.334 -0.2344  1.1356 -0.1740
 7263TIP3   OH245983   2.223   1.019   1.573  0.2706  0.2231  0.0204
 7263TIP3    H145984   2.310   0.995   1.606  0.3957 -0.3993 -0.7339
 7263TIP3    H245985   2.239   1.052   1.485 -0.4417 -1.6984 -0.8744
 7264TIP3   OH245986   3.513   6.540   8.194 -0.3788  0.4065  0.0701
 7264TIP3    H145987   3.481   6.497   8.115 -0.4482 -0.3591  0.5078
 7264TIP3    H245988   3.485   6.483   8.266 -4.7293  3.4179  1.1496
 7265TIP3   OH245989   2.734   2.792   7.015  0.1845 -0.5155 -0.3139
 7265TIP3    H145990   2.791   2.867   6.999 -0.6046  0.8932  2.7217
 7265TIP3    H245991   2.649   2.831   7.037 -0.6770 -2.3825 -0.1486
 7266TIP3   OH245992   6.149   5.045   8.437  0.4458 -0.3135 -0.1217
 7266TIP3    H145993   6.192   5.042   8.351  1.2051 -1.0554  0.2772
 7266TIP3    H245994   6.066   5.091   8.420  0.7321 -0.1561 -1.1827
 7267TIP3   OH245995   0.308   0.702   8.563 -0.1845  0.6369 -0.2246
 7267TIP3    H145996   0.254   0.781   8.571  1.2389  1.6662 -0.3500
 7267TIP3    H245997   0.315   0.688   8.469  1.5856  1.8673 -0.3269
 7268TIP3   OH245998   2.508   0.953   7.215  0.1547  0.2769 -0.3012
 7268TIP3    H145999   2.594   0.979   7.182 -0.2561  1.7854 -0.2587
 7268TIP3    H246000   2.522   0.937   7.309  0.2798  1.0700 -0.1805
 7269TIP3   OH246001   3.955   5.032   8.904  0.2586 -0.2797 -0.8125
 7269TIP3    H146002   3.926   5.100   8.843  0.1866  1.0251  0.6239
 7269TIP3    H246003   4.050   5.042   8.907  0.1599  0.4775  0.1860
 7270TIP3   OH246004   7.581   4.212   7.629 -0.3798 -0.0865 -0.2564
 7270TIP3    H146005   7.523   4.286   7.648  0.9179  0.6652  1.0053
 7270TIP3    H246006   7.584   4.162   7.710  0.5115 -0.2544 -0.3801
 7271TIP3   OH246007   0.365   3.848   1.351 -0.4650 -0.4000  0.2206
 7271TIP3    H146008   0.362   3.761   1.311 -0.8054 -0.8394  1.1627
 7271TIP3    H246009   0.323   3.906   1.288 -0.2291 -0.9168 -0.4184
 7272TIP3   OH246010   0.145   2.337   2.136 -0.0571  0.4090  0.4631
 7272TIP3    H146011   0.089   2.347   2.213  0.7293  1.1436  0.9554
 7272TIP3    H246012   0.192   2.255   2.151  1.0293  1.1646  1.4130
 7273TIP3   OH246013   4.672   4.969   9.975  0.5047 -0.0652 -0.5235
 7273TIP3    H146014   4.682   5.008   9.889 -0.3821 -1.1246 -1.1287
 7273TIP3    H246015   4.710   4.881   9.967  2.2460  0.5072  0.7424
 7274TIP3   OH246016   2.892   3.974   7.607 -0.6214  0.0315 -0.3144
 7274TIP3    H146017   2.882   3.909   7.537  1.5597  0.2979 -0.9454
 7274TIP3    H246018   2.986   3.974   7.627 -0.8855  1.4697  1.1707
 7275TIP3   OH246019   0.203   3.539   9.992  0.1543  0.6920 -0.1364
 7275TIP3    H146020   0.142   3.542   9.918 -0.5472  0.9716  0.4484
 7275TIP3    H246021   0.214   3.631  10.017  1.2237  0.6994 -0.5519
 7276TIP3   OH246022   3.936   4.367   8.597  0.0083 -0.1117  0.5172
 7276TIP3    H146023   3.941   4.399   8.507  0.9271 -0.4871  0.4220
 7276TIP3    H246024   4.018   4.395   8.637 -1.0289  1.4154  1.7223
 7277TIP3   OH246025   2.951   1.904   2.622 -0.0430 -0.4006 -0.3921
 7277TIP3    H146026   3.003   1.930   2.699  0.9830  3.7409 -2.1961
 7277TIP3    H246027   3.016   1.876   2.558 -0.4869  0.1225 -1.0804
 7278TIP3   OH246028   6.663   0.784   2.329  0.4412  0.1827 -0.3097
 7278TIP3    H146029   6.615   0.867   2.321  0.4032  0.3694  1.4267
 7278TIP3    H246030   6.714   0.778   2.249  0.4237  1.8870 -0.4880
 7279TIP3   OH246031   0.219   3.037   7.751 -0.2146 -0.3684  0.6265
 7279TIP3    H146032   0.235   3.004   7.663 -2.9379  0.5891 -0.3300
 7279TIP3    H246033   0.243   3.130   7.747 -0.7964 -0.2085  0.7441
 7280TIP3   OH246034   4.700   4.621   8.713  0.1211  0.3640 -0.3114
 7280TIP3    H146035   4.713   4.603   8.806  0.3186 -0.7312 -0.5302
 7280TIP3    H246036   4.675   4.713   8.709  2.3882  1.1037  0.6273
 7281TIP3   OH246037   7.002   2.390   0.198 -0.1315  0.4788  0.1451
 7281TIP3    H146038   6.963   2.409   0.283 -2.0853  0.0022 -0.5811
 7281TIP3    H246039   6.988   2.296   0.186  1.8416  0.1631  0.0917
 7282TIP3   OH246040   4.679   6.779   1.419 -0.3862  0.4445  0.4258
 7282TIP3    H146041   4.682   6.683   1.421 -0.9102  0.4082 -0.2361
 7282TIP3    H246042   4.737   6.806   1.490  0.4728 -0.3556  0.0615
 7283TIP3   OH246043   2.732   5.001   0.464 -0.0932  0.5932 -0.5656
 7283TIP3    H146044   2.757   5.092   0.478  1.1457  0.1968 -0.0446
 7283TIP3    H246045   2.761   4.956   0.544 -2.2993  0.0277 -0.0288
 7284TIP3   OH246046   3.671   6.690   2.831 -0.1773  0.0933  0.0139
 7284TIP3    H146047   3.674   6.772   2.881  1.4446  1.0275 -1.5272
 7284TIP3    H246048   3.595   6.644   2.867 -1.1702  2.2694  0.9090
 7285TIP3   OH246049   6.686   4.360   9.430  0.1753  0.3657 -0.5501
 7285TIP3    H146050   6.667   4.325   9.343  1.7641  2.2427 -1.7273
 7285TIP3    H246051   6.759   4.421   9.417 -0.5918  1.9629  1.8150
 7286TIP3   OH246052   0.451   2.724   7.998  0.2240  0.5033  0.2828
 7286TIP3    H146053   0.381   2.755   8.057 -0.2653 -1.2896  0.7100
 7286TIP3    H246054   0.464   2.632   8.023  2.2441  0.5917 -0.2995
 7287TIP3   OH246055   6.251   0.160   2.188 -0.7549  0.2788 -0.2827
 7287TIP3    H146056   6.168   0.121   2.214 -1.7497  0.8987 -2.2852
 7287TIP3    H246057   6.238   0.183   2.096  2.4901 -1.9016 -1.4614
 7288TIP3   OH246058   5.391   6.422   0.063  0.0384  0.4497 -0.2801
 7288TIP3    H146059   5.399   6.404   0.157  0.3079  0.6618 -0.2622
 7288TIP3    H246060   5.442   6.502   0.049  0.0114  0.4105 -0.6118
 7289TIP3   OH246061   3.535   5.105   9.978  0.0426 -0.5053  0.2213
 7289TIP3    H146062   3.603   5.154  10.025 -1.0549 -0.5788  1.9983
 7289TIP3    H246063   3.472   5.172   9.952  0.2061 -0.5787 -0.3728
 7290TIP3   OH246064   2.025   2.280   9.655  0.4593  0.6672  0.1478
 7290TIP3    H146065   2.049   2.240   9.572 -0.8381 -1.0680  0.5424
 7290TIP3    H246066   1.984   2.363   9.631  0.0342  0.1561 -0.9674
 7291TIP3   OH246067   5.283   0.824   1.398  0.3817  0.0723 -0.2275
 7291TIP3    H146068   5.335   0.859   1.470  0.1902  0.7200 -0.4007
 7291TIP3    H246069   5.318   0.736   1.385  1.2884  0.4119 -0.1904
 7292TIP3   OH246070   2.461   2.511   2.260 -1.0120 -0.4496 -0.6476
 7292TIP3    H146071   2.472   2.455   2.337  2.6724  0.8114 -0.0513
 7292TIP3    H246072   2.501   2.461   2.189 -0.0841  0.2955 -0.6675
 7293TIP3   OH246073   4.633   2.711   8.853 -0.4139  0.0765  0.4371
 7293TIP3    H146074   4.539   2.711   8.836 -0.4986 -1.2418  0.7662
 7293TIP3    H246075   4.643   2.658   8.932  0.8439 -2.5279 -1.3236
 7294TIP3   OH246076   1.747   5.106   2.313 -0.0017  0.0385  0.1199
 7294TIP3    H146077   1.684   5.094   2.241  0.7871 -1.4890 -0.3724
 7294TIP3    H246078   1.765   5.017   2.344  0.2979  0.6158  1.6857
 7295TIP3   OH246079   4.306   3.334   8.376  0.6561 -0.2444  0.1795
 7295TIP3    H146080   4.254   3.258   8.403 -2.0562  2.3367  3.1426
 7295TIP3    H246081   4.391   3.320   8.416  0.1361 -1.6198  0.8859
 7296TIP3   OH246082   2.721   5.480   8.649 -0.2207 -0.0461  0.2833
 7296TIP3    H146083   2.729   5.492   8.554  0.2967 -2.0066  0.0324
 7296TIP3    H246084   2.768   5.554   8.687 -0.4348  0.7644 -0.9786
 7297TIP3   OH246085   7.216   2.160   2.574  0.4168  0.7690  0.3736
 7297TIP3    H146086   7.208   2.201   2.488  0.9964  1.4235  0.6182
 7297TIP3    H246087   7.308   2.172   2.598  0.7119 -1.0668  0.2859
 7298TIP3   OH246088   3.685   6.242   8.195  0.0466 -0.5829 -0.1913
 7298TIP3    H146089   3.598   6.280   8.209  0.8842  1.1404  0.6077
 7298TIP3    H246090   3.701   6.250   8.101  0.3375  1.4393  0.0006
 7299TIP3   OH246091   1.039   0.875   7.584  0.1547 -0.4167  0.2603
 7299TIP3    H146092   1.124   0.846   7.617 -0.5438 -2.0830  0.7248
 7299TIP3    H246093   1.019   0.813   7.513  0.4013  1.4494 -1.5125
 7300TIP3   OH246094   4.233   6.634   8.553 -0.2889 -0.0453  0.0341
 7300TIP3    H146095   4.288   6.696   8.504  1.2232 -1.2578  0.1265
 7300TIP3    H246096   4.159   6.619   8.495  1.6381 -1.7490 -2.2280
 7301TIP3   OH246097   3.024   3.914   2.345  0.1726  0.2259 -0.0568
 7301TIP3    H146098   2.962   3.844   2.369 -0.0561  0.9805  1.6558
 7301TIP3    H246099   2.986   3.951   2.265  0.6347 -1.9729 -1.3894
 7302TIP3   OH246100   7.090   2.232   1.145 -0.0150 -0.1090  0.3618
 7302TIP3    H146101   7.159   2.240   1.211  0.1409 -2.0240  0.4798
 7302TIP3    H246102   7.111   2.299   1.080  1.2749  0.1210  0.9773
 7303TIP3   OH246103   5.320   0.520   2.369  0.2849  0.7811 -0.6052
 7303TIP3    H146104   5.278   0.449   2.321  0.6483 -0.8302  1.3562
 7303TIP3    H246105   5.248   0.575   2.399 -0.7885 -2.3545  3.3847
 7304TIP3   OH246106   1.351   5.877   0.860  0.4186 -0.0292  0.3725
 7304TIP3    H146107   1.331   5.930   0.783  0.0272 -1.0174 -0.2152
 7304TIP3    H246108   1.446   5.882   0.868  0.5160 -0.3575 -0.4975
 7305TIP3   OH246109   5.287   0.138   9.205  0.2983  0.1625  0.2583
 7305TIP3    H146110   5.259   0.051   9.233 -0.6731  0.8636  1.5407
 7305TIP3    H246111   5.211   0.174   9.158  0.3135  0.7153  0.6469
 7306TIP3   OH246112   3.999   5.070   8.581 -0.0387 -0.7032 -0.3080
 7306TIP3    H146113   4.024   5.140   8.642  0.1617  1.5093 -2.7644
 7306TIP3    H246114   3.904   5.069   8.583 -0.1505  1.2065 -1.7791
 7307TIP3   OH246115   5.343   6.181   9.034 -0.0735  0.4401  0.0282
 7307TIP3    H146116   5.398   6.165   9.110  0.3714  1.9034  0.0307
 7307TIP3    H246117   5.254   6.164   9.065  0.3040 -1.8199  0.0553
 7308TIP3   OH246118   6.973   2.953   7.630  0.0808  0.2545 -0.5774
 7308TIP3    H146119   6.952   2.862   7.649  0.4081  0.0582 -1.1454
 7308TIP3    H246120   6.926   2.973   7.549  0.9513  0.2257 -1.1030
 7309TIP3   OH246121   0.913   4.400   8.460  0.0410  0.1237  0.0391
 7309TIP3    H146122   0.885   4.338   8.526 -1.1278  0.0423 -0.5149
 7309TIP3    H246123   0.962   4.347   8.396 -1.0785 -0.2763 -0.5095
 7310TIP3   OH246124   3.353   7.016   9.456 -0.2190 -0.1300 -0.3273
 7310TIP3    H146125   3.261   7.043   9.460  0.1905  1.2440  0.5406
 7310TIP3    H246126   3.349   6.922   9.437 -1.8320 -0.3908  1.0425
 7311TIP3   OH246127   3.346   1.978   9.684 -0.3774  0.2571 -0.7285
 7311TIP3    H146128   3.264   2.026   9.693 -0.8543 -0.5738 -0.4949
 7311TIP3    H246129   3.339   1.906   9.747  0.6295  0.3065 -0.5407
 7312TIP3   OH246130   2.241   0.319   1.830  0.3429 -0.5046 -0.5800
 7312TIP3    H146131   2.186   0.313   1.908  0.5022  1.3727 -0.2773
 7312TIP3    H246132   2.317   0.370   1.858  1.1211 -1.0798 -1.5921
 7313TIP3   OH246133   0.750   4.810   8.013 -0.0549  0.3019  0.2655
 7313TIP3    H146134   0.745   4.894   7.967  1.0466 -0.9902 -2.4520
 7313TIP3    H246135   0.842   4.801   8.037 -0.3130  0.1858  1.2723
 7314TIP3   OH246136   4.764   2.088   9.777 -0.2790 -0.4928  0.6489
 7314TIP3    H146137   4.823   2.132   9.839 -0.7680  0.5425  0.4100
 7314TIP3    H246138   4.811   2.090   9.694 -0.6008  0.2458  0.4795
 7315TIP3   OH246139   2.790   7.103   0.338 -0.2578 -0.1273 -0.0976
 7315TIP3    H146140   2.849   7.124   0.266 -0.4705  1.2512  0.0944
 7315TIP3    H246141   2.793   7.180   0.395 -0.0297 -1.2150  1.4266
 7316TIP3   OH246142   0.455   4.867   9.458  0.3104  0.5947 -0.2212
 7316TIP3    H146143   0.504   4.897   9.382 -1.3913  2.4546 -0.6858
 7316TIP3    H246144   0.399   4.797   9.425  0.9198  0.1182 -0.2456
 7317TIP3   OH246145   6.733   5.721   9.935 -0.2425 -0.0645  0.2466
 7317TIP3    H146146   6.743   5.640   9.986 -0.1704  0.5424  1.2108
 7317TIP3    H246147   6.821   5.738   9.900 -0.5401 -1.1457 -1.1523
 7318TIP3   OH246148   0.966   2.056   8.638 -0.0565  0.0478  0.1286
 7318TIP3    H146149   0.935   1.979   8.589  0.2872 -0.2734  0.4106
 7318TIP3    H246150   1.002   2.020   8.719  0.3227  0.4869  0.1578
 7319TIP3   OH246151   5.818   6.237   7.896 -0.5029  0.1739  0.5503
 7319TIP3    H146152   5.865   6.295   7.836 -1.7180  0.3941 -0.2245
 7319TIP3    H246153   5.874   6.233   7.973  0.9742  0.1115 -0.4696
 7320TIP3   OH246154   5.179   4.403   7.073  0.6141 -0.2253 -0.1040
 7320TIP3    H146155   5.170   4.310   7.097 -3.1067 -0.8225 -2.8347
 7320TIP3    H246156   5.118   4.449   7.131  1.5979  0.3680  0.4764
 7321TIP3   OH246157   0.666   3.217   8.256  0.1341 -0.4217 -0.3941
 7321TIP3    H146158   0.705   3.157   8.319  1.5715  0.6035 -0.2630
 7321TIP3    H246159   0.581   3.240   8.294  0.6592 -0.3913  0.8148
 7322TIP3   OH246160   0.243   1.325   0.923  0.7556 -0.3412 -0.2790
 7322TIP3    H146161   0.231   1.313   1.017 -1.0088 -1.9399 -0.6438
 7322TIP3    H246162   0.212   1.413   0.905  0.5616 -0.2371  0.5497
 7323TIP3   OH246163   6.833   0.823   8.569  0.3194  0.1026  0.2471
 7323TIP3    H146164   6.849   0.840   8.662  0.8682 -0.6334  0.2963
 7323TIP3    H246165   6.815   0.909   8.531  2.0217  0.6910  0.6724
 7324TIP3   OH246166   3.355   3.658   1.444 -0.2890  0.5953 -0.1083
 7324TIP3    H146167   3.443   3.621   1.435  0.0093  0.8887  1.4682
 7324TIP3    H246168   3.299   3.596   1.396  0.7016  0.1438 -0.7121
 7325TIP3   OH246169   0.442   4.666   0.113  0.3419  0.1582 -0.7917
 7325TIP3    H146170   0.400   4.718   0.045 -0.9578  0.6206  0.3222
 7325TIP3    H246171   0.459   4.728   0.184  0.4077 -0.5653 -0.1586
 7326TIP3   OH246172   3.630   0.485   9.373 -0.3716  0.7295 -0.1381
 7326TIP3    H146173   3.587   0.460   9.455 -1.1539 -0.4056 -0.8715
 7326TIP3    H246174   3.610   0.413   9.313  3.7586 -0.7088 -0.1356
 7327TIP3   OH246175   5.146   3.720   7.921 -0.2069 -0.1659  0.8155
 7327TIP3    H146176   5.178   3.635   7.891 -0.4685 -0.0873  0.2966
 7327TIP3    H246177   5.190   3.783   7.864 -0.3532  0.0149  0.9040
 7328TIP3   OH246178   1.287   3.391   7.838  0.8092  0.5320  0.4914
 7328TIP3    H146179   1.256   3.455   7.774 -1.8302  0.4423  1.5310
 7328TIP3    H246180   1.325   3.443   7.908  0.0851  0.9074  0.6212
 7329TIP3   OH246181   6.012   6.160   8.120 -0.2754  0.2496 -0.7520
 7329TIP3    H146182   6.012   6.254   8.105 -0.4839  0.5315  0.8754
 7329TIP3    H246183   6.001   6.150   8.215 -0.2022 -1.4084 -0.8831
 7330TIP3   OH246184   6.550   1.717   9.423 -0.6738  0.0300  0.5379
 7330TIP3    H146185   6.642   1.727   9.449 -0.1468  2.3808 -1.7493
 7330TIP3    H246186   6.548   1.635   9.373  1.4055  2.0446 -3.3229
 7331TIP3   OH246187   7.202   6.691   9.973  0.3243  0.4678  0.4266
 7331TIP3    H146188   7.165   6.777   9.992 -1.3596 -0.5978  2.3383
 7331TIP3    H246189   7.213   6.690   9.878 -2.9376  1.5623 -0.0847
 7332TIP3   OH246190   5.347   3.598   8.508  0.4679 -0.2288 -0.3057
 7332TIP3    H146191   5.403   3.530   8.470 -1.7467 -1.5725 -1.3780
 7332TIP3    H246192   5.347   3.668   8.444 -0.6946 -1.1347 -1.3547
 7333TIP3   OH246193   0.464   1.436   0.479  0.1120  0.3405 -0.4458
 7333TIP3    H146194   0.394   1.398   0.532  0.5023  0.4199  0.1365
 7333TIP3    H246195   0.468   1.528   0.505 -0.0763  0.5191 -1.0338
 7334TIP3   OH246196   0.056   1.213   1.664  0.1572  0.1950  0.5734
 7334TIP3    H146197  -0.012   1.268   1.626  1.0601  1.5846  0.8991
 7334TIP3    H246198   0.009   1.151   1.720 -0.9373  0.1479 -0.3804
 7335TIP3   OH246199   0.619   6.443   1.438 -0.0837 -0.3359  0.7907
 7335TIP3    H146200   0.701   6.439   1.389 -0.0979  3.8042  0.0830
 7335TIP3    H246201   0.645   6.434   1.529  1.0684  0.0247  0.5152
 7336TIP3   OH246202   7.308   6.649   9.110  0.0835  0.1260 -0.4351
 7336TIP3    H146203   7.219   6.658   9.076 -0.4882 -2.3168  0.2223
 7336TIP3    H246204   7.341   6.739   9.115 -1.6854  0.9630 -2.3460
 7337TIP3   OH246205   2.690   4.073   3.049 -0.1344 -0.1710  0.4029
 7337TIP3    H146206   2.740   4.008   3.099  0.0828  1.0174  1.7971
 7337TIP3    H246207   2.746   4.095   2.974  0.2514 -0.7997  0.5041
 7338TIP3   OH246208   7.362   6.314   9.139  0.5152  0.0219 -0.2055
 7338TIP3    H146209   7.441   6.368   9.130  1.1514 -0.7539  0.6030
 7338TIP3    H246210   7.382   6.254   9.211 -1.1747  0.4319  0.6507
 7339TIP3   OH246211   1.655   4.765   8.876 -0.7176  0.7326 -0.3084
 7339TIP3    H146212   1.666   4.709   8.953  0.7118 -0.3654 -1.2632
 7339TIP3    H246213   1.609   4.843   8.909  0.7528  0.7523  1.8556
 7340TIP3   OH246214   1.354   5.714   0.566  0.1281 -0.1034  0.1603
 7340TIP3    H146215   1.356   5.776   0.493  2.2504  0.3884  0.5803
 7340TIP3    H246216   1.296   5.754   0.630 -0.5577  0.1888 -0.6295
 7341TIP3   OH246217   4.265   5.432   9.645  0.4841 -0.1207 -0.0274
 7341TIP3    H146218   4.223   5.467   9.724  1.5492 -0.3347  0.6572
 7341TIP3    H246219   4.332   5.372   9.678  0.0565 -1.2364 -1.1352
 7342TIP3   OH246220   5.564   3.146   7.463 -0.4744  0.3124 -0.3032
 7342TIP3    H146221   5.615   3.220   7.429  0.8383 -0.8248 -0.9207
 7342TIP3    H246222   5.564   3.158   7.558  1.0404  0.3037 -0.2859
 7343TIP3   OH246223   7.599   6.242   1.293  0.0670 -0.3486  0.0691
 7343TIP3    H146224   7.641   6.327   1.308 -0.3111  0.2608 -2.0323
 7343TIP3    H246225   7.638   6.210   1.212  0.5818 -2.4782  1.0643
 7344TIP3   OH246226   1.212   4.884   1.645  0.3940  0.2032 -0.6049
 7344TIP3    H146227   1.194   4.791   1.653 -0.1903  0.3757  0.1351
 7344TIP3    H246228   1.307   4.891   1.657  0.2616 -0.1503  0.8506
 7345TIP3   OH246229   4.658   0.551   8.671 -0.4167  0.1046 -0.2410
 7345TIP3    H146230   4.624   0.515   8.589 -1.8861  2.2273 -0.6700
 7345TIP3    H246231   4.732   0.606   8.644  0.9891 -1.4747  0.2516
 7346TIP3   OH246232   2.488   0.705   8.778 -0.1466 -0.3288 -0.0289
 7346TIP3    H146233   2.427   0.640   8.813  0.3857 -1.0643 -0.4432
 7346TIP3    H246234   2.478   0.699   8.683  0.3036 -0.1905 -0.0870
 7347TIP3   OH246235   4.349   0.336   8.906  0.0099 -0.1581 -0.1369
 7347TIP3    H146236   4.283   0.291   8.854  0.4058 -2.2267  1.0669
 7347TIP3    H246237   4.433   0.309   8.867  0.2440  1.7268 -1.0778
 7348TIP3   OH246238   2.117   6.057   9.458 -0.2581 -0.1987  0.5219
 7348TIP3    H146239   2.051   6.122   9.482 -1.3497 -0.5579 -1.2691
 7348TIP3    H246240   2.071   5.998   9.397  1.5177 -0.8748 -0.2333
 7349TIP3   OH246241   6.965   6.855   8.619  0.6383 -0.3614 -0.0864
 7349TIP3    H146242   6.986   6.948   8.612  0.3349 -0.3592 -1.1188
 7349TIP3    H246243   6.996   6.817   8.537 -0.6798 -0.8728 -0.3670
 7350TIP3   OH246244   5.175   6.651   9.796 -0.0457  0.5519 -0.1103
 7350TIP3    H146245   5.213   6.735   9.822 -0.0254 -0.2726  2.9238
 7350TIP3    H246246   5.249   6.601   9.762  0.7774  0.5233  1.5873
 7351TIP3   OH246247   1.263   2.131   1.273  0.2915  0.7576  0.6447
 7351TIP3    H146248   1.198   2.200   1.292 -0.8810 -0.0515 -0.2949
 7351TIP3    H246249   1.292   2.102   1.359  0.8043  2.3944  1.0731
 7352TIP3   OH246250   3.802   4.952   0.015 -0.2860  0.0753  0.8644
 7352TIP3    H146251   3.843   4.877   0.057  0.7678  0.2761  0.2179
 7352TIP3    H246252   3.808   5.023   0.079 -2.0267 -0.5697  1.8082
 7353TIP3   OH246253   0.865   5.052   1.978 -0.3132  0.2308  0.6054
 7353TIP3    H146254   0.849   5.144   2.001 -0.4666  0.1767  0.7251
 7353TIP3    H246255   0.935   5.024   2.037  1.4990  0.9633 -1.1097
 7354TIP3   OH246256   5.407   1.387   9.456 -0.5246 -0.5770 -0.5150
 7354TIP3    H146257   5.436   1.425   9.374 -0.6630  0.0091 -0.2984
 7354TIP3    H246258   5.428   1.294   9.449 -0.1241 -0.4495 -1.0266
 7355TIP3   OH246259   7.551   3.146   7.235  0.1164 -0.1089  0.2988
 7355TIP3    H146260   7.545   3.233   7.274  2.4889  0.6855 -0.9135
 7355TIP3    H246261   7.515   3.157   7.147 -0.6320 -0.6653  0.5256
 7356TIP3   OH246262   2.203   1.934   9.299 -0.1643 -0.1972 -0.2803
 7356TIP3    H146263   2.294   1.956   9.319 -0.1539 -1.3357  1.1894
 7356TIP3    H246264   2.154   2.015   9.312  0.6896  0.5557 -1.6069
 7357TIP3   OH246265   1.990   2.008   7.620 -0.6014 -0.6116  0.0944
 7357TIP3    H146266   1.981   2.103   7.626 -2.9764 -0.7302 -0.4641
 7357TIP3    H246267   2.076   1.990   7.657  0.3089  1.8157 -0.5896
 7358TIP3   OH246268   2.745   0.615   1.667  0.2101  0.0182  0.2913
 7358TIP3    H146269   2.800   0.615   1.745 -1.3207 -1.8665  1.4582
 7358TIP3    H246270   2.744   0.524   1.638 -2.9514 -0.2593  0.8889
 7359TIP3   OH246271   5.059   2.632   0.029  0.1350 -0.3126 -0.2249
 7359TIP3    H146272   4.997   2.600   0.094 -0.2207 -0.6561 -0.7246
 7359TIP3    H246273   5.091   2.716   0.064 -0.0254 -0.5130  0.3984
 7360TIP3   OH246274   0.057   5.032   0.525 -0.7070  0.1863 -0.4709
 7360TIP3    H146275   0.065   4.968   0.455  2.1966 -0.2077  0.0981
 7360TIP3    H246276   0.007   4.988   0.593 -1.4243 -0.3105 -1.2993
 7361TIP3   OH246277   7.388   5.779   2.347 -0.0759  0.6456  0.1388
 7361TIP3    H146278   7.389   5.868   2.383 -2.0581  0.4203  0.8824
 7361TIP3    H246279   7.299   5.748   2.362  1.0772 -2.2386  1.7785
 7362TIP3   OH246280   1.592   7.593   8.801 -0.1635  0.1904 -0.2884
 7362TIP3    H146281   1.580   7.537   8.877 -1.4010  1.6418  0.6422
 7362TIP3    H246282   1.636   7.537   8.736 -0.5879 -1.5624  0.8745
 7363TIP3   OH246283   0.621   3.892   1.163 -0.6409 -0.8526  0.5745
 7363TIP3    H146284   0.610   3.799   1.184 -0.0987 -0.7143  1.5267
 7363TIP3    H246285   0.712   3.899   1.133 -0.4093 -0.5060  1.3169
 7364TIP3   OH246286   6.921   3.089   2.389 -0.4665  0.0933  0.2757
 7364TIP3    H146287   6.829   3.087   2.413 -0.5454 -0.2394 -0.0408
 7364TIP3    H246288   6.934   3.009   2.337 -0.0320  0.2000  0.2149
 7365TIP3   OH246289   2.639   2.801   2.483 -0.2374  0.4527 -0.2628
 7365TIP3    H146290   2.679   2.798   2.396  0.5890  0.6207  0.0992
 7365TIP3    H246291   2.588   2.882   2.483  0.6851  1.0545 -0.2163
 7366TIP3   OH246292   7.482   5.545   0.550  0.2403  0.1293  0.1402
 7366TIP3    H146293   7.405   5.603   0.545 -0.7218 -0.9229  1.7506
 7366TIP3    H246294   7.549   5.599   0.593 -0.1783  0.5012  0.3412
 7367TIP3   OH246295   2.399   1.143   9.799 -0.8298 -0.1277  0.7203
 7367TIP3    H146296   2.390   1.161   9.892 -1.6476 -1.1892  0.8678
 7367TIP3    H246297   2.480   1.093   9.792  0.5355  2.0026  0.5210
 7368TIP3   OH246298   0.404   3.818   9.324  0.1220 -0.0792  0.0740
 7368TIP3    H146299   0.338   3.750   9.342  0.4387 -0.4211 -0.0517
 7368TIP3    H246300   0.352   3.896   9.303 -0.3769  0.9498  4.2537
 7369TIP3   OH246301   2.301   5.266   1.314 -0.0368  0.2489  0.2522
 7369TIP3    H146302   2.300   5.261   1.410  2.6338 -2.4450  0.2857
 7369TIP3    H246303   2.235   5.201   1.286  1.0117 -0.9011  0.3532
 7370TIP3   OH246304   0.508   6.304   8.536 -0.2892 -0.4373 -0.1057
 7370TIP3    H146305   0.442   6.305   8.467 -1.3715 -1.2218  0.8901
 7370TIP3    H246306   0.528   6.396   8.552 -0.3752 -0.2352 -1.1244
 7371TIP3   OH246307   2.876   1.591   1.513  0.0659 -0.5853 -0.3270
 7371TIP3    H146308   2.891   1.501   1.485 -0.9905 -0.7275 -0.4788
 7371TIP3    H246309   2.781   1.603   1.508  0.2177  0.6602 -0.6748
 7372TIP3   OH246310   0.100   3.036   9.377 -0.4342  0.2103 -0.5164
 7372TIP3    H146311   0.087   2.960   9.321  0.4964 -0.7145  0.4817
 7372TIP3    H246312   0.189   3.066   9.357  0.0963 -0.4248  0.7737
 7373TIP3   OH246313   1.103   4.329   8.768 -0.5274 -0.4704  0.2535
 7373TIP3    H146314   1.057   4.387   8.708  2.6602  1.6449 -0.4271
 7373TIP3    H246315   1.069   4.351   8.855 -0.3795  1.5007 -0.1461
 7374TIP3   OH246316   0.531   0.668   0.141  0.5182 -0.3801 -0.2079
 7374TIP3    H146317   0.594   0.735   0.168  1.2327 -0.2335 -2.0642
 7374TIP3    H246318   0.568   0.585   0.171  0.1250 -0.0607  1.2256
 7375TIP3   OH246319   4.784   1.837   2.097 -0.1856  0.3027  0.2193
 7375TIP3    H146320   4.792   1.887   2.179 -1.4333  3.2312 -1.3127
 7375TIP3    H246321   4.842   1.882   2.036 -1.9489  0.4008 -1.4449
 7376TIP3   OH246322   2.528   1.321   8.177 -0.0581 -0.1346 -0.0240
 7376TIP3    H146323   2.486   1.396   8.220  0.1257  0.5663 -1.0352
 7376TIP3    H246324   2.462   1.287   8.117  1.0829  1.6695 -2.4629
 7377TIP3   OH246325   1.647   0.693   2.036 -0.3350  0.4128 -0.9137
 7377TIP3    H146326   1.665   0.657   1.949  2.0674 -1.4197  0.2236
 7377TIP3    H246327   1.592   0.627   2.078  1.2096 -0.3501  0.0001
 7378TIP3   OH246328   0.446   1.815   6.941 -0.2078  0.6982 -0.5530
 7378TIP3    H146329   0.431   1.783   7.030  0.5468  0.9984 -0.3088
 7378TIP3    H246330   0.538   1.793   6.923 -0.1304  1.3296 -0.9642
 7379TIP3   OH246331   1.895   4.609   1.616  0.1863 -0.1246  0.7055
 7379TIP3    H146332   1.935   4.657   1.543  0.3189 -0.2336  0.7061
 7379TIP3    H246333   1.962   4.608   1.684  1.3110 -2.7308 -0.2996
 7380TIP3   OH246334   5.699   7.195   8.701 -0.4853 -0.2010 -0.4016
 7380TIP3    H146335   5.642   7.173   8.628  1.1449  0.1087 -1.8482
 7380TIP3    H246336   5.756   7.119   8.711  0.1406  0.2638 -0.3232
 7381TIP3   OH246337   0.275   6.456   8.813  0.5109  0.5536  0.7495
 7381TIP3    H146338   0.272   6.361   8.802  0.5103  0.6735 -0.3042
 7381TIP3    H246339   0.362   6.472   8.851  1.7394  0.3740 -1.7802
 7382TIP3   OH246340   3.249   1.336   9.166  0.1816  0.3702 -0.4956
 7382TIP3    H146341   3.248   1.347   9.071  0.3408  2.0148 -0.3336
 7382TIP3    H246342   3.313   1.399   9.198 -1.6472  1.6614  0.8820
 7383TIP3   OH246343   2.518   2.053   9.085 -0.4902 -0.2246  0.4515
 7383TIP3    H146344   2.568   2.073   9.006  0.0747  1.0808  1.1163
 7383TIP3    H246345   2.441   2.109   9.080  0.0341  0.5949  1.2878
 7384TIP3   OH246346   6.807   3.706   8.855  0.5111  0.5464 -0.7985
 7384TIP3    H146347   6.861   3.763   8.800  1.5179  0.5195  0.1328
 7384TIP3    H246348   6.842   3.716   8.943  1.5097 -2.3485 -0.7439
 7385TIP3   OH246349   4.181   6.243   0.419  0.8557 -0.0781  0.1429
 7385TIP3    H146350   4.219   6.203   0.341  1.3396 -1.1027  0.8701
 7385TIP3    H246351   4.130   6.317   0.387  1.2325 -0.3486 -1.1122
 7386TIP3   OH246352   2.192   1.695   0.447  0.1389  0.0195 -0.0291
 7386TIP3    H146353   2.167   1.613   0.403  0.0813 -0.1025  0.2284
 7386TIP3    H246354   2.178   1.762   0.380  0.3152 -0.1949 -0.2867
 7387TIP3   OH246355   4.494   1.182   2.083 -0.2872 -0.0416 -0.4054
 7387TIP3    H146356   4.560   1.235   2.128 -1.0269 -0.0601  0.7406
 7387TIP3    H246357   4.421   1.242   2.068 -0.2420 -0.1652 -1.1582
 7388TIP3   OH246358   5.713   0.309   2.531  0.1469  0.6721  0.1480
 7388TIP3    H146359   5.654   0.380   2.552  0.5208  1.1560 -0.4123
 7388TIP3    H246360   5.747   0.329   2.444  0.7105  0.1228  0.2231
 7389TIP3   OH246361   2.515   5.784   1.618  0.1079  0.0583  0.0125
 7389TIP3    H146362   2.530   5.788   1.712 -0.4754 -1.8890  0.2212
 7389TIP3    H246363   2.440   5.842   1.603  0.3921  0.6153  0.6869
 7390TIP3   OH246364   5.049   2.115   0.265  0.2361  0.0239 -0.2393
 7390TIP3    H146365   4.991   2.191   0.266  0.6466  0.3416  0.3895
 7390TIP3    H246366   5.024   2.066   0.344  0.9205  0.2465  0.1242
 7391TIP3   OH246367   0.068   5.783   6.557 -0.1570  0.2306  0.1108
 7391TIP3    H146368  -0.027   5.777   6.562 -0.1393  0.3571  0.6087
 7391TIP3    H246369   0.089   5.745   6.471 -0.6762  0.5193 -0.1514
 7392TIP3   OH246370   7.614   0.477   8.631  0.1257 -0.0354  0.5068
 7392TIP3    H146371   7.602   0.382   8.626  1.2881 -0.1686 -0.1521
 7392TIP3    H246372   7.596   0.509   8.543 -0.4804  0.3870  0.7820
 7393TIP3   OH246373   0.729   3.941   9.840  0.3832 -0.1696 -0.1853
 7393TIP3    H146374   0.822   3.924   9.857 -0.0139 -1.7706  0.5433
 7393TIP3    H246375   0.703   4.001   9.910  0.4424 -1.2340  0.7938
 7394TIP3   OH246376   5.318   4.075   8.537  0.3960  0.3188  0.7352
 7394TIP3    H146377   5.241   4.035   8.576  0.8226 -0.0694  1.1961
 7394TIP3    H246378   5.377   4.091   8.611 -0.2762  3.0207  0.7781
 7395TIP3   OH246379   2.277   5.348   1.864 -0.2615  0.4041  0.8111
 7395TIP3    H146380   2.257   5.431   1.822 -1.5176 -0.2570  0.0400
 7395TIP3    H246381   2.325   5.298   1.797 -0.7041  0.0117  0.7796
 7396TIP3   OH246382   1.979   2.988   0.603 -0.0174  0.3079 -0.1289
 7396TIP3    H146383   2.053   3.005   0.660  0.3611 -2.5115  0.3801
 7396TIP3    H246384   2.018   2.976   0.516  0.2981 -1.7685  0.2414
 7397TIP3   OH246385   4.595   6.669   8.410  0.2890 -0.0196 -0.2733
 7397TIP3    H146386   4.545   6.748   8.387  1.0779  0.5283 -0.1479
 7397TIP3    H246387   4.535   6.618   8.464 -0.6506 -0.0665 -1.3215
 7398TIP3   OH246388   0.417   4.213   9.983 -0.4738 -0.1208  0.0635
 7398TIP3    H146389   0.342   4.159   9.957 -2.0647  1.1694  1.7068
 7398TIP3    H246390   0.493   4.157   9.968 -1.6618 -1.1825 -2.4614
 7399TIP3   OH246391   6.786   3.275   8.939 -0.4323  0.7229  0.2869
 7399TIP3    H146392   6.714   3.336   8.925 -1.4305 -0.6328 -0.6801
 7399TIP3    H246393   6.744   3.192   8.962  0.8250 -0.0621 -0.1165
 7400TIP3   OH246394   0.933   0.851   9.331 -0.0429  0.7083  0.1458
 7400TIP3    H146395   0.855   0.819   9.377  1.2984 -0.4974  1.7275
 7400TIP3    H246396   0.901   0.921   9.275 -2.1851  0.5867  1.1113
 7401TIP3   OH246397   0.559   3.680   1.691 -0.0134  0.4231  0.1605
 7401TIP3    H146398   0.573   3.702   1.783  1.4325 -0.1079  0.0924
 7401TIP3    H246399   0.597   3.753   1.642  0.1859  0.2030 -0.0183
 7402TIP3   OH246400   6.853   7.671   0.293  0.0611  0.0581 -0.7252
 7402TIP3    H146401   6.831   7.751   0.245 -1.8643  0.2822  0.4084
 7402TIP3    H246402   6.778   7.613   0.278  0.4345 -0.6910  0.2011
 7403TIP3   OH246403   1.252   5.868   2.933 -0.0908  0.5310 -0.0000
 7403TIP3    H146404   1.196   5.909   2.868  1.5937 -1.2650 -2.7904
 7403TIP3    H246405   1.196   5.805   2.978 -0.6039 -0.5329 -2.0420
 7404TIP3   OH246406   6.049   2.103   2.446 -0.0191 -0.2553  0.0098
 7404TIP3    H146407   6.047   2.067   2.535  0.0471 -0.1525  0.0525
 7404TIP3    H246408   6.140   2.127   2.432 -0.0611 -0.1153 -0.0245
 7405TIP3   OH246409   2.728   4.361   8.876 -0.2197  0.3705 -0.5660
 7405TIP3    H146410   2.790   4.384   8.807  0.2665 -0.9355 -0.5878
 7405TIP3    H246411   2.747   4.423   8.947 -0.7543  1.7523 -1.5957
 7406TIP3   OH246412   6.243   3.695   9.814  0.3485  0.1487  0.1579
 7406TIP3    H146413   6.185   3.645   9.873 -0.1405  0.8440  0.2776
 7406TIP3    H246414   6.303   3.740   9.873  0.3123  0.2864  0.0893
 7407TIP3   OH246415   4.496   1.818   7.505 -0.0026  0.5094  0.1954
 7407TIP3    H146416   4.456   1.894   7.548  0.4440 -0.0877  1.7205
 7407TIP3    H246417   4.542   1.772   7.575 -0.5724 -1.3879 -0.6125
 7408TIP3   OH246418   5.456   5.562   7.740 -0.0371 -0.2690  0.2557
 7408TIP3    H146419   5.426   5.551   7.650 -1.5284 -0.7429  0.7830
 7408TIP3    H246420   5.384   5.608   7.784  0.2648 -0.8735  1.4313
 7409TIP3   OH246421   3.579   6.002   1.534 -0.1613  0.1051  0.4539
 7409TIP3    H146422   3.569   5.907   1.539  0.4502  0.0493  0.6399
 7409TIP3    H246423   3.672   6.017   1.550 -0.1550  0.6967 -0.1353
 7410TIP3   OH246424   0.282   5.043   8.861  0.6255 -0.2176 -0.0202
 7410TIP3    H146425   0.358   5.065   8.807  0.1932 -0.8108 -0.9088
 7410TIP3    H246426   0.210   5.093   8.823 -0.1020 -2.0885 -1.2884
 7411TIP3   OH246427   2.931   3.358   7.631 -0.3682 -0.4001 -0.2457
 7411TIP3    H146428   2.874   3.358   7.555 -0.9966  1.0119  0.1823
 7411TIP3    H246429   2.957   3.450   7.641 -0.5327 -0.5050  1.3958
 7412TIP3   OH246430   3.354   3.109   0.772  0.0521  0.0306 -0.2518
 7412TIP3    H146431   3.268   3.084   0.806 -1.4241  0.4185 -3.3866
 7412TIP3    H246432   3.350   3.204   0.764  1.4943  0.2582  1.1903
 7413TIP3   OH246433   0.175   6.020   0.399 -0.0988  0.1477 -0.3108
 7413TIP3    H146434   0.219   5.941   0.431  2.3527  1.3417 -0.5151
 7413TIP3    H246435   0.170   6.007   0.304 -0.9053 -0.3211 -0.2090
 7414TIP3   OH246436   1.693   6.064   0.113 -0.1255  0.2194 -0.2506
 7414TIP3    H146437   1.619   6.108   0.154 -1.0366 -0.2427 -1.3389
 7414TIP3    H246438   1.749   6.136   0.082 -0.8631  0.6116 -0.7185
 7415TIP3   OH246439   1.813   5.650   1.248  0.0743 -0.1310 -0.4167
 7415TIP3    H146440   1.764   5.717   1.298 -0.7503 -0.1472 -1.1807
 7415TIP3    H246441   1.745   5.594   1.211  0.7138 -0.5524 -0.9617
 7416TIP3   OH246442   3.326   3.286   8.098  0.0409  0.4713  0.0940
 7416TIP3    H146443   3.236   3.272   8.128 -0.5267  0.2277 -1.6060
 7416TIP3    H246444   3.323   3.371   8.053  0.9701  1.0552  1.1084
 7417TIP3   OH246445   5.842   6.566   7.804  0.3666  0.1762 -0.1027
 7417TIP3    H146446   5.865   6.658   7.791  1.0160  0.1091  0.5051
 7417TIP3    H246447   5.838   6.555   7.899  0.4021 -0.4524 -0.1691
 7418TIP3   OH246448   1.759   2.463   1.301 -0.2179  0.2243  0.4198
 7418TIP3    H146449   1.714   2.380   1.289 -0.1825  0.2181  0.3321
 7418TIP3    H246450   1.819   2.447   1.375  1.9113 -0.7188 -1.4042
 7419TIP3   OH246451   4.062   0.390   7.717  0.3529 -0.0147 -0.6742
 7419TIP3    H146452   4.122   0.465   7.716 -0.6961  0.9001  0.6984
 7419TIP3    H246453   4.092   0.336   7.790 -0.5259  0.5050  0.0891
 7420TIP3   OH246454   3.361   7.599   0.692 -0.0306  0.4670  0.2077
 7420TIP3    H146455   3.452   7.630   0.689  0.4477 -0.9920 -1.3446
 7420TIP3    H246456   3.348   7.575   0.784  1.2476  0.3956  0.3913
 7421TIP3   OH246457   6.630   5.232   8.824 -0.2344  0.1540  0.1555
 7421TIP3    H146458   6.549   5.282   8.823  0.1916  0.8725  0.4140
 7421TIP3    H246459   6.647   5.212   8.732 -0.1326  0.9736 -0.0148
 7422TIP3   OH246460   6.661   7.317   2.070 -0.3560  0.2909  0.1607
 7422TIP3    H146461   6.736   7.295   2.015 -0.6947 -1.9907  0.5445
 7422TIP3    H246462   6.699   7.369   2.142  0.6343  0.2859 -0.3385
 7423TIP3   OH246463   7.357   2.783   1.480 -0.4634 -0.3612 -0.2999
 7423TIP3    H146464   7.420   2.842   1.523 -1.6578  0.2715  0.6467
 7423TIP3    H246465   7.388   2.777   1.390  3.7115 -3.8226  1.0496
 7424TIP3   OH246466   2.442   5.908   0.822 -0.0003  0.1211 -0.3758
 7424TIP3    H146467   2.394   5.887   0.902  0.4522 -0.9736 -0.3733
 7424TIP3    H246468   2.519   5.956   0.852  0.1562 -0.2656 -0.1481
 7425TIP3   OH246469   7.677   4.108   0.749  0.2105 -0.1310  0.0108
 7425TIP3    H146470   7.730   4.051   0.806  1.2567  0.9230  0.1321
 7425TIP3    H246471   7.587   4.096   0.780 -0.0678 -3.8318 -1.7659
 7426TIP3   OH246472   2.188   0.013   0.349  0.2072  0.2082 -0.3207
 7426TIP3    H146473   2.114   0.010   0.410  0.3317 -1.2223 -0.1992
 7426TIP3    H246474   2.161  -0.043   0.276  0.3004  1.4252 -1.3320
 7427TIP3   OH246475   7.606   6.351   0.338 -0.1807  0.0266  0.2529
 7427TIP3    H146476   7.611   6.288   0.409  0.9216  0.8060  0.8988
 7427TIP3    H246477   7.529   6.404   0.358  0.9241  1.1569  1.6809
 7428TIP3   OH246478   1.680   2.262   0.592 -0.1024 -0.3834 -0.0736
 7428TIP3    H146479   1.697   2.217   0.510 -2.4483  1.4237 -1.7034
 7428TIP3    H246480   1.710   2.352   0.577 -2.3949  0.5071  0.2010
 7429TIP3   OH246481   0.957   3.619   7.981 -0.0673  0.6859 -0.5160
 7429TIP3    H146482   1.006   3.644   8.059  0.1913 -0.6388 -0.2328
 7429TIP3    H246483   0.876   3.580   8.016 -1.0346  2.1770 -0.9643
 7430TIP3   OH246484   3.927   6.166   1.995  0.0166  0.1398  0.1498
 7430TIP3    H146485   3.949   6.201   2.082 -0.4159  0.3844  0.1642
 7430TIP3    H246486   4.005   6.119   1.968  0.7136  1.3129  0.0370
 7431TIP3   OH246487   3.723   1.874   1.072  0.5921  0.1062 -0.2444
 7431TIP3    H146488   3.768   1.795   1.102  1.0239  0.5964  0.4151
 7431TIP3    H246489   3.634   1.866   1.106  1.0880  0.6873  1.2747
 7432TIP3   OH246490   5.475   4.660   9.620 -0.3254  0.0750  0.3243
 7432TIP3    H146491   5.460   4.753   9.636 -0.1530  0.2119 -0.3047
 7432TIP3    H246492   5.570   4.651   9.621 -0.2861  0.1787 -1.0956
 7433TIP3   OH246493   1.235   3.261   8.389  0.2924  0.1784 -0.3424
 7433TIP3    H146494   1.166   3.273   8.454  0.5039 -0.5988  0.0401
 7433TIP3    H246495   1.315   3.291   8.434  0.1461  1.4891 -0.9342
 7434TIP3   OH246496   6.431   5.459   9.303 -0.4267  0.2867  0.4748
 7434TIP3    H146497   6.456   5.485   9.214  0.9296 -0.0228  0.7503
 7434TIP3    H246498   6.392   5.372   9.292 -0.1712  0.2056  0.1826
 7435TIP3   OH246499   6.111   4.244   7.772  0.0792 -0.1373 -0.4464
 7435TIP3    H146500   6.070   4.279   7.692 -0.3921 -0.8363 -0.5130
 7435TIP3    H246501   6.050   4.178   7.804  1.4456 -1.7059 -0.9256
 7436TIP3   OH246502   3.154   3.810   8.557  0.4217  0.2849  0.6623
 7436TIP3    H146503   3.123   3.731   8.512 -1.0513  1.3330 -0.2727
 7436TIP3    H246504   3.249   3.804   8.552  0.3266 -0.8566 -0.4356
 7437TIP3   OH246505   5.274   0.032   6.865  0.1985  0.1976 -0.1667
 7437TIP3    H146506   5.367   0.014   6.851 -0.1001 -0.4280 -1.5077
 7437TIP3    H246507   5.233   0.014   6.781 -1.0829  0.9141  0.2787
 7438TIP3   OH246508   5.617   7.407   0.239  0.1793  0.1213 -0.6543
 7438TIP3    H146509   5.640   7.411   0.147  3.2008 -0.3032 -0.0188
 7438TIP3    H246510   5.673   7.472   0.281 -1.3532  0.5343  0.8828
 7439TIP3   OH246511   7.134   0.081   0.319  0.0687 -0.6473  0.1548
 7439TIP3    H146512   7.154   0.124   0.236 -1.3106 -0.8147 -0.2875
 7439TIP3    H246513   7.098  -0.005   0.294  0.4255 -1.0437  0.9491
 7440TIP3   OH246514   6.308   2.214   8.029  0.2928 -0.3193  0.5017
 7440TIP3    H146515   6.279   2.227   7.939  2.2826 -0.3363 -0.1879
 7440TIP3    H246516   6.340   2.124   8.031  0.5584 -0.2195  1.1461
 7441TIP3   OH246517   3.642   2.203   2.939  0.3640  0.1320 -0.2028
 7441TIP3    H146518   3.735   2.181   2.936  0.2003 -0.5031 -0.9546
 7441TIP3    H246519   3.639   2.286   2.987  1.3444  0.3005 -0.3965
 7442TIP3   OH246520   0.209   4.656   2.892  0.6777 -0.3231  0.0723
 7442TIP3    H146521   0.296   4.678   2.926  0.9091 -0.0991 -0.6441
 7442TIP3    H246522   0.176   4.739   2.857 -0.3332 -0.1237  1.4111
 7443TIP3   OH246523   3.765   3.621   8.825  0.1434  0.4360 -0.2183
 7443TIP3    H146524   3.824   3.552   8.855 -0.0039  0.6648  0.6266
 7443TIP3    H246525   3.707   3.637   8.900 -0.9336  0.2756 -0.9915
 7444TIP3   OH246526   7.009   6.839   2.001 -0.3322 -0.5227 -0.8261
 7444TIP3    H146527   6.984   6.748   1.989 -1.1050 -0.4951  0.3319
 7444TIP3    H246528   6.927   6.887   1.990 -1.1614 -0.4653  3.6576
 7445TIP3   OH246529   1.257   2.175   1.553  0.0961 -0.4464 -0.2261
 7445TIP3    H146530   1.283   2.083   1.553  0.9945 -0.2163 -1.3969
 7445TIP3    H246531   1.317   2.218   1.614  1.0195 -0.3056 -1.2116
 7446TIP3   OH246532   6.345   6.921   8.161 -0.1629  0.0555 -0.4105
 7446TIP3    H146533   6.373   7.003   8.122  0.4817 -0.2191 -0.5288
 7446TIP3    H246534   6.250   6.929   8.167 -0.3478 -0.1244 -2.5429
 7447TIP3   OH246535   2.176   4.404   8.771 -0.3540  0.0367 -0.2022
 7447TIP3    H146536   2.269   4.381   8.776 -0.7866 -1.6003  0.7898
 7447TIP3    H246537   2.154   4.436   8.859 -1.3094 -2.0942  0.4058
 7448TIP3   OH246538   3.299   6.689   9.254  0.5282  0.3582 -0.0583
 7448TIP3    H146539   3.276   6.596   9.257 -2.1202  0.8077 -2.5356
 7448TIP3    H246540   3.217   6.735   9.273  0.8583  2.1336 -2.5010
 7449TIP3   OH246541   2.442   5.547   2.826  0.4673 -0.3811  0.2044
 7449TIP3    H146542   2.392   5.514   2.901 -2.2912  1.1647 -0.7933
 7449TIP3    H246543   2.419   5.640   2.822  1.1069 -0.2806 -2.1461
 7450TIP3   OH246544   3.251   2.647   1.481  0.2412  0.2369  0.5860
 7450TIP3    H146545   3.250   2.719   1.544  1.1196  0.5985  0.1991
 7450TIP3    H246546   3.343   2.621   1.476 -0.1370 -1.3137  1.1658
 7451TIP3   OH246547   3.882   3.830   9.294 -0.1595  0.1737  0.5432
 7451TIP3    H146548   3.919   3.889   9.229  0.4744  1.5840  2.1190
 7451TIP3    H246549   3.809   3.878   9.332  0.8469  0.3271  2.3934
 7452TIP3   OH246550   0.930   3.666   0.464  0.1596  0.1170  0.1425
 7452TIP3    H146551   0.843   3.644   0.431 -0.4408  0.6057  1.3308
 7452TIP3    H246552   0.990   3.609   0.416 -0.7078  0.4468 -1.3836
 7453TIP3   OH246553   0.993   4.399   7.899  0.0806  0.2132  0.3327
 7453TIP3    H146554   1.049   4.326   7.924  0.0663 -0.4432 -1.4341
 7453TIP3    H246555   0.992   4.397   7.803 -1.0276  1.6920  0.2793
 7454TIP3   OH246556   3.194   1.191   8.694 -0.2777  0.1413 -0.5567
 7454TIP3    H146557   3.142   1.262   8.654 -0.6800 -0.5720 -1.3388
 7454TIP3    H246558   3.240   1.151   8.620 -0.6568 -0.8978 -0.2531
 7455TIP3   OH246559   4.040   2.334   1.250 -0.8498 -0.5736  0.0003
 7455TIP3    H146560   3.987   2.260   1.221 -0.6713 -0.0018 -1.9126
 7455TIP3    H246561   4.107   2.343   1.182 -0.2787  0.7219  0.7153
 7456TIP3   OH246562   1.242   2.541   8.695  0.3183  0.1149  0.3135
 7456TIP3    H146563   1.180   2.537   8.622  3.1773 -0.5027 -2.2967
 7456TIP3    H246564   1.218   2.466   8.750 -2.0206  0.6837  0.1982
 7457TIP3   OH246565   5.726   3.355   7.376  0.1756 -0.2253  0.3851
 7457TIP3    H146566   5.655   3.404   7.334 -0.3741 -1.8267 -0.6726
 7457TIP3    H246567   5.805   3.382   7.329 -0.1905 -0.6712 -0.5134
 7458TIP3   OH246568   0.032   2.298   1.889 -0.7847  0.3960  0.4153
 7458TIP3    H146569   0.086   2.313   1.967  0.8842 -0.6618 -0.4859
 7458TIP3    H246570   0.093   2.267   1.823 -2.1022  1.5288 -1.4372
 7459TIP3   OH246571   0.223   3.679   0.810 -0.4809  0.0863 -0.5090
 7459TIP3    H146572   0.252   3.637   0.729 -0.1058 -0.4504 -0.1118
 7459TIP3    H246573   0.174   3.611   0.856 -0.5608  0.3360 -0.2207
 7460TIP3   OH246574   0.958   2.641   2.550 -0.1150 -0.4701  0.1504
 7460TIP3    H146575   0.959   2.653   2.645  2.9576  0.0081  0.1553
 7460TIP3    H246576   0.996   2.721   2.514 -1.5867 -0.4644 -1.5619
 7461TIP3   OH246577   1.156   1.773   9.083 -0.9004 -0.2480 -0.1115
 7461TIP3    H146578   1.162   1.865   9.109 -0.5537 -0.1468 -0.5376
 7461TIP3    H246579   1.171   1.724   9.163  2.1741  0.0140 -0.3999
 7462TIP3   OH246580   2.931   5.875   1.997  0.1157  0.1814 -0.3530
 7462TIP3    H146581   2.859   5.816   2.020 -0.1936  1.1829  1.4786
 7462TIP3    H246582   2.979   5.887   2.079  2.6347 -0.7324 -1.5776
 7463TIP3   OH246583   2.738   1.221   8.032  0.5271 -0.4000  0.2800
 7463TIP3    H146584   2.670   1.254   8.090  1.0791  1.6233 -0.1327
 7463TIP3    H246585   2.748   1.129   8.056 -0.5167 -0.0795  2.1285
 7464TIP3   OH246586   0.783   4.969   2.906 -0.0624  0.0619 -0.2903
 7464TIP3    H146587   0.797   4.992   2.814  0.6842 -1.6035 -0.6373
 7464TIP3    H246588   0.855   5.012   2.952 -0.6184  1.1657 -0.4145
 7465TIP3   OH246589   7.271   6.004   8.734  0.1567  0.7825  0.0877
 7465TIP3    H146590   7.325   6.032   8.807  1.1677  1.2657 -0.8167
 7465TIP3    H246591   7.297   6.060   8.661  0.5067 -0.8657 -1.1347
 7466TIP3   OH246592   2.698   1.601   8.081 -0.2109 -0.1420  0.2380
 7466TIP3    H146593   2.694   1.643   8.166  1.1205  1.0825 -0.2643
 7466TIP3    H246594   2.607   1.602   8.049 -0.8948 -1.4725  1.9829
 7467TIP3   OH246595   5.037   6.109   0.006  0.5447  0.1515 -0.2049
 7467TIP3    H146596   4.977   6.183  -0.004 -1.6875 -1.3771  1.1970
 7467TIP3    H246597   5.099   6.139   0.073 -0.9408  0.4574  1.0965
 7468TIP3   OH246598   0.905   7.564   7.391 -0.0171  0.4491  0.4705
 7468TIP3    H146599   0.868   7.476   7.389  1.0528 -0.0565 -2.6566
 7468TIP3    H246600   0.968   7.562   7.463 -0.7025 -1.0075  1.0601
 7469TIP3   OH246601   0.986   3.079   8.896  0.5833 -0.0419 -0.1568
 7469TIP3    H146602   0.995   3.023   8.973 -0.0113 -1.1333 -0.8500
 7469TIP3    H246603   0.970   3.166   8.931  1.4527 -0.3094  0.9522
 7470TIP3   OH246604   3.778   7.641   7.936 -0.1075  0.0116 -0.2284
 7470TIP3    H146605   3.712   7.702   7.903  0.5880  0.4612 -0.8130
 7470TIP3    H246606   3.856   7.694   7.949  0.4119 -0.6868 -0.4200
 7471TIP3   OH246607   7.655   2.353   9.495 -0.3823 -0.1965  0.2348
 7471TIP3    H146608   7.707   2.285   9.536 -0.0659  0.5977  1.2098
 7471TIP3    H246609   7.565   2.332   9.520 -0.3470 -0.5777  0.0437
 7472TIP3   OH246610   1.695   4.134   9.621 -0.1583  0.5666 -0.0352
 7472TIP3    H146611   1.684   4.042   9.644 -0.3531  0.6605  0.2485
 7472TIP3    H246612   1.653   4.182   9.693 -0.2126  0.8719 -0.2705
 7473TIP3   OH246613   2.608   1.350   0.922  0.5404  0.1876  0.2083
 7473TIP3    H146614   2.573   1.261   0.912  0.6002 -0.0001  1.4869
 7473TIP3    H246615   2.698   1.343   0.892  0.0509  0.2480 -1.3730
 7474TIP3   OH246616   3.564   7.091   9.205 -0.4167  0.2307 -0.1336
 7474TIP3    H146617   3.527   7.129   9.285 -1.5714 -1.3294  0.1299
 7474TIP3    H246618   3.614   7.015   9.235  1.6226  1.3138 -0.6640
 7475TIP3   OH246619   2.479   4.093   8.449  0.4380 -0.3290  0.0146
 7475TIP3    H146620   2.531   4.094   8.530 -0.7982  0.4017  0.8345
 7475TIP3    H246621   2.391   4.068   8.478  0.3444 -1.7447 -1.3720
 7476TIP3   OH246622   1.967   4.771   1.396 -0.5048  0.0234 -0.2765
 7476TIP3    H146623   1.940   4.733   1.313  1.5108 -1.2195 -0.4135
 7476TIP3    H246624   2.047   4.820   1.376 -0.3850  0.3127  0.7943
 7477TIP3   OH246625   2.865   0.551   7.330  0.1973 -0.2830  0.0749
 7477TIP3    H146626   2.779   0.577   7.297  0.4846 -0.9072 -1.2022
 7477TIP3    H246627   2.868   0.588   7.419 -1.2409  0.0383  0.0179
 7478TIP3   OH246628   7.231   7.582   8.999 -0.4731  0.1952 -0.2856
 7478TIP3    H146629   7.236   7.605   9.092  1.1455  1.0663 -0.5567
 7478TIP3    H246630   7.140   7.601   8.975 -0.8138  0.3316  1.0217
 7479TIP3   OH246631   6.241   0.240   8.556  0.5764 -0.4107  0.4212
 7479TIP3    H146632   6.208   0.226   8.468 -1.4196 -1.2315  1.2407
 7479TIP3    H246633   6.206   0.325   8.582 -0.3033 -0.9476  1.0301
 7480TIP3   OH246634   2.097   1.658   0.839 -0.1771  0.4018 -0.4212
 7480TIP3    H146635   2.172   1.618   0.883 -0.4007  0.7031  0.2502
 7480TIP3    H246636   2.052   1.707   0.908 -0.7114  0.6325 -0.9235
 7481TIP3   OH246637   7.052   7.559   1.690 -0.1568 -0.0702  0.1798
 7481TIP3    H146638   7.056   7.651   1.663  0.8008 -0.1474  0.0235
 7481TIP3    H246639   6.959   7.540   1.696 -0.4582  1.6767  2.8015
 7482TIP3   OH246640   1.392   5.499   1.330 -0.5143 -0.1041  0.1037
 7482TIP3    H146641   1.377   5.473   1.239 -0.5556  0.6033 -0.1004
 7482TIP3    H246642   1.307   5.530   1.360 -0.3101  0.4865  0.0974
 7483TIP3   OH246643   7.643   2.818   2.861 -0.0532 -0.4533 -0.2810
 7483TIP3    H146644   7.677   2.782   2.943  1.1872  0.0555 -0.5435
 7483TIP3    H246645   7.548   2.812   2.869  0.0401 -0.1186  1.3238
 7484TIP3   OH246646   5.482   6.829   9.168  0.6317  0.2700  0.1048
 7484TIP3    H146647   5.451   6.819   9.077 -1.6626 -2.0259  1.0055
 7484TIP3    H246648   5.562   6.777   9.171  0.3006 -0.2977 -0.4416
 7485TIP3   OH246649   1.475   3.717   7.789 -0.5939  0.3381  0.2328
 7485TIP3    H146650   1.483   3.807   7.820 -1.2389 -0.2567  2.2971
 7485TIP3    H246651   1.529   3.666   7.849  0.4261 -0.5934 -1.4093
 7486TIP3   OH246652   5.084   0.307   7.503  0.5219 -0.2014  0.8154
 7486TIP3    H146653   5.036   0.390   7.494  1.0543  0.0890  0.5813
 7486TIP3    H246654   5.023   0.241   7.471  0.3093  0.1747  0.4230
 7487TIP3   OH246655   4.068   7.438   9.113 -0.6739  0.4759  0.7628
 7487TIP3    H146656   4.072   7.501   9.041  1.7859  0.6461  0.9598
 7487TIP3    H246657   4.107   7.358   9.077 -0.0087  0.3679  1.6776
 7488TIP3   OH246658   6.939   1.573   7.883  0.1199 -0.0545  0.1403
 7488TIP3    H146659   6.871   1.585   7.949 -0.2857  1.6376 -0.5272
 7488TIP3    H246660   7.020   1.563   7.933 -0.2516  0.6575  0.9085
 7489TIP3   OH246661   1.816   6.147   2.402  0.1412 -0.5629  0.2394
 7489TIP3    H146662   1.840   6.062   2.438  0.5083 -0.6051 -0.0925
 7489TIP3    H246663   1.838   6.210   2.470 -0.9594 -0.8099  0.8355
 7490TIP3   OH246664   7.655   1.387   7.418  0.1924  0.2265  0.0266
 7490TIP3    H146665   7.606   1.329   7.476 -1.8795  1.9371  0.0872
 7490TIP3    H246666   7.647   1.346   7.332  1.1219 -0.9832  0.4870
 7491TIP3   OH246667   6.733   2.460   9.954 -0.0160 -0.3755 -0.3719
 7491TIP3    H146668   6.684   2.455  10.036  0.8343  1.6946  0.3228
 7491TIP3    H246669   6.819   2.423   9.975  0.6843  1.4369  0.1234
 7492TIP3   OH246670   1.769   1.439   2.178  0.2369  0.0240 -0.2504
 7492TIP3    H146671   1.769   1.352   2.139 -2.1486 -0.3893  0.4705
 7492TIP3    H246672   1.682   1.475   2.157  0.9971  2.0599 -0.1470
 7493TIP3   OH246673   1.749   7.342   0.705 -0.1170 -0.2224  0.2340
 7493TIP3    H146674   1.682   7.386   0.758  0.6811  0.6995  0.5046
 7493TIP3    H246675   1.703   7.318   0.625 -0.4560  1.7417 -0.2232
 7494TIP3   OH246676   7.538   6.513   9.050  0.3690 -0.4946 -0.7814
 7494TIP3    H146677   7.479   6.585   9.072 -0.0133 -0.8984 -0.4566
 7494TIP3    H246678   7.551   6.521   8.955  0.3933  0.0437 -0.7342
 7495TIP3   OH246679   0.262   4.024   9.877 -0.2816  0.8853 -0.2491
 7495TIP3    H146680   0.182   4.060   9.916 -0.4483 -0.0647  0.3416
 7495TIP3    H246681   0.235   3.995   9.790 -0.9967 -0.7616  0.4638
 7496TIP3   OH246682   2.456   0.933   0.662  0.3826 -0.4067  0.2355
 7496TIP3    H146683   2.539   0.888   0.646  0.3663 -0.9123  1.4450
 7496TIP3    H246684   2.463   1.016   0.615  1.4062 -0.6266 -0.0100
 7497TIP3   OH246685   6.267   1.243   1.839  0.0918  0.0488  0.0641
 7497TIP3    H146686   6.175   1.225   1.819 -0.7633  0.3865  3.1519
 7497TIP3    H246687   6.280   1.206   1.926  2.5497  1.1237  0.2399
 7498TIP3   OH246688   6.163   7.144   0.651  0.1824  0.0955  0.2691
 7498TIP3    H146689   6.229   7.191   0.701  0.2967 -1.2298  1.4438
 7498TIP3    H246690   6.079   7.176   0.685  0.2477  0.1733  0.3553
 7499TIP3   OH246691   4.113   3.677   9.358  0.2711 -0.0728  0.2071
 7499TIP3    H146692   4.101   3.642   9.446 -0.7712 -1.4243 -0.4327
 7499TIP3    H246693   4.046   3.744   9.349 -0.2323 -0.5773  0.1393
 7500TIP3   OH246694   4.890   2.635   7.892  0.4096  0.2361  0.0029
 7500TIP3    H146695   4.832   2.710   7.879 -1.1720 -0.8653  0.4949
 7500TIP3    H246696   4.858   2.569   7.831  0.1745 -0.9155  1.3234
 7501TIP3   OH246697   0.506   6.043   8.235 -0.2655  0.2584 -0.4056
 7501TIP3    H146698   0.446   5.978   8.271 -0.3752 -0.6444 -2.1055
 7501TIP3    H246699   0.464   6.069   8.152  0.9299  0.7650 -0.8659
 7502TIP3   OH246700   3.021   0.255   9.432 -0.1830  0.0339 -0.0899
 7502TIP3    H146701   3.005   0.334   9.380 -3.7493  1.7416  3.1045
 7502TIP3    H246702   3.103   0.272   9.478 -0.4657  1.5307 -0.1032
 7503TIP3   OH246703   3.711   6.521   1.974 -0.0128 -0.3195 -0.7756
 7503TIP3    H146704   3.686   6.448   1.918 -0.6239  0.3715 -1.4292
 7503TIP3    H246705   3.728   6.593   1.914 -2.0195  0.8380 -0.0730
 7504TIP3   OH246706   5.886   1.957   2.271 -0.3080 -0.4661  0.2002
 7504TIP3    H146707   5.795   1.965   2.300 -0.6749  0.3680 -1.1115
 7504TIP3    H246708   5.934   2.020   2.325 -0.6084 -0.4855  0.4944
 7505TIP3   OH246709   2.457   4.786   8.092 -0.1999 -0.1039 -0.4905
 7505TIP3    H146710   2.446   4.691   8.094  1.2669 -0.2956 -0.7238
 7505TIP3    H246711   2.549   4.799   8.071 -0.8536  1.3816 -2.8597
 7506TIP3   OH246712   4.665   1.586   8.009 -0.0689 -0.0154  0.1303
 7506TIP3    H146713   4.641   1.666   8.056 -1.7088 -0.9007  0.9008
 7506TIP3    H246714   4.691   1.525   8.078  1.2427 -0.1508 -0.4542
 7507TIP3   OH246715   4.141   0.118   2.316 -0.6106  0.2459 -0.3086
 7507TIP3    H146716   4.216   0.062   2.337 -0.2826  0.6854 -0.3020
 7507TIP3    H246717   4.124   0.167   2.396  1.0191  2.3559 -1.1868
 7508TIP3   OH246718   2.039   1.661   9.619 -0.0712 -0.0106 -0.5423
 7508TIP3    H146719   1.996   1.587   9.576 -0.4149 -0.2119  0.1372
 7508TIP3    H246720   2.049   1.634   9.710  1.1706  0.1887 -0.6032
 7509TIP3   OH246721   6.469   6.825   8.620  0.1912  1.0031  0.0749
 7509TIP3    H146722   6.548   6.872   8.646  0.7605  1.0849 -1.6883
 7509TIP3    H246723   6.486   6.799   8.530 -2.4140  2.3607 -0.8927
 7510TIP3   OH246724   3.959   7.447   1.909 -0.2558  0.0184 -0.1113
 7510TIP3    H146725   4.026   7.422   1.845  0.4691 -0.1995  0.7146
 7510TIP3    H246726   3.896   7.498   1.858 -0.9687 -2.1104 -1.5166
 7511TIP3   OH246727   3.640   0.182   1.514 -0.0041  0.0721 -0.1152
 7511TIP3    H146728   3.653   0.104   1.461  0.1081  0.7222 -1.0739
 7511TIP3    H246729   3.719   0.187   1.569  1.0535  0.6776 -1.6025
 7512TIP3   OH246730   2.063   0.711   9.750  0.2847 -0.0199  0.0092
 7512TIP3    H146731   2.131   0.758   9.703 -0.4466 -0.5241 -1.6162
 7512TIP3    H246732   2.000   0.779   9.776 -1.3337 -0.0518 -3.2777
 7513TIP3   OH246733   3.903   2.483   2.316  0.0647  0.5636  0.5959
 7513TIP3    H146734   3.810   2.482   2.292  0.2842 -0.2123 -0.2887
 7513TIP3    H246735   3.935   2.396   2.291  0.7380  0.3415  2.1100
 7514TIP3   OH246736   0.284   3.061   8.941 -0.4607 -0.6139 -0.1443
 7514TIP3    H146737   0.202   3.102   8.914 -0.0068  0.7814  0.4591
 7514TIP3    H246738   0.291   3.082   9.035  0.6977 -0.4905 -0.2429
 7515TIP3   OH246739   1.481   3.335   3.643  0.7105  0.4339 -0.4792
 7515TIP3    H146740   1.391   3.323   3.674 -0.0771  0.2767 -2.6765
 7515TIP3    H246741   1.534   3.283   3.703 -1.0039 -1.9797 -0.9267
 7516TIP3   OH246742   3.369   5.838   0.493 -0.4434 -0.4392 -0.6416
 7516TIP3    H146743   3.435   5.894   0.451  2.2025 -2.6979  0.1600
 7516TIP3    H246744   3.331   5.893   0.561  2.4837  0.2977  0.5382
 7517TIP3   OH246745   0.310   2.441   0.707 -0.0809  0.2076 -0.3933
 7517TIP3    H146746   0.326   2.347   0.718 -1.2973  0.1638  1.5289
 7517TIP3    H246747   0.229   2.445   0.655 -0.0404  0.1920 -0.4578
 7518TIP3   OH246748   1.896   2.916   9.365  0.3946 -0.1825 -0.1100
 7518TIP3    H146749   1.952   2.921   9.443 -0.2447  0.0725  0.3419
 7518TIP3    H246750   1.813   2.955   9.392  0.5814  1.1338 -1.3007
 7519TIP3   OH246751   0.856   5.559   1.935 -0.4451  0.2344  0.5512
 7519TIP3    H146752   0.781   5.602   1.893 -1.2979 -0.4901  1.2913
 7519TIP3    H246753   0.871   5.609   2.015 -0.9446 -0.3528  1.0244
 7520TIP3   OH246754   0.407   3.656   1.017  0.0116  0.3528 -1.0046
 7520TIP3    H146755   0.347   3.701   0.958  1.0245  1.7987 -0.9776
 7520TIP3    H246756   0.494   3.676   0.983  0.5322 -2.4050 -1.5556
 7521TIP3   OH246757   3.792   2.293   9.240 -0.0122 -0.9823 -0.5603
 7521TIP3    H146758   3.867   2.246   9.279 -0.8876 -2.2228 -0.3110
 7521TIP3    H246759   3.750   2.228   9.184 -1.1579 -0.4450 -0.3501
 7522TIP3   OH246760   3.466   2.560   0.481  0.5264  0.0750 -0.1883
 7522TIP3    H146761   3.424   2.615   0.547  1.0977 -1.0397  1.1508
 7522TIP3    H246762   3.483   2.619   0.408 -0.3524  1.2888  0.5479
 7523TIP3   OH246763   1.860   1.049   0.803 -0.4223 -0.2501  0.4802
 7523TIP3    H146764   1.775   1.056   0.760 -0.6923  1.4983  1.2144
 7523TIP3    H246765   1.910   0.989   0.747 -2.0679 -1.2062 -0.0409
 7524TIP3   OH246766   1.785   0.072   1.082  0.2472 -0.2795 -0.0191
 7524TIP3    H146767   1.758   0.035   0.998  0.4933  1.5492 -0.9684
 7524TIP3    H246768   1.800   0.165   1.063  1.4963 -0.0608  1.7828
 7525TIP3   OH246769   2.086   2.497   1.234 -0.6762 -0.3692  0.4144
 7525TIP3    H146770   2.081   2.580   1.186  1.3242 -0.5507 -0.1993
 7525TIP3    H246771   2.072   2.430   1.168  0.2865 -0.5707  0.3984
 7526TIP3   OH246772   3.205   3.333   0.851 -0.6205 -0.3168  0.3592
 7526TIP3    H146773   3.202   3.419   0.809  0.6550 -0.3156  0.2328
 7526TIP3    H246774   3.164   3.347   0.937 -1.3359  0.1696 -0.0494
 7527TIP3   OH246775   1.867   3.894   0.607 -0.2802 -0.1664  0.4397
 7527TIP3    H146776   1.843   3.848   0.526 -2.0848 -1.3087  1.5672
 7527TIP3    H246777   1.902   3.825   0.664  0.7006  0.5796  0.7615
 7528TIP3   OH246778   3.118   2.270   0.861  0.2852 -0.1363  0.3889
 7528TIP3    H146779   3.123   2.183   0.902  0.0779 -0.5250 -0.3751
 7528TIP3    H246780   3.197   2.275   0.807 -0.3700 -0.4149 -0.6185
 7529TIP3   OH246781   0.960   4.336   7.612  0.4014  0.6891 -0.1847
 7529TIP3    H146782   0.930   4.341   7.521  0.5957 -0.1364 -0.3024
 7529TIP3    H246783   1.039   4.390   7.614 -0.1345  1.4954 -0.2703
 7530TIP3   OH246784   5.563   5.225   8.213 -0.4467  0.5903  0.1347
 7530TIP3    H146785   5.527   5.292   8.155  1.0799 -0.5125 -2.2453
 7530TIP3    H246786   5.626   5.272   8.268 -1.0726  1.4576  0.1344
 7531TIP3   OH246787   6.497   3.004   8.516 -0.1469  0.3808  0.5012
 7531TIP3    H146788   6.436   3.007   8.443  0.2602 -1.3780  0.0264
 7531TIP3    H246789   6.499   2.911   8.541  1.2190  0.6380  1.4562
 7532TIP3   OH246790   1.050   2.335   8.330  0.7663  0.2036 -0.4199
 7532TIP3    H146791   1.063   2.359   8.422  1.5868  1.4692 -0.8406
 7532TIP3    H246792   0.958   2.309   8.324  0.6461  0.3239  0.7033
 7533TIP3   OH246793   6.324   6.246   6.524 -0.2691  0.0229  0.1014
 7533TIP3    H146794   6.398   6.288   6.481 -1.3186  0.8157 -0.9976
 7533TIP3    H246795   6.305   6.169   6.471 -0.0553 -0.3494  0.5560
 7534TIP3   OH246796   6.155   1.155   8.244 -0.7013  0.4582  0.4994
 7534TIP3    H146797   6.234   1.207   8.229 -1.6809  1.7559 -0.2818
 7534TIP3    H246798   6.123   1.183   8.329 -0.0647 -0.4428  1.0546
 7535TIP3   OH246799   0.042   4.170   0.493  0.6996  0.5331 -0.6727
 7535TIP3    H146800   0.069   4.261   0.494  1.0706  0.4549  1.7791
 7535TIP3    H246801   0.045   4.142   0.585  1.7654 -2.2757 -1.4440
 7536TIP3   OH246802   0.695   4.318   9.083 -0.1263 -0.2579  0.3092
 7536TIP3    H146803   0.719   4.411   9.086 -1.6438  0.1630 -0.1361
 7536TIP3    H246804   0.778   4.274   9.064  0.5462  1.0316  0.0948
 7537TIP3   OH246805   1.015   3.215   2.038 -0.1246  0.6088 -0.7322
 7537TIP3    H146806   1.109   3.199   2.035 -0.4054 -1.1385 -1.4978
 7537TIP3    H246807   0.993   3.246   1.950 -0.5862 -1.2642 -1.3210
 7538TIP3   OH246808   6.669   5.158   8.240  0.4314  0.0943 -0.1908
 7538TIP3    H146809   6.695   5.122   8.156 -1.8968 -1.4981 -0.3171
 7538TIP3    H246810   6.699   5.093   8.304  0.5724  0.3934  0.0496
 7539TIP3   OH246811   3.358   5.398   8.566 -0.0927  0.5888  0.3714
 7539TIP3    H146812   3.441   5.373   8.526 -0.5570  0.8447 -0.7844
 7539TIP3    H246813   3.338   5.484   8.529 -1.3920  0.0767 -0.1771
 7540TIP3   OH246814   0.630   5.867   1.901 -0.2807 -0.5110 -0.3190
 7540TIP3    H146815   0.575   5.795   1.931 -0.9960 -0.1094 -0.6331
 7540TIP3    H246816   0.593   5.945   1.943 -0.7003 -0.0726 -1.4541
 7541TIP3   OH246817   7.169   6.685   0.853  0.3138 -0.3576 -0.2011
 7541TIP3    H146818   7.112   6.760   0.836  1.1368  0.0449 -1.2442
 7541TIP3    H246819   7.112   6.622   0.898 -0.8311  0.2338 -0.7753
 7542TIP3   OH246820   5.244   5.849   8.832 -0.2174 -0.0321  0.3237
 7542TIP3    H146821   5.220   5.828   8.741  1.6044 -2.4006  0.2685
 7542TIP3    H246822   5.263   5.943   8.831 -0.4010  0.0286 -1.7224
 7543TIP3   OH246823   4.020   6.716   0.644 -0.1106  0.2005 -0.4231
 7543TIP3    H146824   3.941   6.769   0.644 -1.4424 -1.5815  2.3486
 7543TIP3    H246825   3.993   6.632   0.680  3.2737 -0.0842  1.9394
 7544TIP3   OH246826   2.647   4.131   9.182 -0.0222  0.3148  0.2450
 7544TIP3    H146827   2.632   4.210   9.235  0.2434 -0.8809  2.2199
 7544TIP3    H246828   2.624   4.059   9.241  0.7336 -1.1239 -1.1631
 7545TIP3   OH246829   2.126   3.429   1.334  0.2608 -0.2552  0.3245
 7545TIP3    H146830   2.212   3.457   1.366  0.1874  0.9597 -0.4701
 7545TIP3    H246831   2.115   3.341   1.369  0.9725  0.3164  2.0739
 7546TIP3   OH246832   0.955   2.151   7.394 -0.2618 -0.0017  0.2624
 7546TIP3    H146833   0.866   2.183   7.384 -0.9799 -1.7173  0.6706
 7546TIP3    H246834   0.978   2.116   7.308  0.7406  2.0475 -0.3471
 7547TIP3   OH246835   0.689   6.184   8.378  0.0974  0.1348 -0.1660
 7547TIP3    H146836   0.648   6.216   8.458  1.2363 -0.0433  0.5116
 7547TIP3    H246837   0.619   6.139   8.331 -0.3579 -0.6610  1.2180
 7548TIP3   OH246838   4.759   4.336   9.485 -0.2207  0.0360  0.6418
 7548TIP3    H146839   4.782   4.320   9.576  1.7510 -2.5153 -0.1946
 7548TIP3    H246840   4.811   4.412   9.459  0.1254  0.0353  1.3215
 7549TIP3   OH246841   2.104   2.839   7.744 -0.0426 -0.0518  0.3376
 7549TIP3    H146842   2.174   2.796   7.792  2.9306  4.3547  0.5278
 7549TIP3    H246843   2.044   2.870   7.812  0.7618  0.7276  0.7126
 7550TIP3   OH246844   2.907   5.839   8.428 -0.1253 -0.0994  0.2572
 7550TIP3    H146845   2.911   5.814   8.521  0.6411 -0.5772  0.1057
 7550TIP3    H246846   2.918   5.756   8.381 -1.6736 -0.0267 -0.2711
 7551TIP3   OH246847   3.320   3.379   2.764  0.0747 -0.5039  0.3853
 7551TIP3    H146848   3.310   3.456   2.709  2.5654 -0.1805  0.3001
 7551TIP3    H246849   3.244   3.381   2.821 -0.2800  1.6231 -0.0711
 7552TIP3   OH246850   4.539   0.011   9.897  0.2167  0.0560 -0.0304
 7552TIP3    H146851   4.614   0.022   9.839 -0.5816  1.0589 -0.9011
 7552TIP3    H246852   4.551   0.075   9.967 -0.3345  0.9420 -0.7314
 7553TIP3   OH246853   7.388   2.650   8.856 -0.5317 -0.1463  0.1664
 7553TIP3    H146854   7.483   2.648   8.869 -0.6399 -0.5733  1.0171
 7553TIP3    H246855   7.375   2.713   8.785  0.3762  0.0078  0.1130
 7554TIP3   OH246856   4.856   2.093   9.489 -0.0632  0.2414  0.4944
 7554TIP3    H146857   4.947   2.119   9.503  0.6239 -1.2212 -0.9283
 7554TIP3    H246858   4.815   2.170   9.449  1.3864 -0.0552 -1.7345
 7555TIP3   OH246859   6.879   6.835   0.060  0.2760 -0.5586  0.0223
 7555TIP3    H146860   6.880   6.753   0.010  0.1278  0.0411 -0.9907
 7555TIP3    H246861   6.921   6.899   0.002  0.4356  0.0738  0.8207
 7556TIP3   OH246862   4.862   1.232   0.318 -0.0896  0.8586 -0.1033
 7556TIP3    H146863   4.768   1.235   0.301 -0.2078 -0.6031  0.2172
 7556TIP3    H246864   4.898   1.180   0.246  0.1555 -0.5483  1.0093
 7557TIP3   OH246865   1.382   1.097   8.989 -0.1011  0.2635 -0.0643
 7557TIP3    H146866   1.300   1.102   8.940 -0.1829  0.0709  0.0493
 7557TIP3    H246867   1.445   1.059   8.927 -0.6578 -1.7569  0.5168
 7558TIP3   OH246868   3.732   6.351   9.380  0.2408  0.0425  0.1930
 7558TIP3    H146869   3.755   6.275   9.434  1.7563  0.1147 -0.2986
 7558TIP3    H246870   3.702   6.314   9.297  0.5401 -0.0340  0.1176
 7559TIP3   OH246871   2.133   2.083   7.222 -0.0269 -0.0862  0.4586
 7559TIP3    H146872   2.043   2.113   7.208 -0.1441 -0.6677 -0.1349
 7559TIP3    H246873   2.147   2.019   7.152  0.6453 -0.4403  0.9086
 7560TIP3   OH246874   3.852   0.962   9.432 -0.0262  0.2356  0.2165
 7560TIP3    H146875   3.826   0.871   9.414  0.0836  0.3026 -0.3009
 7560TIP3    H246876   3.852   1.004   9.346 -1.8207  1.1878  0.6293
 7561TIP3   OH246877   3.064   6.030   6.813 -0.0401 -0.1717 -0.5204
 7561TIP3    H146878   3.103   5.966   6.873 -0.2873 -0.4821 -0.6851
 7561TIP3    H246879   2.970   6.016   6.823 -0.1408  1.1366  0.4958
 7562TIP3   OH246880   2.642   5.151   1.856 -0.1749  0.5355 -0.2683
 7562TIP3    H146881   2.608   5.070   1.818 -1.0404  0.4930  0.5566
 7562TIP3    H246882   2.736   5.136   1.863 -0.3544 -0.5241  0.1359
 7563TIP3   OH246883   2.379   2.992   7.709  0.0034 -0.2156 -0.0400
 7563TIP3    H146884   2.471   2.966   7.713 -0.1771 -0.7394  2.2071
 7563TIP3    H246885   2.337   2.943   7.780 -1.5634  1.6316  0.4003
 7564TIP3   OH246886   7.517   4.044   8.645  0.1525  0.2193 -0.3505
 7564TIP3    H146887   7.494   4.025   8.554 -0.3214  0.1776 -0.2288
 7564TIP3    H246888   7.561   4.129   8.642  0.8701 -0.1557 -0.7104
 7565TIP3   OH246889   3.356   5.778   2.193 -0.3060  0.1201  0.1800
 7565TIP3    H146890   3.355   5.704   2.254 -0.8023  0.4428  0.5745
 7565TIP3    H246891   3.438   5.770   2.146 -1.5690 -2.3507 -1.8366
 7566TIP3   OH246892   3.897   3.176   9.065 -0.0274  0.5319  0.3543
 7566TIP3    H146893   3.942   3.152   9.145 -0.0915  0.6993  0.4415
 7566TIP3    H246894   3.817   3.220   9.094 -0.5532 -0.3030  0.2074
 7567TIP3   OH246895   5.906   6.127   8.768 -0.0255  0.6615  0.7198
 7567TIP3    H146896   5.993   6.166   8.761  0.2701 -0.2225 -1.4560
 7567TIP3    H246897   5.859   6.159   8.691 -1.0334 -0.2535  0.9262
 7568TIP3   OH246898   0.405   5.944   1.359 -0.1297  0.0343 -0.2426
 7568TIP3    H146899   0.338   5.942   1.427 -1.1495  0.9038 -1.1894
 7568TIP3    H246900   0.483   5.907   1.401 -0.8437  0.1710  1.2570
 7569TIP3   OH246901   2.220   5.112   9.688 -0.5281  0.4972  0.0642
 7569TIP3    H146902   2.271   5.128   9.767 -1.0004 -0.8729  0.6780
 7569TIP3    H246903   2.129   5.106   9.719 -1.0750  2.5554 -0.9531
 7570TIP3   OH246904   4.725   2.614   0.043 -0.4077 -0.6834 -0.0844
 7570TIP3    H146905   4.772   2.614   0.126 -0.0015  0.0404 -0.3088
 7570TIP3    H246906   4.774   2.675  -0.013 -1.2767 -0.3534 -0.5069
 7571TIP3   OH246907   0.303   4.891   0.258  0.1467  1.0031  0.0530
 7571TIP3    H146908   0.242   4.834   0.305 -0.0749  0.1534 -1.2250
 7571TIP3    H246909   0.361   4.926   0.326 -1.7081  1.8049  1.3039
 7572TIP3   OH246910   3.999   0.304   7.477  0.1769 -0.1524 -0.7616
 7572TIP3    H146911   4.070   0.242   7.457  0.3166  0.6922 -3.2097
 7572TIP3    H246912   4.014   0.329   7.568  1.0199 -2.5219 -0.1753
 7573TIP3   OH246913   0.634   6.940   7.603  0.3209  0.3489 -0.7442
 7573TIP3    H146914   0.706   6.877   7.602  0.3038  0.3340 -1.3130
 7573TIP3    H246915   0.651   6.998   7.529  0.1010  0.7475 -0.4859
 7574TIP3   OH246916   2.370   2.890   2.786 -0.0154  0.2993 -0.0525
 7574TIP3    H146917   2.279   2.863   2.801  0.4358 -1.5029 -0.3461
 7574TIP3    H246918   2.405   2.905   2.874  0.1154 -1.5854  0.2588
 7575TIP3   OH246919   7.497   2.129   2.631 -0.0449  0.3547  0.8435
 7575TIP3    H146920   7.484   2.222   2.611 -1.2310  0.2443  1.0131
 7575TIP3    H246921   7.480   2.122   2.725 -0.8754 -0.1716  0.6667
 7576TIP3   OH246922   3.522   3.451   1.720 -0.0700 -0.7589 -0.6352
 7576TIP3    H146923   3.431   3.435   1.693 -0.1778  0.0265 -0.7806
 7576TIP3    H246924   3.558   3.364   1.737 -0.4779 -1.1680 -1.7759
 7577TIP3   OH246925   6.740   1.952   9.648 -0.4109  0.6719  0.1835
 7577TIP3    H146926   6.807   2.013   9.679  0.8194  0.4770 -1.9191
 7577TIP3    H246927   6.778   1.912   9.570 -1.9166 -1.4594  0.4654
 7578TIP3   OH246928   4.022   7.593   8.914 -0.0726  0.3671  0.2386
 7578TIP3    H146929   3.954   7.661   8.913 -0.2114  0.2318  0.6082
 7578TIP3    H246930   4.011   7.547   8.831 -0.1388  0.6389  0.0958
 7579TIP3   OH246931   4.099   7.380   1.671  0.0481  0.0880 -0.3452
 7579TIP3    H146932   4.179   7.422   1.640 -1.3893  2.6061 -0.8855
 7579TIP3    H246933   4.041   7.378   1.595 -0.8033 -0.7372  0.2884
 7580TIP3   OH246934   0.713   3.695   7.603  0.3492  0.0561 -0.0034
 7580TIP3    H146935   0.707   3.786   7.633 -2.3144 -0.4551  1.3196
 7580TIP3    H246936   0.806   3.682   7.583  1.2430  2.2996  2.2218
 7581TIP3   OH246937   5.200   6.447   7.838  0.7373 -0.3792  0.4601
 7581TIP3    H146938   5.244   6.527   7.866  0.1282 -0.2588  1.1032
 7581TIP3    H246939   5.136   6.430   7.907 -1.1800  0.2122 -1.0673
 7582TIP3   OH246940   0.716   4.288   8.223  0.4110 -0.2006  0.3213
 7582TIP3    H146941   0.730   4.370   8.175  0.1546 -0.5572 -0.3760
 7582TIP3    H246942   0.798   4.240   8.212  0.6910  0.1050  1.0280
 7583TIP3   OH246943   1.189   1.155   6.787 -0.3694  0.3103 -0.1511
 7583TIP3    H146944   1.131   1.217   6.744 -1.1089 -0.3904 -0.1922
 7583TIP3    H246945   1.146   1.070   6.776  0.0008 -0.0450  0.9690
 7584TIP3   OH246946   7.397   6.189   9.362 -0.1984  0.1002 -0.0001
 7584TIP3    H146947   7.377   6.250   9.433 -0.2050 -2.4600  2.3853
 7584TIP3    H246948   7.455   6.124   9.403 -2.0095 -2.7730 -1.6478
 7585TIP3   OH246949   7.238   0.215   0.065 -0.1411  0.7948  0.0627
 7585TIP3    H146950   7.221   0.306   0.038  3.6314  2.0148  1.2080
 7585TIP3    H246951   7.267   0.171  -0.015 -0.5817  0.9766 -0.2034
 7586TIP3   OH246952   2.326   6.754   9.153 -0.3907 -0.3195 -0.1866
 7586TIP3    H146953   2.249   6.701   9.131 -1.2821 -0.4895  2.9457
 7586TIP3    H246954   2.383   6.694   9.201  0.7941  0.3541 -0.7159
 7587TIP3   OH246955   0.613   4.419   1.279 -0.0496 -0.1771  0.0015
 7587TIP3    H146956   0.694   4.470   1.271 -0.5507  0.6155 -0.1490
 7587TIP3    H246957   0.630   4.358   1.350  1.7258 -2.0288 -1.8860
 7588TIP3   OH246958   3.720   2.988   1.872  0.3019 -0.0056 -0.3998
 7588TIP3    H146959   3.662   3.002   1.947 -0.3637  3.3802 -1.3692
 7588TIP3    H246960   3.805   2.970   1.911 -0.2567  0.5279  1.1641
 7589TIP3   OH246961   4.296   1.661   0.077  0.3631 -0.5206 -0.2712
 7589TIP3    H146962   4.386   1.627   0.079  0.4099 -0.3843  0.8690
 7589TIP3    H246963   4.248   1.606   0.138 -0.3687 -0.6763 -0.9854
 7590TIP3   OH246964   5.688   0.499   9.682  0.0739  0.6222  0.1621
 7590TIP3    H146965   5.663   0.425   9.625 -0.1185  0.4638  0.4515
 7590TIP3    H246966   5.770   0.471   9.722 -0.4342  0.2018  0.9281
 7591TIP3   OH246967   1.092   1.460   9.043  0.3023  0.0601  0.2052
 7591TIP3    H146968   1.082   1.518   9.118  0.6933 -1.7723  1.7821
 7591TIP3    H246969   1.175   1.414   9.060  0.0635 -0.8697 -1.0069
 7592TIP3   OH246970   2.558   4.288   2.099  0.0587 -0.0451  0.5723
 7592TIP3    H146971   2.541   4.331   2.183 -1.8431  0.4955 -0.0419
 7592TIP3    H246972   2.526   4.349   2.033  0.0796 -1.1245 -0.4751
 7593TIP3   OH246973   6.885   4.790   6.895 -0.1640 -0.0119 -0.2199
 7593TIP3    H146974   6.881   4.694   6.895 -0.8284 -0.0093  1.1123
 7593TIP3    H246975   6.800   4.818   6.864 -0.0080  0.1516 -0.5042
 7594TIP3   OH246976   0.309   4.958   2.982 -0.0456 -0.0086 -0.1403
 7594TIP3    H146977   0.247   4.941   2.911 -1.0589  1.3512  0.3836
 7594TIP3    H246978   0.339   4.871   3.007 -0.3423 -0.5841 -1.6225
 7595TIP3   OH246979   0.959   6.989   9.344  0.0246  0.2568  0.1856
 7595TIP3    H146980   1.004   7.067   9.314  5.2283 -1.7259  1.6917
 7595TIP3    H246981   0.868   7.017   9.359  1.1384  5.4212 -0.9653
 7596TIP3   OH246982   7.577   3.880   7.520  0.1131  0.1202  0.4109
 7596TIP3    H146983   7.668   3.909   7.514 -0.6784  2.6344 -1.6201
 7596TIP3    H246984   7.550   3.906   7.608  0.9803  0.6149  0.5456
 7597TIP3   OH246985   4.336   1.969   1.528  0.1685 -0.3077  0.1112
 7597TIP3    H146986   4.299   2.055   1.507  1.8723  0.8453  1.4797
 7597TIP3    H246987   4.326   1.961   1.623 -1.3354 -2.3517 -0.1678
 7598TIP3   OH246988   4.139   5.896   0.259 -0.0789  0.2517 -0.1442
 7598TIP3    H146989   4.179   5.904   0.346  1.0738  0.6201 -0.7018
 7598TIP3    H246990   4.082   5.818   0.267  1.8895 -1.2215  0.2421
 7599TIP3   OH246991   3.681   4.668   9.875  0.1585  0.1652  0.1362
 7599TIP3    H146992   3.734   4.621   9.810 -2.1271 -0.6066 -1.2800
 7599TIP3    H246993   3.733   4.664   9.955  1.9985 -0.9876 -1.0394
 7600TIP3   OH246994   1.624   3.867   2.103  0.3350 -0.4916 -0.1536
 7600TIP3    H146995   1.537   3.833   2.124 -0.1034  0.7677  0.1785
 7600TIP3    H246996   1.672   3.863   2.185  0.0260  0.3923  0.0816
 7601TIP3   OH246997   5.311   6.320   0.563 -1.3123 -0.6397  0.1240
 7601TIP3    H146998   5.403   6.330   0.587 -1.5033 -0.3517  0.7763
 7601TIP3    H246999   5.301   6.227   0.542 -1.4230 -1.2370  2.5541
 7602TIP3   OH247000   2.988   2.701   2.050  0.5291 -0.0792  0.3977
 7602TIP3    H147001   2.972   2.632   1.984 -1.5363  0.6451  0.0508
 7602TIP3    H247002   2.978   2.783   2.001 -1.7529  0.4900  1.6598
 7603TIP3   OH247003   0.440   0.100   8.031  0.6983  0.3202  0.1682
 7603TIP3    H147004   0.518   0.147   8.001  1.6021  0.1117  2.0678
 7603TIP3    H247005   0.451   0.092   8.126 -2.0107  0.9235  0.6137
 7604TIP3   OH247006   5.630   4.780   6.972  0.2152  0.0721  0.1134
 7604TIP3    H147007   5.658   4.845   6.908 -0.2669 -0.9240 -1.1481
 7604TIP3    H247008   5.705   4.722   6.982  0.1766  0.0373  0.2053
 7605TIP3   OH247009   2.201   5.633   7.704  0.1603 -0.2672 -0.4954
 7605TIP3    H147010   2.148   5.554   7.710  1.2255 -1.0262 -0.7508
 7605TIP3    H247011   2.193   5.675   7.790  1.2699 -1.7895  0.4094
 7606TIP3   OH247012   2.770   1.654   7.670  0.8084 -0.0956  0.0157
 7606TIP3    H147013   2.817   1.659   7.587  2.7283 -0.9472  0.9760
 7606TIP3    H247014   2.679   1.639   7.646  1.2450  0.1794 -1.9286
 7607TIP3   OH247015   0.049   6.857   2.722 -0.2726  0.6062 -0.1624
 7607TIP3    H147016   0.104   6.842   2.799 -1.1481  0.0992  0.3831
 7607TIP3    H247017  -0.009   6.781   2.719 -1.8098  1.7229  0.0367
 7608TIP3   OH247018   3.321   0.008   1.928  0.4867  0.0930 -0.0280
 7608TIP3    H147019   3.256  -0.053   1.963  0.2866  0.0611 -0.4429
 7608TIP3    H247020   3.394   0.004   1.990 -1.1513  2.5628  2.3101
 7609TIP3   OH247021   2.518   2.717   0.924 -0.0929 -0.5268 -0.1839
 7609TIP3    H147022   2.512   2.748   0.834 -1.1781 -1.9713 -0.6601
 7609TIP3    H247023   2.564   2.634   0.918  0.8400 -0.0982  0.7630
 7610TIP3   OH247024   1.368   6.231   8.580 -0.4722 -0.3777  0.1491
 7610TIP3    H147025   1.282   6.239   8.622 -0.3250 -0.4691  0.4747
 7610TIP3    H247026   1.430   6.254   8.649 -0.2591  0.2884 -0.2563
 7611TIP3   OH247027   0.651   5.313   8.121 -0.3790 -0.1681  0.2698
 7611TIP3    H147028   0.671   5.225   8.089 -3.0298 -1.0728  0.8696
 7611TIP3    H247029   0.668   5.308   8.216  1.8208  0.7719 -0.0089
 7612TIP3   OH247030   2.618   2.599   2.842 -0.0765 -0.5789 -0.0066
 7612TIP3    H147031   2.538   2.549   2.826 -1.2184  1.4053 -0.8989
 7612TIP3    H247032   2.686   2.550   2.796 -1.3772 -0.6747 -1.9526
 7613TIP3   OH247033   4.679   0.462   7.263  0.5596  0.5002 -0.3472
 7613TIP3    H147034   4.644   0.471   7.174 -0.2273 -0.2842 -0.1290
 7613TIP3    H247035   4.726   0.379   7.263 -0.9576 -0.3940  0.4366
 7614TIP3   OH247036   6.851   3.456   0.428  0.1727 -0.5733  0.0857
 7614TIP3    H147037   6.909   3.442   0.353  1.1574  0.0298  0.6993
 7614TIP3    H247038   6.864   3.549   0.451  1.2455 -1.1414  2.0525
 7615TIP3   OH247039   2.202   2.662   2.145  0.3969 -0.1004 -0.3218
 7615TIP3    H147040   2.274   2.599   2.148  0.0943 -0.4287  0.1712
 7615TIP3    H247041   2.182   2.680   2.237 -0.4131 -0.3242 -0.4443
 7616TIP3   OH247042   0.770   5.939   8.151  0.0561 -0.2317  0.4871
 7616TIP3    H147043   0.682   5.943   8.187  1.0456  1.8137  2.9271
 7616TIP3    H247044   0.802   6.029   8.155  1.4976 -0.4766 -2.5323
 7617TIP3   OH247045   1.537   3.283   7.976 -0.1706  0.5885  0.3821
 7617TIP3    H147046   1.588   3.210   8.010 -0.2201  0.1823 -0.3864
 7617TIP3    H247047   1.447   3.250   7.973 -0.2194  0.7356  0.1959
 7618TIP3   OH247048   5.185   1.247   2.200 -0.0953 -0.1794 -0.3650
 7618TIP3    H147049   5.115   1.313   2.208  1.2300  1.2643 -0.2617
 7618TIP3    H247050   5.261   1.288   2.240  0.9773 -1.5087 -0.9823
 7619TIP3   OH247051   4.085   5.607   8.769 -0.3782 -0.0365 -0.4412
 7619TIP3    H147052   4.147   5.678   8.788  0.6888 -1.1681  0.5548
 7619TIP3    H247053   4.014   5.649   8.720 -0.2576  1.8929  0.9157
 7620TIP3   OH247054   4.787   5.749   9.840  0.5312  0.0404  0.3021
 7620TIP3    H147055   4.763   5.692   9.913  0.0812 -0.0926  0.0545
 7620TIP3    H247056   4.707   5.756   9.788  0.6510  0.7107  0.2053
 7621TIP3   OH247057   1.631   4.796   0.582  0.1580 -0.1658  0.2089
 7621TIP3    H147058   1.593   4.804   0.495  1.0859 -0.5497 -0.2360
 7621TIP3    H247059   1.560   4.823   0.641  0.0571  1.7668 -0.7192
 7622TIP3   OH247060   2.966   6.786   7.502  0.2078  0.0428  0.1095
 7622TIP3    H147061   2.944   6.802   7.410 -1.5919  0.2618  0.5307
 7622TIP3    H247062   2.892   6.823   7.551  0.0917 -1.8934  1.5387
 7623TIP3   OH247063   4.371   3.582   0.234 -0.1932  0.1817  0.1091
 7623TIP3    H147064   4.308   3.577   0.306 -1.1044  0.2854 -0.6625
 7623TIP3    H247065   4.364   3.672   0.201 -0.6041 -0.1704 -0.8098
 7624TIP3   OH247066   6.947   7.219   1.324  0.0487  1.0651  0.2263
 7624TIP3    H147067   7.018   7.155   1.326 -0.3990  0.5687  0.2897
 7624TIP3    H247068   6.913   7.213   1.235 -1.2131 -0.1364  0.7633
 7625TIP3   OH247069   3.741   4.546   8.156  0.1035 -0.4175 -0.0919
 7625TIP3    H147070   3.827   4.503   8.160 -0.4178 -2.1489 -3.8703
 7625TIP3    H247071   3.678   4.477   8.175 -0.5598 -0.0372 -0.8362
 7626TIP3   OH247072   2.709   6.001   0.442  0.7748 -0.3314 -0.1714
 7626TIP3    H147073   2.660   6.082   0.458  2.5319  0.6745  0.3689
 7626TIP3    H247074   2.660   5.934   0.490 -1.2400  0.1816 -1.4010
 7627TIP3   OH247075   2.456   3.343   8.110  0.1645 -0.4222 -0.1930
 7627TIP3    H147076   2.464   3.384   8.196 -1.2374  0.9776 -0.6773
 7627TIP3    H247077   2.546   3.326   8.082  1.0075  3.6285 -0.5184
 7628TIP3   OH247078   3.758   7.354   8.951  0.5122  0.3370 -0.0025
 7628TIP3    H147079   3.773   7.427   9.011 -0.9946  0.2648  0.4999
 7628TIP3    H247080   3.712   7.393   8.877 -0.4875 -0.1302  0.3658
 7629TIP3   OH247081   0.200   5.280   7.632 -0.1421  0.2311 -0.2194
 7629TIP3    H147082   0.289   5.315   7.639 -0.8325  2.1126 -0.1771
 7629TIP3    H247083   0.164   5.322   7.554 -0.9917 -0.5261 -0.2465
 7630TIP3   OH247084   5.478   5.353   7.138 -0.1248  0.7153  0.0286
 7630TIP3    H147085   5.448   5.288   7.075  0.9444  1.1531 -0.9597
 7630TIP3    H247086   5.452   5.437   7.100  0.5536  0.9838  0.1499
 7631TIP3   OH247087   3.040   0.896   0.375  0.0408 -0.1702  0.0235
 7631TIP3    H147088   2.979   0.969   0.364 -0.4719 -0.6533 -0.3781
 7631TIP3    H247089   3.004   0.826   0.322  1.4256 -0.1837 -0.9636
 7632TIP3   OH247090   4.117   6.457   8.750 -0.6892  0.0512  0.1009
 7632TIP3    H147091   4.153   6.506   8.676  0.3449 -0.5467  0.1921
 7632TIP3    H247092   4.183   6.467   8.819 -1.2260 -0.1455  0.6509
 7633TIP3   OH247093   0.868   3.869   9.608  0.2610 -0.1621  0.0190
 7633TIP3    H147094   0.800   3.868   9.541 -1.1118  2.5951  1.1880
 7633TIP3    H247095   0.823   3.839   9.687  0.7126  0.5521  0.5571
 7634TIP3   OH247096   0.351   5.424   0.100  0.0684  0.3286 -0.2465
 7634TIP3    H147097   0.285   5.416   0.031 -1.5789  1.2894  1.1502
 7634TIP3    H247098   0.310   5.386   0.178  1.4266  0.3383  0.5064
 7635TIP3   OH247099   3.559   1.374   9.893 -0.3420 -0.5485  0.2413
 7635TIP3    H147100   3.612   1.451   9.869 -0.8606 -0.7937 -1.9621
 7635TIP3    H247101   3.496   1.408   9.956  0.2493  0.5463  0.2786
 7636TIP3   OH247102   1.216   3.284   9.834 -0.0704  0.5270  0.5240
 7636TIP3    H147103   1.250   3.239   9.757  0.2186  0.9518  0.3984
 7636TIP3    H247104   1.263   3.244   9.907  0.7946  1.1804  0.3415
 7637TIP3   OH247105   6.064   6.643   2.346 -0.1590 -0.0397 -0.1317
 7637TIP3    H147106   6.019   6.721   2.313  1.7750  1.1622 -0.0584
 7637TIP3    H247107   6.154   6.653   2.318  0.0096 -2.6937 -0.7980
 7638TIP3   OH247108   0.388   0.306   1.970  0.1394  0.2018  0.0442
 7638TIP3    H147109   0.374   0.362   2.046  0.3346 -0.0559  0.2698
 7638TIP3    H247110   0.374   0.364   1.895  0.0063  0.4695  0.2743
 7639TIP3   OH247111   4.822   2.166   1.865  0.0491  0.8050 -0.0316
 7639TIP3    H147112   4.730   2.162   1.838  0.0587  0.7004 -0.0451
 7639TIP3    H247113   4.854   2.077   1.857  0.6034  1.1128 -1.6237
 7640TIP3   OH247114   7.285   2.499   1.446 -0.3106  0.0376  0.1820
 7640TIP3    H147115   7.293   2.580   1.496  0.4989 -0.4238  0.8133
 7640TIP3    H247116   7.294   2.527   1.354  0.7866  0.5690  0.4351
 7641TIP3   OH247117   3.600   5.729   8.900  0.2441  0.0554 -0.2005
 7641TIP3    H147118   3.646   5.777   8.831 -1.6508  1.0575 -0.8305
 7641TIP3    H247119   3.532   5.680   8.854  0.3438 -1.0259  0.7574
 7642TIP3   OH247120   1.993   2.865   1.361  0.7212  0.0907 -0.4532
 7642TIP3    H147121   1.998   2.862   1.456  3.3284 -0.5617 -0.5332
 7642TIP3    H247122   1.914   2.816   1.340 -0.6507  1.3817  1.3712
 7643TIP3   OH247123   2.122   3.654   1.480 -1.3329  0.0573 -0.8095
 7643TIP3    H147124   2.182   3.697   1.419 -0.2657 -1.4004 -0.8324
 7643TIP3    H247125   2.089   3.578   1.433 -0.5481 -1.0559  0.3585
 7644TIP3   OH247126   5.529   7.572   1.105 -0.1574 -0.2807 -0.2189
 7644TIP3    H147127   5.497   7.577   1.015  0.7596  0.5572 -0.5166
 7644TIP3    H247128   5.471   7.631   1.154  1.0578  1.4952 -0.8209
 7645TIP3   OH247129   6.944   5.900   0.734  0.5342 -0.0797  0.2933
 7645TIP3    H147130   6.959   5.923   0.643  1.4884  0.7793  0.6411
 7645TIP3    H247131   6.856   5.933   0.753  0.4079 -0.0878 -0.2612
 7646TIP3   OH247132   5.415   1.451   1.970 -0.2307 -0.5528 -0.2475
 7646TIP3    H147133   5.404   1.512   1.897  0.3284  0.6071  0.6168
 7646TIP3    H247134   5.361   1.488   2.041  1.1343 -0.3348  0.7109
 7647TIP3   OH247135   5.446   0.683   0.907  0.8062 -0.3330  0.6289
 7647TIP3    H147136   5.502   0.703   0.982  0.1584 -1.4739  1.4430
 7647TIP3    H247137   5.366   0.733   0.922  0.5307 -0.8524  0.8875
 7648TIP3   OH247138   1.896   4.807   8.742 -0.1451 -0.2769  0.3358
 7648TIP3    H147139   1.826   4.778   8.800 -1.6628  0.9678 -0.7999
 7648TIP3    H247140   1.880   4.761   8.659  0.0421  0.4540 -0.1128
 7649TIP3   OH247141   2.800   3.801   1.384  0.5561  0.4838 -0.2376
 7649TIP3    H147142   2.882   3.759   1.409 -1.0779 -0.6982  4.1128
 7649TIP3    H247143   2.752   3.734   1.337  1.0351  0.2723 -0.4332
 7650TIP3   OH247144   6.419   0.850   1.699 -0.2255  0.3425  0.2790
 7650TIP3    H147145   6.380   0.930   1.665 -1.0589  0.5795  1.6999
 7650TIP3    H247146   6.352   0.813   1.757  1.0649 -0.0534  1.5965
 7651TIP3   OH247147   6.676   6.397   9.089  0.0744  0.0451 -0.6029
 7651TIP3    H147148   6.760   6.441   9.080  0.9683 -1.2112  1.1373
 7651TIP3    H247149   6.622   6.459   9.138  1.1463 -0.4860  1.3504
 7652TIP3   OH247150   1.116   4.732   8.694  0.2722  0.6579 -0.1249
 7652TIP3    H147151   1.186   4.789   8.662  1.7146 -2.1348 -2.5649
 7652TIP3    H247152   1.159   4.673   8.755 -0.6562  0.7304  0.6216
 7653TIP3   OH247153   3.449   1.932   2.359 -0.4765 -0.4776 -0.3093
 7653TIP3    H147154   3.538   1.921   2.391 -0.2419  0.0335 -0.7657
 7653TIP3    H247155   3.457   1.928   2.264 -1.0213 -0.9646 -0.3417
 7654TIP3   OH247156   3.763   5.155   9.694  0.1398 -0.7845 -0.3093
 7654TIP3    H147157   3.848   5.196   9.681 -0.0398 -0.4072 -0.3171
 7654TIP3    H247158   3.780   5.061   9.689  0.6332 -0.7247  0.1836
 7655TIP3   OH247159   6.477   4.806   6.983 -0.9995 -0.1653 -0.1897
 7655TIP3    H147160   6.419   4.883   6.986 -1.6423 -0.6819  1.5647
 7655TIP3    H247161   6.421   4.735   6.951 -0.1466  0.2401 -2.8364
 7656TIP3   OH247162   1.166   6.527   1.850 -0.4566 -0.0390 -0.2264
 7656TIP3    H147163   1.181   6.548   1.942  0.4557 -1.2674 -0.0708
 7656TIP3    H247164   1.088   6.472   1.850  0.7803 -1.8853  0.1038
 7657TIP3   OH247165   0.749   0.293   1.044 -0.3435 -0.3106  0.3272
 7657TIP3    H147166   0.728   0.200   1.056 -2.1405  0.0488  0.1619
 7657TIP3    H247167   0.682   0.340   1.094  1.8551  0.9133  2.3044
 7658TIP3   OH247168   3.841   2.750   2.027  0.1023  0.1290 -0.1977
 7658TIP3    H147169   3.858   2.814   2.096  0.9656 -0.9361  0.6106
 7658TIP3    H247170   3.753   2.718   2.045  0.0878  0.2991  0.0399
 7659TIP3   OH247171   7.675   3.483   1.939 -0.0590  0.2787  0.0414
 7659TIP3    H147172   7.723   3.455   1.861  0.7924  2.0142 -0.1087
 7659TIP3    H247173   7.736   3.541   1.985 -1.2506  0.8089  1.0053
 7660TIP3   OH247174   5.506   0.980   9.149  0.2262  0.7504  0.3139
 7660TIP3    H147175   5.582   0.964   9.094 -0.0594  1.0909 -0.1847
 7660TIP3    H247176   5.433   0.987   9.088 -0.5547 -1.4738  0.8822
 7661TIP3   OH247177   6.751   7.199   2.940 -0.1584  0.1158  0.0212
 7661TIP3    H147178   6.838   7.161   2.957 -0.2800 -0.7845 -1.2168
 7661TIP3    H247179   6.706   7.194   3.024  1.8548  3.0958  1.4296
 7662TIP3   OH247180   6.884   6.286   7.470 -0.2579 -0.2784  0.2405
 7662TIP3    H147181   6.817   6.244   7.416  1.9791 -0.7710 -2.4027
 7662TIP3    H247182   6.942   6.215   7.497  0.3961  0.3847  0.6350
 7663TIP3   OH247183   5.051   2.328   1.855 -0.3178 -0.0420  0.5769
 7663TIP3    H147184   4.986   2.262   1.831 -1.3119  0.0998  2.6325
 7663TIP3    H247185   5.134   2.279   1.861 -0.7596 -0.8107  0.5926
 7664TIP3   OH247186   0.707   2.778   2.586 -0.0613 -0.4238  0.4787
 7664TIP3    H147187   0.785   2.832   2.602  0.8813 -1.3591 -0.7115
 7664TIP3    H247188   0.705   2.768   2.491 -0.8512 -1.5510  0.5985
 7665TIP3   OH247189   4.301   3.434   6.968  0.1151 -0.0638  0.1906
 7665TIP3    H147190   4.273   3.486   7.044 -0.0421 -0.7480  0.6046
 7665TIP3    H247191   4.219   3.403   6.929  0.2315 -0.9398  0.6129
 7666TIP3   OH247192   4.163   3.169   0.486  0.2956  0.1129  0.5683
 7666TIP3    H147193   4.089   3.111   0.463  0.8625 -0.1112 -0.8292
 7666TIP3    H247194   4.123   3.241   0.533 -0.6730 -0.5580  0.8102
 7667TIP3   OH247195   0.890   6.504   9.110  0.2088  0.1083  0.1738
 7667TIP3    H147196   0.795   6.513   9.113 -0.2810 -3.0880 -1.4391
 7667TIP3    H247197   0.916   6.495   9.202 -1.1495  0.1824  0.5888
 7668TIP3   OH247198   5.621   6.570   9.187 -0.0937  0.4380 -0.1908
 7668TIP3    H147199   5.687   6.514   9.147 -0.8355  0.0121 -0.8504
 7668TIP3    H247200   5.568   6.511   9.241  0.3824  0.8670  0.7577
 7669TIP3   OH247201   0.501   1.592   2.491  0.3852  0.2408  0.2104
 7669TIP3    H147202   0.455   1.589   2.575  3.1576  0.9482  1.8771
 7669TIP3    H247203   0.560   1.667   2.499 -0.4908  1.4205 -3.1063
 7670TIP3   OH247204   4.351   0.966   0.431  0.3749  1.1441  0.2446
 7670TIP3    H147205   4.309   0.941   0.513  1.8744 -0.4464  0.5795
 7670TIP3    H247206   4.444   0.951   0.445  0.8209  2.2489 -1.2707
 7671TIP3   OH247207   2.286   3.802   1.242 -0.1769  0.1924 -0.5011
 7671TIP3    H147208   2.327   3.722   1.275 -0.7015 -0.1208 -0.6055
 7671TIP3    H247209   2.358   3.852   1.204 -0.0138 -0.7511 -1.4841
 7672TIP3   OH247210   0.009   6.768   1.568  0.0681 -0.4259 -0.1781
 7672TIP3    H147211  -0.082   6.753   1.593  0.0430 -0.5736 -0.3549
 7672TIP3    H247212   0.011   6.857   1.536 -0.0220 -0.4364 -0.2131
 7673TIP3   OH247213   6.628   1.964   7.435 -0.3287 -0.2797 -0.2381
 7673TIP3    H147214   6.705   1.979   7.490 -1.4380  1.5878  0.8911
 7673TIP3    H247215   6.654   1.996   7.349  0.2586  0.0726  0.0648
 7674TIP3   OH247216   4.071   0.666   1.109 -0.3538  0.0287 -0.2236
 7674TIP3    H147217   4.095   0.696   1.197 -0.2679  0.0005 -0.2371
 7674TIP3    H247218   3.976   0.674   1.106 -0.5985 -1.9933  0.6222
 7675TIP3   OH247219   1.972   3.872   0.143 -0.2460  0.2395 -0.1648
 7675TIP3    H147220   1.994   3.963   0.123 -1.3209  1.4427  3.3592
 7675TIP3    H247221   2.056   3.830   0.161  0.1623  0.8941 -0.4939
 7676TIP3   OH247222   2.926   4.224   1.253  0.3584  0.4414 -0.1333
 7676TIP3    H147223   2.966   4.205   1.169  0.2396 -0.4403  0.0027
 7676TIP3    H247224   2.834   4.242   1.233  0.3511  0.3252 -0.2027
 7677TIP3   OH247225   2.864   0.696   0.218  0.5316  0.6801  0.0559
 7677TIP3    H147226   2.915   0.617   0.199 -0.7384 -0.0937 -0.2346
 7677TIP3    H247227   2.830   0.723   0.133 -0.6761  0.3780  0.4285
 7678TIP3   OH247228   5.594   5.071   7.100 -0.1390  0.5413 -0.1665
 7678TIP3    H147229   5.510   5.080   7.054 -0.7260 -2.0129  0.2554
 7678TIP3    H247230   5.659   5.106   7.039 -1.2342  0.0076 -1.7070
 7679TIP3   OH247231   0.925   7.276   1.943 -0.2672 -0.0014  0.2807
 7679TIP3    H147232   0.911   7.211   1.874  1.6158  0.7377 -0.8612
 7679TIP3    H247233   0.973   7.229   2.011 -0.3995 -0.2228  0.2241
 7680TIP3   OH247234   1.560   6.284   7.743 -0.1282  0.2824  0.2915
 7680TIP3    H147235   1.581   6.283   7.837 -1.6047 -0.1272  0.6400
 7680TIP3    H247236   1.569   6.376   7.718 -2.1060  0.8451  1.4293
 7681TIP3   OH247237   3.888   4.725   7.601 -0.9331  0.3057  0.5814
 7681TIP3    H147238   3.868   4.764   7.687 -0.0456 -0.4621  1.1542
 7681TIP3    H247239   3.815   4.666   7.584 -0.0710 -1.2148  1.8753
 7682TIP3   OH247240   7.325   4.922   7.840  0.1727 -0.1114 -0.0320
 7682TIP3    H147241   7.299   4.929   7.749  2.1032 -0.8482 -0.6843
 7682TIP3    H247242   7.295   4.834   7.866  0.2572 -0.1845 -0.1787
 7683TIP3   OH247243   0.163   3.767   8.337  0.4695  0.2951 -0.3682
 7683TIP3    H147244   0.257   3.769   8.319  0.4648 -0.7177 -0.5574
 7683TIP3    H247245   0.156   3.789   8.430  1.1555 -2.4472  0.4305
 7684TIP3   OH247246   6.416   4.273   8.387 -0.1518  0.6732  0.2914
 7684TIP3    H147247   6.409   4.244   8.295  1.7444  0.3401  0.2083
 7684TIP3    H247248   6.346   4.337   8.397 -0.7364  0.3271 -1.2317
 7685TIP3   OH247249   0.629   1.258   8.165 -0.0554  0.0152 -0.6045
 7685TIP3    H147250   0.605   1.229   8.253  0.9074  2.1996  0.4507
 7685TIP3    H247251   0.667   1.344   8.178 -1.2899  1.0784 -3.3653
 7686TIP3   OH247252   3.883   1.456   3.150  0.1947 -0.3270  0.0712
 7686TIP3    H147253   3.791   1.481   3.157  0.2573  0.2052 -0.9057
 7686TIP3    H247254   3.885   1.388   3.083  0.3598 -1.2625  0.9891
 7687TIP3   OH247255   2.556   4.943   1.719 -0.4790  0.0012  0.1423
 7687TIP3    H147256   2.641   4.902   1.734  1.1084  2.9936 -0.0015
 7687TIP3    H247257   2.547   4.947   1.624 -1.3027 -1.2120  0.1484
 7688TIP3   OH247258   4.577   3.737   9.911 -0.7040  0.2104  0.0033
 7688TIP3    H147259   4.651   3.740   9.850  0.5056  0.5862  1.4372
 7688TIP3    H247260   4.524   3.813   9.887  1.3314  2.1555  1.2687
 7689TIP3   OH247261   2.847   3.115   7.862 -0.3546 -0.0220 -0.2849
 7689TIP3    H147262   2.911   3.164   7.810  0.3940  0.6933  1.2452
 7689TIP3    H247263   2.869   3.023   7.846  1.8947  0.1816  1.0994
 7690TIP3   OH247264   2.863   1.767   1.333 -0.6554 -0.4875 -0.5816
 7690TIP3    H147265   2.891   1.707   1.402 -0.4465  0.2948  0.0293
 7690TIP3    H247266   2.914   1.847   1.348 -0.1053 -0.5202 -2.0430
 7691TIP3   OH247267   0.021   6.437   1.478  0.5903  0.5601 -0.3488
 7691TIP3    H147268  -0.022   6.476   1.555  0.3453  0.2763 -0.3410
 7691TIP3    H247269   0.073   6.508   1.442  2.3598  0.1800  1.2669
 7692TIP3   OH247270   7.483   6.909   0.479 -0.2264 -0.3861 -0.0980
 7692TIP3    H147271   7.522   6.930   0.394  0.2929  0.8863  0.4344
 7692TIP3    H247272   7.558   6.892   0.536 -0.3410  2.1014  0.9412
 7693TIP3   OH247273   1.687   4.215   1.604  0.1531 -0.8773 -0.7991
 7693TIP3    H147274   1.623   4.286   1.594 -1.0641 -1.8770 -0.4822
 7693TIP3    H247275   1.768   4.250   1.568 -0.2675  0.8490 -0.1961
 7694TIP3   OH247276   6.461   1.401   1.277  0.2769  0.4627  0.6158
 7694TIP3    H147277   6.504   1.337   1.334 -1.6566 -0.9542  0.5665
 7694TIP3    H247278   6.468   1.484   1.325  1.9532  0.0598  1.1469
 7695TIP3   OH247279   2.670   1.815   0.059  0.5674 -0.6610 -0.1837
 7695TIP3    H147280   2.686   1.909   0.055  0.6383 -0.6554  0.2301
 7695TIP3    H247281   2.579   1.805   0.030 -0.1391 -0.2593  1.7207
 7696TIP3   OH247282   3.509   5.855   7.736 -0.5249  0.3331  0.0496
 7696TIP3    H147283   3.512   5.783   7.673  0.5655  0.1563  0.2774
 7696TIP3    H247284   3.561   5.823   7.811 -0.8638  0.9683  0.5679
 7697TIP3   OH247285   2.316   4.379   6.807 -0.1532  0.4771  0.3090
 7697TIP3    H147286   2.327   4.349   6.898 -1.7143  1.0268  0.7200
 7697TIP3    H247287   2.257   4.315   6.768 -0.3389  0.8343  0.0005
 7698TIP3   OH247288   3.346   3.167   1.745 -0.3902 -0.5053 -0.0835
 7698TIP3    H147289   3.321   3.253   1.712 -1.2524 -0.0447  1.6214
 7698TIP3    H247290   3.438   3.159   1.721  0.2269  1.6915  1.1918
 7699TIP3   OH247291   1.922   2.900   7.931 -0.4228 -0.2199  0.7197
 7699TIP3    H147292   1.945   2.848   8.008 -2.4495 -1.0374  0.8405
 7699TIP3    H247293   1.844   2.857   7.896  0.6433 -0.0725 -2.0320
 7700TIP3   OH247294   3.722   6.150   9.167  0.2564  0.7685 -0.0105
 7700TIP3    H147295   3.817   6.148   9.172  0.2837  0.9236 -0.4414
 7700TIP3    H247296   3.703   6.171   9.076 -0.1943 -0.0076 -0.1039
 7701TIP3   OH247297   2.223   3.988   0.600 -0.0156  0.3324 -0.2233
 7701TIP3    H147298   2.143   3.980   0.547 -0.7382 -1.0545  0.9914
 7701TIP3    H247299   2.214   3.919   0.666  1.7344  0.8089  0.5535
 7702TIP3   OH247300   2.418   6.610   0.633  0.5613 -0.3232 -0.1194
 7702TIP3    H147301   2.422   6.560   0.552 -1.7561 -1.3549  0.3319
 7702TIP3    H247302   2.401   6.700   0.605 -0.5222 -0.7239 -0.8022
 7703TIP3   OH247303   2.611   3.260   9.949 -0.1817  0.2566  0.3400
 7703TIP3    H147304   2.609   3.169   9.980 -0.4720 -0.1758 -0.8848
 7703TIP3    H247305   2.547   3.305  10.003 -0.6091 -0.4508  0.4403
 7704TIP3   OH247306   1.636   6.921   8.255  0.3065 -0.0580  0.0929
 7704TIP3    H147307   1.632   6.828   8.279 -0.8868 -0.3358 -1.0565
 7704TIP3    H247308   1.595   6.967   8.329  0.1456 -0.5332  0.3045
 7705TIP3   OH247309   0.331   0.780   8.230  0.2336  0.3339 -0.2344
 7705TIP3    H147310   0.291   0.814   8.150 -0.9383  1.2678  0.7166
 7705TIP3    H247311   0.350   0.858   8.283  0.8264 -0.2725  0.4772
 7706TIP3   OH247312   6.469   6.210   0.446 -0.2305  0.2122 -0.0229
 7706TIP3    H147313   6.533   6.162   0.498 -0.1078  0.8636  0.4418
 7706TIP3    H247314   6.510   6.220   0.360  0.5448  1.0998  0.4268
 7707TIP3   OH247315   1.551   3.967   7.864  0.5798 -0.2102  0.2023
 7707TIP3    H147316   1.600   3.973   7.782  0.1603 -0.7157 -0.0969
 7707TIP3    H247317   1.524   4.057   7.884  0.9081 -0.0513 -0.0728
 7708TIP3   OH247318   7.022   2.915   9.045  0.1921  0.1670 -0.1590
 7708TIP3    H147319   7.118   2.914   9.049  0.3175  2.2907 -1.2109
 7708TIP3    H247320   6.996   2.825   9.064  2.4029 -0.5342 -0.1835
 7709TIP3   OH247321   2.053   4.280   0.757 -0.0896  0.1894 -0.4023
 7709TIP3    H147322   2.089   4.198   0.791 -2.3875 -0.6366  0.1739
 7709TIP3    H247323   2.039   4.264   0.664  0.2963  0.2531 -0.4733
 7710TIP3   OH247324   2.368   5.380   9.806 -0.0308 -0.2953  0.5146
 7710TIP3    H147325   2.344   5.311   9.868 -0.4443 -1.9003 -1.2921
 7710TIP3    H247326   2.431   5.338   9.748  1.6476  1.6628  0.8185
 7711TIP3   OH247327   2.236   2.276   7.704  0.0537  0.3195 -0.3181
 7711TIP3    H147328   2.251   2.240   7.617  0.3530 -1.1534  0.3048
 7711TIP3    H247329   2.149   2.315   7.699  0.3529  0.8650 -1.4591
 7712TIP3   OH247330   5.409   2.331   8.568 -0.4545 -0.0630  0.4212
 7712TIP3    H147331   5.482   2.271   8.557 -0.9293 -0.6680  0.5322
 7712TIP3    H247332   5.341   2.280   8.612 -0.5603  0.7877  1.2938
 7713TIP3   OH247333   1.483   0.516   8.025  0.0039 -0.4941 -0.4234
 7713TIP3    H147334   1.407   0.460   8.008  0.4257 -1.1405 -0.2552
 7713TIP3    H247335   1.464   0.598   7.980 -0.4338 -0.9402 -1.0696
 7714TIP3   OH247336   3.044   1.106   9.094 -0.2154  0.7600  0.0977
 7714TIP3    H147337   2.957   1.066   9.083 -1.0927  2.3039  0.9757
 7714TIP3    H247338   3.030   1.198   9.070  0.9387  1.2400  1.1763
 7715TIP3   OH247339   2.536   1.064   2.032 -0.5266  0.0096 -0.2518
 7715TIP3    H147340   2.544   1.005   2.107 -2.0022  0.1740  0.0730
 7715TIP3    H247341   2.577   1.017   1.960  2.3307  0.4924  0.9406
 7716TIP3   OH247342   2.076   4.244   0.500  0.5976  0.5183 -0.6914
 7716TIP3    H147343   2.129   4.205   0.430  0.9169  0.9103 -0.6712
 7716TIP3    H247344   2.023   4.310   0.455  0.6346  0.6085 -0.6024
 7717TIP3   OH247345   1.426   7.290   8.056 -0.4263 -0.4641  0.0895
 7717TIP3    H147346   1.448   7.357   7.992  0.1662  1.7695  2.4833
 7717TIP3    H247347   1.346   7.322   8.098 -1.0106 -2.0521  0.2798
 7718TIP3   OH247348   5.181   1.129   8.114  0.1741 -0.5083 -0.3997
 7718TIP3    H147349   5.116   1.196   8.134 -0.3378 -0.7950 -1.0574
 7718TIP3    H247350   5.207   1.147   8.023  1.5465  0.0325  0.0723
 7719TIP3   OH247351   1.851   2.127   9.801  0.2951 -0.4264  0.4821
 7719TIP3    H147352   1.855   2.054   9.739 -0.8963  0.7073 -1.0025
 7719TIP3    H247353   1.925   2.182   9.777  1.1235 -1.0417  1.5279
 7720TIP3   OH247354   6.871   2.055   1.683 -0.0059  0.2755  0.2300
 7720TIP3    H147355   6.781   2.054   1.651  0.1140  0.7538 -0.1461
 7720TIP3    H247356   6.872   1.994   1.756 -0.6622  0.3561  0.3101
 7721TIP3   OH247357   4.705   7.463   9.545 -0.0864 -0.3348  0.4778
 7721TIP3    H147358   4.772   7.510   9.595  0.4655 -1.0044  0.3919
 7721TIP3    H247359   4.755   7.398   9.495 -0.6773  0.0182 -0.5860
 7722TIP3   OH247360   2.773   1.264   8.829 -0.1829 -0.6906 -0.3658
 7722TIP3    H147361   2.798   1.293   8.742  1.9775 -0.3328  0.3108
 7722TIP3    H247362   2.813   1.328   8.888  0.6281 -2.3486  0.9730
 7723TIP3   OH247363   5.355   7.279   9.528 -1.3674 -0.0435 -0.1787
 7723TIP3    H147364   5.418   7.307   9.462 -1.2672 -1.7807 -0.8799
 7723TIP3    H247365   5.285   7.236   9.478 -2.7060  1.0721  0.6489
 7724TIP3   OH247366   2.917   1.025   2.768 -0.1620  0.1067 -0.3352
 7724TIP3    H147367   2.893   1.087   2.836  0.9566 -0.1357  0.3085
 7724TIP3    H247368   2.895   0.939   2.804 -2.0037  0.1077 -1.3498
 7725TIP3   OH247369   0.043   3.795   1.312  0.1251 -0.1186 -0.1433
 7725TIP3    H147370   0.010   3.838   1.391  1.9112  0.4389  0.3547
 7725TIP3    H247371   0.097   3.862   1.270  0.0528 -0.7558 -1.2929
 7726TIP3   OH247372   3.926   2.438   8.597  0.0284 -0.2137  0.1974
 7726TIP3    H147373   3.908   2.448   8.690  1.3471  0.5914  0.3894
 7726TIP3    H247374   3.935   2.527   8.564 -0.1087 -0.5006 -0.6353
 7727TIP3   OH247375   0.318   1.002   0.954  0.1380 -0.4461  0.2833
 7727TIP3    H147376   0.317   1.097   0.960 -0.8174 -0.1834 -2.6002
 7727TIP3    H247377   0.226   0.977   0.947  0.4117 -1.5199  0.2832
 7728TIP3   OH247378   4.502   0.561   0.488 -0.2542  0.1284  0.1001
 7728TIP3    H147379   4.551   0.634   0.448 -0.1715  0.9433  1.6146
 7728TIP3    H247380   4.505   0.579   0.582  0.1921 -2.1233  0.5704
 7729TIP3   OH247381   0.755   2.070   8.243 -0.2599 -0.2260 -0.6833
 7729TIP3    H147382   0.830   2.022   8.206  0.5839  2.0816 -2.1442
 7729TIP3    H247383   0.683   2.007   8.239  1.4555 -2.4394  0.4953
 7730TIP3   OH247384   4.581   2.358   9.183 -0.5583  0.1305 -0.1594
 7730TIP3    H147385   4.596   2.319   9.097  0.6326  0.1738  0.0204
 7730TIP3    H247386   4.577   2.452   9.166 -0.3383  0.1384 -0.1627
 7731TIP3   OH247387   1.497   6.382   2.411 -0.0290 -0.5329 -0.0140
 7731TIP3    H147388   1.489   6.286   2.406  0.2977 -0.6038  0.7253
 7731TIP3    H247389   1.548   6.406   2.334 -0.7610 -0.8657 -0.6268
 7732TIP3   OH247390   4.196   1.617   0.893  0.2636 -0.5592  0.1480
 7732TIP3    H147391   4.143   1.685   0.851  1.8725 -0.0704 -1.1891
 7732TIP3    H247392   4.154   1.535   0.866 -0.4893 -0.1705  0.0914
 7733TIP3   OH247393   7.307   4.131   9.104  0.3658 -0.2431 -0.5107
 7733TIP3    H147394   7.305   4.116   9.009  0.2767 -0.3781 -0.4884
 7733TIP3    H247395   7.397   4.159   9.122  1.1734 -2.7069 -0.2728
 7734TIP3   OH247396   2.105   1.976   7.960  0.1683 -0.7956  0.3355
 7734TIP3    H147397   2.069   1.891   7.982 -0.6811 -0.1174  1.7315
 7734TIP3    H247398   2.200   1.965   7.972  0.1898 -1.8371 -0.6530
 7735TIP3   OH247399   7.419   1.844   7.696 -0.0703 -0.1160  0.0176
 7735TIP3    H147400   7.372   1.926   7.712 -0.1046 -0.2770  0.7970
 7735TIP3    H247401   7.508   1.861   7.727  0.0321 -0.2495 -0.1962
 7736TIP3   OH247402   1.079   5.708   0.320  0.1412  0.4872  0.1115
 7736TIP3    H147403   1.009   5.768   0.295 -0.8675 -0.1091  1.3919
 7736TIP3    H247404   1.154   5.737   0.269 -0.7584  1.7853 -0.5431
 7737TIP3   OH247405   0.390   4.481   7.553  0.0145  0.1289  0.1924
 7737TIP3    H147406   0.304   4.475   7.594 -0.3248  1.5251 -0.2575
 7737TIP3    H247407   0.371   4.511   7.464  1.0320  1.5542  0.4369
 7738TIP3   OH247408   2.337   0.598   0.294  0.2587 -0.1890  0.4162
 7738TIP3    H147409   2.320   0.670   0.233 -1.3892 -0.9665 -0.1029
 7738TIP3    H247410   2.429   0.577   0.282  0.1154  0.0874 -1.3774
 7739TIP3   OH247411   2.074   4.758   7.458 -0.3371 -0.0366  0.8678
 7739TIP3    H147412   2.024   4.676   7.451 -0.2692 -0.0656  0.7220
 7739TIP3    H247413   2.040   4.813   7.387  2.0604 -1.2339 -1.3926
 7740TIP3   OH247414   7.581   4.218   8.895 -0.0544 -0.2403 -0.1009
 7740TIP3    H147415   7.624   4.140   8.861 -1.4235 -1.3023  0.4827
 7740TIP3    H247416   7.643   4.256   8.957 -0.1146 -2.0270  1.1237
 7741TIP3   OH247417   7.275   7.414   2.368  0.6940 -1.2640 -0.3798
 7741TIP3    H147418   7.370   7.419   2.360  0.9267 -0.9908  1.8702
 7741TIP3    H247419   7.246   7.505   2.361  0.6826 -1.2558 -0.2179
 7742TIP3   OH247420   1.638   4.559   7.435 -0.0619 -0.3228  0.7013
 7742TIP3    H147421   1.615   4.633   7.492  1.6216  1.0556 -0.2977
 7742TIP3    H247422   1.573   4.561   7.366 -1.4312 -1.2953  1.8983
 7743TIP3   OH247423   2.455   2.312   1.594  0.4988  0.0148 -0.2663
 7743TIP3    H147424   2.514   2.324   1.519  0.0669 -1.6404 -0.9084
 7743TIP3    H247425   2.470   2.222   1.622  0.2558  0.4397  1.3252
 7744TIP3   OH247426   3.342   4.017   2.118  0.8758 -0.3375  0.3440
 7744TIP3    H147427   3.294   4.095   2.144  1.0236  0.4075 -1.4733
 7744TIP3    H247428   3.392   3.992   2.196 -1.3775 -0.3515  1.8589
 7745TIP3   OH247429   1.330   2.731   9.068  0.2701  0.1266  0.1816
 7745TIP3    H147430   1.244   2.721   9.111  0.1289  1.0143  0.1258
 7745TIP3    H247431   1.309   2.758   8.979  0.5713 -1.5788 -0.4507
 7746TIP3   OH247432   4.387   6.631   1.692 -0.5572 -0.5101  0.1013
 7746TIP3    H147433   4.436   6.700   1.737 -1.6187  0.7127 -0.5612
 7746TIP3    H247434   4.349   6.674   1.615  1.5741 -2.6141 -2.3149
 7747TIP3   OH247435   2.460   2.269   7.278  0.1339  0.9407 -0.2290
 7747TIP3    H147436   2.516   2.308   7.344  1.7472 -1.1174 -0.2677
 7747TIP3    H247437   2.390   2.226   7.328  1.3741 -0.6515  0.2411
 7748TIP3   OH247438   0.345   4.357   9.428  0.0488  0.0542 -0.5354
 7748TIP3    H147439   0.384   4.291   9.486  1.4042  1.7258  0.5621
 7748TIP3    H247440   0.377   4.333   9.341  1.6163 -0.0416  0.0208
 7749TIP3   OH247441   2.923   2.150   9.459 -0.4449  0.5667  0.8287
 7749TIP3    H147442   2.856   2.214   9.481 -0.9031  0.4740 -0.2456
 7749TIP3    H247443   2.990   2.201   9.412  0.0440  0.5826  1.5316
 7750TIP3   OH247444   7.199   6.918   1.495 -0.1101 -0.2387 -0.3107
 7750TIP3    H147445   7.117   6.889   1.536 -0.9403  0.1958 -1.6133
 7750TIP3    H247446   7.204   7.011   1.513  0.1524 -0.2848 -0.1431
 7751TIP3   OH247447   3.450   5.026   2.174 -0.2944 -0.3845 -0.9406
 7751TIP3    H147448   3.366   5.054   2.210  0.4231 -0.3389  0.7868
 7751TIP3    H247449   3.513   5.088   2.210  1.0214 -2.7412  1.0949
 7752TIP3   OH247450   4.343   3.556   8.562  0.0092 -0.0921  0.3887
 7752TIP3    H147451   4.355   3.481   8.503  0.9065 -0.6157  1.2101
 7752TIP3    H247452   4.253   3.548   8.593 -0.9069  0.8832 -1.8186
 7753TIP3   OH247453   7.324   5.523   7.305 -0.1086  0.0606 -0.2006
 7753TIP3    H147454   7.250   5.561   7.256  0.9646  2.5261 -0.0925
 7753TIP3    H247455   7.397   5.525   7.243  0.3172 -0.5377  0.2726
 7754TIP3   OH247456   5.523   2.922   6.887  0.8299  0.0068  0.4853
 7754TIP3    H147457   5.584   2.885   6.822  0.8343  0.5193  0.1850
 7754TIP3    H247458   5.578   2.942   6.963  1.0602  0.5391  0.1860
 7755TIP3   OH247459   6.823   6.036   8.732  0.4834  0.3506 -0.0533
 7755TIP3    H147460   6.787   6.070   8.814 -1.7826  0.3477 -0.9786
 7755TIP3    H247461   6.758   5.973   8.701  1.7867 -0.4139 -1.3547
 7756TIP3   OH247462   4.954   4.110   9.280 -0.2602  0.4061  0.0749
 7756TIP3    H147463   4.933   4.143   9.368  2.0262 -1.0798  1.2660
 7756TIP3    H247464   4.878   4.057   9.256 -1.1538  1.2512  0.8849
 7757TIP3   OH247465   1.978   6.257   0.836  0.2400 -0.2097 -0.7844
 7757TIP3    H147466   2.049   6.272   0.774 -0.3472 -1.1303 -1.7170
 7757TIP3    H247467   1.914   6.206   0.787  0.8109 -3.1062  1.2356
 7758TIP3   OH247468   6.577   5.572   9.047  0.5298  0.1760  0.2790
 7758TIP3    H147469   6.627   5.558   8.967  1.5692  0.0181  0.9456
 7758TIP3    H247470   6.616   5.649   9.088  1.0957 -0.6948  1.4420
 7759TIP3   OH247471   0.712   5.273   2.266 -0.1916 -0.1649 -0.3562
 7759TIP3    H147472   0.707   5.328   2.344 -3.1049 -0.1056 -0.4641
 7759TIP3    H247473   0.772   5.319   2.207 -0.0725  1.2095  0.7863
 7760TIP3   OH247474   5.218   2.605   7.903 -0.1621  1.0645  0.5895
 7760TIP3    H147475   5.126   2.603   7.928 -0.6881  0.4960 -1.2254
 7760TIP3    H247476   5.258   2.671   7.960 -2.0171  2.4910  0.2984
 7761TIP3   OH247477   3.796   1.045   0.130 -0.2646  0.0816  0.3282
 7761TIP3    H147478   3.721   1.055   0.072  0.1043  1.4701  0.0334
 7761TIP3    H247479   3.762   0.997   0.206 -1.4950  0.8216  0.2766
 7762TIP3   OH247480   7.414   2.290   8.143  0.5378 -0.3996 -0.2821
 7762TIP3    H147481   7.419   2.361   8.080 -2.0982  0.4203  0.2705
 7762TIP3    H247482   7.440   2.212   8.095  1.5439  0.6262 -1.4651
 7763TIP3   OH247483   1.382   2.571   9.896 -0.2891 -0.1363 -0.0815
 7763TIP3    H147484   1.354   2.645   9.950 -0.2285  1.5187 -2.1467
 7763TIP3    H247485   1.478   2.577   9.896 -0.2568 -0.6734  0.3435
 7764TIP3   OH247486   5.740   4.238   8.615 -0.1269  0.1068  0.2803
 7764TIP3    H147487   5.714   4.233   8.523  0.9985 -1.6114  0.0081
 7764TIP3    H247488   5.687   4.310   8.651 -2.0456 -0.4628 -1.2179
 7765TIP3   OH247489   4.921   4.064   7.716 -0.0120 -0.7183 -0.1463
 7765TIP3    H147490   4.857   4.078   7.786 -0.0171 -0.0980 -0.2744
 7765TIP3    H247491   4.981   3.999   7.751  0.4134  0.1288  0.7216
 7766TIP3   OH247492   0.563   6.549   9.819 -0.2113 -0.6325 -0.3689
 7766TIP3    H147493   0.481   6.547   9.868  1.2722 -0.5702  2.3035
 7766TIP3    H247494   0.566   6.636   9.780 -2.7450 -1.6409 -3.1303
 7767TIP3   OH247495   4.927   1.800   9.836  0.2210 -0.0172  0.3004
 7767TIP3    H147496   4.902   1.835   9.921  0.6111  1.1155 -0.0302
 7767TIP3    H247497   4.847   1.761   9.801  0.2389 -1.1833  1.4978
 7768TIP3   OH247498   0.977   6.318   0.902  0.4428  0.1488 -0.0252
 7768TIP3    H147499   1.062   6.279   0.922  1.6762  0.7188 -3.4524
 7768TIP3    H247500   0.993   6.412   0.901 -0.1888  0.2647 -0.7016
 7769TIP3   OH247501   7.035   6.706   9.060 -0.0597 -0.0391 -0.1480
 7769TIP3    H147502   6.993   6.703   9.146 -0.3896 -0.5096 -0.3212
 7769TIP3    H247503   6.993   6.779   9.015  0.7634  0.8009  0.4168
 7770TIP3   OH247504   6.182   5.872   6.730  0.1731  0.3954 -0.2293
 7770TIP3    H147505   6.256   5.930   6.713  0.7185 -0.2363 -0.0715
 7770TIP3    H247506   6.116   5.928   6.771  1.3816  0.5527  1.6110
 7771TIP3   OH247507   5.453   5.698   0.154  0.0553  0.3750  0.0835
 7771TIP3    H147508   5.370   5.704   0.200  0.6277  0.9605  1.0736
 7771TIP3    H247509   5.438   5.633   0.086 -1.2326  0.5280  0.1928
 7772TIP3   OH247510   6.894   7.516   1.143 -0.4062  0.5442 -0.1068
 7772TIP3    H147511   6.889   7.499   1.048 -0.3312 -1.5016  0.2098
 7772TIP3    H247512   6.971   7.467   1.171 -0.1386  1.5416  0.9666
 7773TIP3   OH247513   0.831   0.728   7.158  0.2821  0.2412  0.7435
 7773TIP3    H147514   0.902   0.746   7.096 -0.7226  3.1784  0.2829
 7773TIP3    H247515   0.768   0.677   7.107  2.0228 -2.5611  1.2123
 7774TIP3   OH247516   3.574   7.082   2.590  0.3216  0.0061  0.5223
 7774TIP3    H147517   3.626   7.120   2.661  0.1315  1.3608 -0.0334
 7774TIP3    H247518   3.494   7.051   2.633  0.5896  0.0103  1.0307
 7775TIP3   OH247519   4.578   5.903   1.811 -0.0557 -0.5913 -0.4143
 7775TIP3    H147520   4.499   5.848   1.811  1.5523 -3.0788  0.0524
 7775TIP3    H247521   4.609   5.900   1.902  0.5675  0.3667 -0.5798
 7776TIP3   OH247522   0.252   3.142   8.353 -0.4491 -0.4406 -0.9231
 7776TIP3    H147523   0.206   3.183   8.426 -1.4121 -0.8793 -1.2651
 7776TIP3    H247524   0.343   3.171   8.362 -0.5016 -0.6671  0.5772
 7777TIP3   OH247525   0.615   2.339   1.978  0.5177  0.0607  0.1591
 7777TIP3    H147526   0.704   2.353   2.012  0.7007  1.9424 -0.9831
 7777TIP3    H247527   0.564   2.316   2.056  1.6666  0.5452  1.0980
 7778TIP3   OH247528   7.355   7.139   8.872 -0.2117 -0.3313  0.0943
 7778TIP3    H147529   7.314   7.065   8.917 -2.4411  0.6515 -0.1549
 7778TIP3    H247530   7.347   7.118   8.779  0.9041 -0.6159  0.0467
 7779TIP3   OH247531   7.368   0.373   9.554 -0.1215  0.6335  0.3640
 7779TIP3    H147532   7.444   0.348   9.606  0.3714  0.4878 -0.4069
 7779TIP3    H247533   7.401   0.440   9.494 -0.7947  1.1535  0.5548
 7780TIP3   OH247534   0.299   1.676   2.292  0.0123 -0.5808 -0.0622
 7780TIP3    H147535   0.342   1.623   2.225  0.5694  1.4242 -1.4096
 7780TIP3    H247536   0.345   1.655   2.373  1.8880 -0.3658 -1.0066
 7781TIP3   OH247537   6.420   3.253   8.647  0.0325  0.2502 -0.0349
 7781TIP3    H147538   6.431   3.331   8.591 -2.5925  1.3827  0.8877
 7781TIP3    H247539   6.442   3.180   8.590  0.6509  1.5315 -1.5380
 7782TIP3   OH247540   7.451   3.862   7.791  0.1606 -0.0815 -0.0036
 7782TIP3    H147541   7.436   3.788   7.849 -2.7081  2.0431  2.3199
 7782TIP3    H247542   7.374   3.865   7.734 -0.4178  1.6431  0.7621
 7783TIP3   OH247543   4.548   0.804   1.322  0.6870 -0.5161 -0.9238
 7783TIP3    H147544   4.616   0.796   1.388  0.6481  1.2122 -0.6292
 7783TIP3    H247545   4.592   0.844   1.247  0.0167  0.7362 -0.6897
 7784TIP3   OH247546   0.897   1.308   1.607  0.5986 -0.2586  0.2902
 7784TIP3    H147547   0.813   1.289   1.566  0.7299  0.1032 -0.1527
 7784TIP3    H247548   0.883   1.388   1.656  0.2506 -1.0693  1.5448
 7785TIP3   OH247549   1.951   4.906   2.040 -0.0403 -0.1186 -0.0345
 7785TIP3    H147550   1.911   4.865   1.963  3.9463 -1.8110 -1.4753
 7785TIP3    H247551   2.017   4.965   2.004  0.3373  0.8338  2.1147
 7786TIP3   OH247552   1.966   0.098   9.178  0.0625 -0.1319 -0.2864
 7786TIP3    H147553   1.990   0.005   9.183  1.5437  0.2230 -0.3378
 7786TIP3    H247554   1.933   0.110   9.089  0.9024 -0.3882 -0.6404
 7787TIP3   OH247555   1.932   1.826   8.274 -0.0298  0.0605  0.1794
 7787TIP3    H147556   1.968   1.915   8.271  0.1439 -0.0092  0.1881
 7787TIP3    H247557   1.912   1.812   8.367  1.3776 -0.4761  0.4174
 7788TIP3   OH247558   1.701   6.120   0.654  0.2038 -0.0650 -0.2191
 7788TIP3    H147559   1.723   6.209   0.626  3.3395  0.0434  2.0867
 7788TIP3    H247560   1.776   6.067   0.627 -0.9609 -1.7634 -0.2720
 7789TIP3   OH247561   3.845   1.985   8.825  0.3802 -0.0638 -0.0694
 7789TIP3    H147562   3.794   1.980   8.744  0.0806 -0.5130  0.1481
 7789TIP3    H247563   3.823   1.905   8.873  2.4079 -1.0041 -0.6253
 7790TIP3   OH247564   0.966   1.341   2.873  0.6654  0.3505 -0.1030
 7790TIP3    H147565   1.002   1.268   2.923  1.9401  0.7377 -0.4423
 7790TIP3    H247566   1.041   1.396   2.852 -0.3792  2.1963  0.8095
 7791TIP3   OH247567   0.264   0.486   1.340  0.5640  0.0556  0.1014
 7791TIP3    H147568   0.331   0.553   1.355 -0.3816  0.8926  0.6730
 7791TIP3    H247569   0.314   0.404   1.333  1.5473  0.4107  2.2003
 7792TIP3   OH247570   5.224   6.066   0.448  0.3033 -0.5856 -0.3903
 7792TIP3    H147571   5.291   5.999   0.462  0.6906 -0.4274 -1.3427
 7792TIP3    H247572   5.170   6.063   0.526  1.0118 -1.2024  0.0953
 7793TIP3   OH247573   4.076   2.247   9.382 -0.2180  0.6680  0.4883
 7793TIP3    H147574   4.095   2.211   9.469 -0.2083  0.6814  0.4922
 7793TIP3    H247575   4.149   2.307   9.365 -0.0811  0.4640  0.3565
 7794TIP3   OH247576   4.838   0.891   8.333  0.2035 -0.0558  0.2037
 7794TIP3    H147577   4.861   0.811   8.380 -0.0283 -1.5057 -2.0174
 7794TIP3    H247578   4.784   0.940   8.395 -2.0664 -2.9388  0.7504
 7795TIP3   OH247579   3.697   0.063   1.032  0.5275 -0.0669 -0.0941
 7795TIP3    H147580   3.743   0.017   0.962  0.6478  0.6448 -0.4930
 7795TIP3    H247581   3.718   0.156   1.017 -0.0409  0.1522  0.4462
 7796TIP3   OH247582   0.108   5.743   1.355  0.3714 -0.4795  0.2864
 7796TIP3    H147583   0.053   5.708   1.424 -0.0672  0.3510  0.3706
 7796TIP3    H247584   0.048   5.758   1.282  0.6115 -0.2256  0.1402
 7797TIP3   OH247585   5.309   0.717   0.210 -0.2711  0.4800  0.0009
 7797TIP3    H147586   5.260   0.737   0.290 -0.3133 -0.3412  0.1840
 7797TIP3    H247587   5.395   0.756   0.225 -0.1499 -0.0091  0.6116
 7798TIP3   OH247588   4.100   0.816   0.287 -0.1985  0.2520 -0.2396
 7798TIP3    H147589   4.174   0.756   0.296 -1.1583 -0.6638  2.4222
 7798TIP3    H247590   4.140   0.902   0.274  1.2378 -0.5714 -1.7360
 7799TIP3   OH247591   0.887   1.894   9.670  0.4139  0.5459 -0.0694
 7799TIP3    H147592   0.802   1.851   9.659  0.7077  0.2383 -1.3893
 7799TIP3    H247593   0.950   1.821   9.672  0.6528  0.7672  0.9453
 7800TIP3   OH247594   1.045   3.358   1.816 -0.4060  0.4991 -0.4179
 7800TIP3    H147595   0.969   3.340   1.760 -1.6256  2.9147  0.3489
 7800TIP3    H247596   1.105   3.408   1.761 -0.9256  1.5503 -0.0506
 7801TIP3   OH247597   7.088   1.416   1.769  0.2666  0.0285 -0.4383
 7801TIP3    H147598   6.994   1.396   1.763  0.6391 -1.8259 -0.7415
 7801TIP3    H247599   7.111   1.393   1.859  0.5690 -0.2706 -0.5881
 7802TIP3   OH247600   7.399   0.456   2.480 -0.3741 -0.5875 -0.2103
 7802TIP3    H147601   7.485   0.455   2.521 -0.8465 -1.3313  0.8128
 7802TIP3    H247602   7.385   0.367   2.449 -0.3241 -0.2004 -1.3709
 7803TIP3   OH247603   2.555   5.586   7.818  0.5374 -0.4734  0.1667
 7803TIP3    H147604   2.502   5.665   7.829  1.9807  0.5225  0.2205
 7803TIP3    H247605   2.640   5.609   7.857  2.0121 -0.9635 -2.5593
 7804TIP3   OH247606   5.925   0.502   1.271 -0.3944 -0.0834 -0.0508
 7804TIP3    H147607   5.915   0.408   1.288 -0.1079 -0.6542 -2.6385
 7804TIP3    H247608   6.014   0.522   1.298 -0.2703 -0.6996  0.0189
 7805TIP3   OH247609   1.615   5.525   8.490  0.2070  0.1395 -0.1221
 7805TIP3    H147610   1.566   5.450   8.525  0.7650 -0.5948 -0.8792
 7805TIP3    H247611   1.631   5.502   8.398 -0.3279  1.5633 -0.6002
 7806TIP3   OH247612   5.542   6.643   0.033  1.0567  0.2295 -1.1944
 7806TIP3    H147613   5.587   6.675  -0.046 -1.5247  4.2599 -1.3402
 7806TIP3    H247614   5.486   6.716   0.059 -0.9495 -2.2893  2.3287
 7807TIP3   OH247615   2.732   6.793   9.115  0.0788  0.6209  0.3411
 7807TIP3    H147616   2.719   6.851   9.190  0.0077 -0.1770  0.9641
 7807TIP3    H247617   2.765   6.712   9.154 -0.8665 -0.1315 -0.3868
 7808TIP3   OH247618   6.490   7.433   6.945  0.3157 -0.4689  0.0012
 7808TIP3    H147619   6.525   7.351   6.909  0.2781 -0.6623  0.3930
 7808TIP3    H247620   6.403   7.410   6.976 -1.2720  0.6057 -3.3096
 7809TIP3   OH247621   7.512   6.906   8.589  0.0412  0.0798  0.0330
 7809TIP3    H147622   7.537   6.876   8.676  1.4913  0.3498 -0.2508
 7809TIP3    H247623   7.456   6.982   8.604  1.4340  1.0134  0.7600
 7810TIP3   OH247624   0.180   3.943   0.868 -0.1194 -0.2173  0.1630
 7810TIP3    H147625   0.269   3.971   0.889  0.1650  0.0205 -1.2681
 7810TIP3    H247626   0.190   3.853   0.836  0.0954  0.8489 -3.0699
 7811TIP3   OH247627   3.723   2.093   8.277  0.4006  0.0440 -1.1039
 7811TIP3    H147628   3.652   2.157   8.287  0.5931  0.1456 -0.3459
 7811TIP3    H247629   3.775   2.102   8.357 -1.0367 -2.9087  0.3263
 7812TIP3   OH247630   4.711   6.008   9.938  0.6139 -0.6926 -0.3484
 7812TIP3    H147631   4.764   5.943   9.892  0.6177 -2.3168  1.7800
 7812TIP3    H247632   4.722   5.987  10.031  0.7962  2.5354  0.4879
 7813TIP3   OH247633   7.438   4.083   0.896  0.1350 -0.8619  0.3250
 7813TIP3    H147634   7.473   4.005   0.940 -0.5764 -0.8526  0.9173
 7813TIP3    H247635   7.410   4.140   0.967 -1.4195 -1.0286 -0.1319
 7814TIP3   OH247636   2.509   4.354   7.987 -0.0782  0.0173  0.1580
 7814TIP3    H147637   2.531   4.288   8.053  0.6750  0.4216  0.3290
 7814TIP3    H247638   2.442   4.409   8.028  1.7667  1.4688  1.4051
 7815TIP3   OH247639   5.540   2.587   1.088 -0.1202  0.4980  0.1562
 7815TIP3    H147640   5.484   2.621   1.017  0.3872 -1.3826 -1.2137
 7815TIP3    H247641   5.481   2.532   1.140 -0.6928  2.5158  1.7699
 7816TIP3   OH247642   2.959   4.085   9.708 -0.6138  0.2732 -0.5706
 7816TIP3    H147643   3.046   4.050   9.731 -0.1771  2.9586  2.5698
 7816TIP3    H247644   2.972   4.180   9.704 -3.4562  0.7727  0.2454
 7817TIP3   OH247645   0.001   3.485   8.307  0.5171 -0.1226 -0.2772
 7817TIP3    H147646   0.085   3.509   8.346 -0.1375  0.9365  0.5279
 7817TIP3    H247647   0.015   3.497   8.213  0.7730  1.7707 -0.0376
 7818TIP3   OH247648   6.624   7.150   7.780 -0.4323 -0.0556  0.0020
 7818TIP3    H147649   6.707   7.171   7.822 -1.0215 -0.3893  1.4102
 7818TIP3    H247650   6.597   7.231   7.737  0.9070 -0.1200 -1.0255
 7819TIP3   OH247651   7.662   0.088   9.808  0.6460 -0.2188 -0.1964
 7819TIP3    H147652   7.662   0.174   9.850  0.1284  0.0125 -0.6723
 7819TIP3    H247653   7.729   0.039   9.856 -1.7916 -0.9028  2.8287
 7820TIP3   OH247654   6.751   2.550   0.380 -0.1059  0.1052  0.0520
 7820TIP3    H147655   6.798   2.615   0.433  0.3250  0.3334 -0.5984
 7820TIP3    H247656   6.679   2.521   0.436 -0.2920  1.1327  0.3619
 7821TIP3   OH247657   4.531   2.521   9.516 -1.0651  0.5055 -0.1619
 7821TIP3    H147658   4.488   2.574   9.584  0.3214  1.5320 -0.0320
 7821TIP3    H247659   4.463   2.507   9.450 -1.6065  2.1115  0.0006
 7822TIP3   OH247660   4.682   2.820   7.423  0.4213 -0.0010 -0.0395
 7822TIP3    H147661   4.759   2.775   7.459 -0.1801  0.7273  2.3702
 7822TIP3    H247662   4.716   2.870   7.349  1.9683 -0.8541  0.0574
 7823TIP3   OH247663   5.264   4.332   9.357  0.1775  0.0331  0.2791
 7823TIP3    H147664   5.214   4.388   9.417  0.6743  1.1821 -0.3512
 7823TIP3    H247665   5.355   4.360   9.369  0.1249  1.6818 -2.3848
 7824TIP3   OH247666   2.351   7.509   9.320 -0.1942 -0.7034  0.5884
 7824TIP3    H147667   2.280   7.486   9.260 -0.1431 -0.4496  0.4253
 7824TIP3    H247668   2.431   7.494   9.269 -0.0452 -2.4605  1.2658
 7825TIP3   OH247669   6.180   5.498   7.982 -0.2561 -0.2691  0.2456
 7825TIP3    H147670   6.254   5.540   7.938  0.7684 -1.0795  1.1329
 7825TIP3    H247671   6.115   5.486   7.913  0.1378  1.1286 -0.3969
 7826TIP3   OH247672   6.819   1.725   2.342  0.4669 -0.1780 -0.3539
 7826TIP3    H147673   6.818   1.782   2.265  2.0484  0.8464  0.3490
 7826TIP3    H247674   6.896   1.751   2.391 -0.1415 -1.2644  1.2727
 7827TIP3   OH247675   5.926   2.089   7.188 -0.3189 -0.2694 -0.0621
 7827TIP3    H147676   5.997   2.084   7.124 -1.2392 -1.3115 -1.0497
 7827TIP3    H247677   5.893   2.179   7.181 -1.1268 -0.6748 -1.8883
 7828TIP3   OH247678   3.486   4.355   0.011  0.1308 -0.1888  0.1177
 7828TIP3    H147679   3.471   4.447  -0.006 -0.9168 -0.3102  0.3240
 7828TIP3    H247680   3.577   4.350   0.041 -0.5552  1.1672  2.7171
 7829TIP3   OH247681   7.512   4.390   8.706 -0.1203 -0.0343  0.1224
 7829TIP3    H147682   7.563   4.345   8.773  0.2778 -0.6106 -0.5541
 7829TIP3    H247683   7.572   4.456   8.671  0.1704 -0.6883 -0.6481
 7830TIP3   OH247684   0.305   4.901   8.578  0.4885  0.0443  0.8980
 7830TIP3    H147685   0.294   4.865   8.667  0.2275 -1.1829  0.3879
 7830TIP3    H247686   0.225   4.950   8.562 -1.4147 -3.1106 -0.1645
 7831TIP3   OH247687   0.387   4.305   6.665 -0.1908 -0.2871  0.0372
 7831TIP3    H147688   0.430   4.222   6.646  1.4553  0.8691 -1.7565
 7831TIP3    H247689   0.341   4.327   6.584  1.7793  1.8214 -0.6435
 7832TIP3   OH247690   1.531   3.780   1.076  0.0448 -0.3361 -0.2463
 7832TIP3    H147691   1.579   3.761   0.996  0.9106  1.1904 -0.1106
 7832TIP3    H247692   1.457   3.834   1.047 -0.9798 -1.6901 -0.2897
 7833TIP3   OH247693   4.958   1.637   9.323 -0.1736 -0.0539  0.5289
 7833TIP3    H147694   4.873   1.634   9.367 -0.3527 -0.6263  0.1602
 7833TIP3    H247695   4.975   1.730   9.309 -1.4020  0.0182 -0.6489
 7834TIP3   OH247696   7.463   4.401   7.406 -0.2740  0.1296 -0.0717
 7834TIP3    H147697   7.412   4.336   7.358  0.3714 -0.8392  0.5284
 7834TIP3    H247698   7.411   4.419   7.484  0.1758 -0.6906  0.4295
 7835TIP3   OH247699   2.391   6.462   9.105  0.3731  0.3777 -0.5217
 7835TIP3    H147700   2.456   6.394   9.087 -0.1954 -0.2292 -0.3392
 7835TIP3    H247701   2.364   6.493   9.019 -0.0402 -0.2862 -0.6325
 7836TIP3   OH247702   4.911   6.620   0.089 -0.1588 -0.2453 -0.4104
 7836TIP3    H147703   5.004   6.633   0.107  0.1027 -1.2543 -0.9501
 7836TIP3    H247704   4.872   6.707   0.095  0.6923  0.0850  0.5250
 7837TIP3   OH247705   7.065   5.312   8.028  0.3267  0.3038  0.0599
 7837TIP3    H147706   7.113   5.235   8.057 -0.0278  0.5525  1.3843
 7837TIP3    H247707   7.118   5.348   7.956  0.4456 -1.1959 -0.6424
 7838TIP3   OH247708   5.944   3.679   7.294 -0.3131 -0.1641 -0.1900
 7838TIP3    H147709   5.907   3.765   7.279 -0.5457 -0.5303 -1.8467
 7838TIP3    H247710   5.972   3.681   7.386 -2.4054  0.8575  0.4841
 7839TIP3   OH247711   1.901   4.118   1.220  0.2827 -0.3304 -0.2231
 7839TIP3    H147712   1.839   4.060   1.262  0.9171 -1.0863 -0.3024
 7839TIP3    H247713   1.977   4.119   1.279  1.1333 -1.3116 -1.2448
 7840TIP3   OH247714   0.971   6.152   2.346 -0.8392  0.0030  0.2738
 7840TIP3    H147715   0.890   6.125   2.389 -0.5823 -1.7928 -0.2803
 7840TIP3    H247716   1.019   6.070   2.332  0.9457  0.9934  0.3162
 7841TIP3   OH247717   1.837   0.036   9.827 -0.8857  0.3476 -0.6447
 7841TIP3    H147718   1.916   0.066   9.871 -1.2532  1.8327 -0.9306
 7841TIP3    H247719   1.782   0.114   9.819 -3.8543 -1.1667  2.4418
 7842TIP3   OH247720   0.575   5.230   9.806  0.0581 -0.0010  0.4207
 7842TIP3    H147721   0.555   5.155   9.751 -1.6156  0.4553  0.3625
 7842TIP3    H247722   0.662   5.258   9.777  0.1492 -1.1036 -0.4537
 7843TIP3   OH247723   5.136   7.383   2.032  0.3406 -0.3665  0.4067
 7843TIP3    H147724   5.153   7.372   1.938 -0.8247  1.7297 -0.1219
 7843TIP3    H247725   5.055   7.433   2.036  0.2731 -0.5517  2.5613
 7844TIP3   OH247726   7.471   3.559   0.192  0.0901 -0.4538 -0.2245
 7844TIP3    H147727   7.500   3.559   0.100  0.6205  0.9294 -0.0828
 7844TIP3    H247728   7.425   3.643   0.202 -1.1154 -1.1623  0.4448
 7845TIP3   OH247729   0.848   3.983   8.482 -0.5368 -0.4950 -0.4990
 7845TIP3    H147730   0.920   3.927   8.508 -1.7720 -1.1978  1.6757
 7845TIP3    H247731   0.820   3.949   8.397  2.6458  0.8603 -2.2554
 7846TIP3   OH247732   2.103   4.174   6.785  0.3725 -0.7742  0.2630
 7846TIP3    H147733   2.150   4.090   6.779 -0.1169 -1.1928  1.8243
 7846TIP3    H247734   2.022   4.160   6.736  1.3623 -0.3763 -1.5858
 7847TIP3   OH247735   2.821   5.635   0.123  0.1769 -0.5756 -0.0102
 7847TIP3    H147736   2.903   5.661   0.081  0.6424 -2.2825 -0.2278
 7847TIP3    H247737   2.843   5.557   0.173 -1.4672 -1.5456 -0.7161
 7848TIP3   OH247738   4.261   2.890   0.716  0.1907 -0.0563 -0.8165
 7848TIP3    H147739   4.174   2.851   0.704 -0.6243  1.1814  0.7161
 7848TIP3    H247740   4.263   2.963   0.655 -0.5011  0.8912  0.2683
 7849TIP3   OH247741   1.871   3.824   1.952  0.4864 -1.1098 -0.0421
 7849TIP3    H147742   1.788   3.816   2.000  0.9624  0.1460  1.0503
 7849TIP3    H247743   1.938   3.797   2.015  1.3216  2.5669  0.8343
 7850TIP3   OH247744   6.719   0.017   2.702  0.0715 -0.1972  0.7403
 7850TIP3    H147745   6.703  -0.058   2.759 -1.1938 -0.6653 -0.1897
 7850TIP3    H247746   6.759   0.083   2.759 -1.2077 -0.6319  2.1850
 7851TIP3   OH247747   1.404   6.056   2.782 -0.5507  0.0682 -0.1146
 7851TIP3    H147748   1.467   6.032   2.713  0.0034 -0.1159  0.4462
 7851TIP3    H247749   1.361   5.974   2.804 -0.7647  0.1366 -0.2784
 7852TIP3   OH247750   3.230   4.044   1.874 -0.3951 -0.1935  0.0519
 7852TIP3    H147751   3.266   3.958   1.849  2.1689  0.9627 -0.5760
 7852TIP3    H247752   3.250   4.053   1.967 -1.0122 -0.4063  0.2119
 7853TIP3   OH247753   2.561   0.073   0.813  0.5389 -0.1970  0.5826
 7853TIP3    H147754   2.610  -0.005   0.839 -0.0813 -1.8644 -2.6999
 7853TIP3    H247755   2.616   0.146   0.841  1.3058 -1.7226  3.4828
 7854TIP3   OH247756   6.462   0.569   7.584 -0.4320  0.2323  0.0700
 7854TIP3    H147757   6.514   0.622   7.523 -1.4004  0.2393 -0.7827
 7854TIP3    H247758   6.423   0.632   7.644  0.7401  0.2028  0.8821
 7855TIP3   OH247759   0.881   4.589   0.440  0.0282 -0.6596 -0.5719
 7855TIP3    H147760   0.903   4.535   0.364  0.2610  0.8760 -1.6402
 7855TIP3    H247761   0.960   4.640   0.458 -0.5850  0.2721 -0.4275
 7856TIP3   OH247762   6.347   6.104   6.769  0.1288 -0.1659  0.5453
 7856TIP3    H147763   6.435   6.118   6.805 -0.3239 -1.2051  2.1855
 7856TIP3    H247764   6.340   6.167   6.698  1.2446  1.8070  2.0689
 7857TIP3   OH247765   3.652   6.207   0.043 -0.3170  0.3792 -0.0870
 7857TIP3    H147766   3.720   6.142   0.028 -1.2965 -0.8550  0.6105
 7857TIP3    H247767   3.694   6.291   0.025  1.1580 -0.3949 -0.3808
 7858TIP3   OH247768   2.021   2.223   7.898 -0.4387 -0.0379  0.7620
 7858TIP3    H147769   2.053   2.133   7.911  0.8778  0.1399 -0.9409
 7858TIP3    H247770   1.935   2.212   7.858 -0.1758 -0.5566  0.3227
 7859TIP3   OH247771   4.911   6.460   0.542  0.2755  0.0525 -0.2620
 7859TIP3    H147772   4.831   6.511   0.528  0.7444  1.0266  0.4335
 7859TIP3    H247773   4.973   6.523   0.580  1.4649 -0.6003 -1.0211
 7860TIP3   OH247774   2.832   6.650   7.905 -0.1817 -0.2615 -0.0540
 7860TIP3    H147775   2.851   6.595   7.981  0.1961 -0.9493 -0.6331
 7860TIP3    H247776   2.797   6.590   7.840 -1.0902  0.4264 -0.2181
 7861TIP3   OH247777   6.678   2.429   8.596  0.0120  0.0575 -0.3875
 7861TIP3    H147778   6.595   2.402   8.635  0.8380 -1.1652  0.6116
 7861TIP3    H247779   6.720   2.347   8.570  0.5882  0.7103 -1.5554
 7862TIP3   OH247780   2.997   5.801   1.341 -0.5219 -0.1465  0.1918
 7862TIP3    H147781   3.061   5.818   1.410 -0.5091 -1.2980  0.4933
 7862TIP3    H247782   2.914   5.788   1.388 -0.6475 -0.2535 -0.0576
 7863TIP3   OH247783   0.748   1.657   9.581 -0.9772 -0.2631  0.2835
 7863TIP3    H147784   0.797   1.576   9.564 -2.2196 -1.1957  0.8967
 7863TIP3    H247785   0.665   1.626   9.618 -0.8605  1.3763  2.0399
 7864TIP3   OH247786   2.764   6.592   1.576  0.5137 -0.3217  0.4744
 7864TIP3    H147787   2.724   6.516   1.535 -0.6238  0.1215  0.7317
 7864TIP3    H247788   2.845   6.606   1.526 -0.4872 -0.2164 -1.1997
 7865TIP3   OH247789   5.177   1.175   8.744 -0.1585  0.4042 -0.8522
 7865TIP3    H147790   5.164   1.268   8.722 -1.1271  0.3783 -0.4157
 7865TIP3    H247791   5.160   1.129   8.662  1.6725  0.6787 -1.4433
 7866TIP3   OH247792   0.393   6.655   2.554  0.0832  0.0806 -0.0225
 7866TIP3    H147793   0.397   6.654   2.650 -4.0601 -0.8170  0.3186
 7866TIP3    H247794   0.366   6.743   2.531 -0.9472 -0.2502 -0.1438
 7867TIP3   OH247795   0.263   3.670   7.180 -0.4412  0.3018  0.3322
 7867TIP3    H147796   0.219   3.585   7.188  0.9673 -0.4615  0.3449
 7867TIP3    H247797   0.312   3.679   7.262 -0.9076  1.3342  0.5068
 7868TIP3   OH247798   1.197   2.618   1.078 -0.1323 -0.5286  0.3530
 7868TIP3    H147799   1.150   2.625   1.161  1.7310  1.0240  1.3539
 7868TIP3    H247800   1.254   2.541   1.089 -0.0495 -0.4579  0.4141
 7869TIP3   OH247801   6.019   7.646   8.343 -0.7048  0.1123  0.4172
 7869TIP3    H147802   5.938   7.635   8.393 -0.7911  0.2729  0.3156
 7869TIP3    H247803   6.002   7.722   8.287 -0.3843  0.3162  0.5931
 7870TIP3   OH247804   7.314   1.580   2.012  0.4060 -0.8182 -0.1270
 7870TIP3    H147805   7.284   1.645   1.949 -1.9295 -1.4867  0.1920
 7870TIP3    H247806   7.342   1.631   2.088 -0.7182 -0.1457 -0.1540
 7871TIP3   OH247807   3.867   2.440   3.127  0.1804 -0.3381 -0.3212
 7871TIP3    H147808   3.873   2.532   3.152 -1.4955 -0.3089  0.0886
 7871TIP3    H247809   3.781   2.432   3.085 -0.2517 -1.9448  0.7727
 7872TIP3   OH247810   0.048   3.803   2.506 -0.0673 -0.2947 -0.1818
 7872TIP3    H147811   0.101   3.868   2.552  0.6511 -0.6577 -0.4820
 7872TIP3    H247812  -0.042   3.836   2.512  0.5168  1.9971 -2.3718
 7873TIP3   OH247813   6.027   0.494   7.480  0.1430  0.2571 -0.2765
 7873TIP3    H147814   6.057   0.467   7.393 -0.0481  0.1462 -0.3073
 7873TIP3    H247815   5.988   0.416   7.518  0.0327  0.3617 -0.1735
 7874TIP3   OH247816   7.568   2.570   9.648 -0.3544  0.1670  0.0234
 7874TIP3    H147817   7.631   2.514   9.602 -0.4524 -0.3586  0.5183
 7874TIP3    H247818   7.597   2.659   9.629  1.3407 -0.0519  1.3213
 7875TIP3   OH247819   6.351   0.845   7.149 -0.7864 -0.7588  0.4184
 7875TIP3    H147820   6.280   0.869   7.089  1.5558  1.2647 -1.7778
 7875TIP3    H247821   6.402   0.780   7.101 -0.0489 -0.7102  1.1175
 7876TIP3   OH247822   7.395   4.030   9.983  0.1422 -0.0909 -0.5245
 7876TIP3    H147823   7.415   4.108   9.931 -0.7990  0.6520  0.1961
 7876TIP3    H247824   7.417   4.055  10.073  0.0549 -0.7473 -0.3133
 7877TIP3   OH247825   1.810   3.293   0.351  0.3356  0.2780  0.3131
 7877TIP3    H147826   1.885   3.270   0.407 -0.0223 -1.4618  0.1573
 7877TIP3    H247827   1.738   3.240   0.386 -0.0611 -0.3443 -1.3662
 7878TIP3   OH247828   2.677   7.667   0.484  0.0388  0.1443  0.0871
 7878TIP3    H147829   2.600   7.710   0.448  0.4766  0.0391 -1.0311
 7878TIP3    H247830   2.714   7.619   0.410  0.6936 -0.5112  0.8151
 7879TIP3   OH247831   6.178   7.459   0.598 -0.0507 -0.4240  0.2108
 7879TIP3    H147832   6.117   7.475   0.670 -0.5531 -0.3111 -0.2324
 7879TIP3    H247833   6.249   7.408   0.637 -0.6260 -0.9111  0.6424
 7880TIP3   OH247834   6.004   3.988   7.837  0.2719  0.2495 -0.1837
 7880TIP3    H147835   5.956   3.991   7.754  1.4820 -2.1953 -1.0546
 7880TIP3    H247836   5.986   3.900   7.871 -0.3535  1.2609  2.3045
 7881TIP3   OH247837   0.949   7.028   8.969 -0.0397  0.0997  0.2690
 7881TIP3    H147838   0.966   7.004   8.879  0.4180  1.4110 -0.0216
 7881TIP3    H247839   0.933   6.945   9.014  0.2726 -0.6074 -0.8891
 7882TIP3   OH247840   4.146   1.100   2.526  0.3355 -0.2210  0.2726
 7882TIP3    H147841   4.143   1.080   2.619 -2.0869 -0.9919  0.0983
 7882TIP3    H247842   4.143   1.015   2.483 -0.3525  0.1661 -0.4848
 7883TIP3   OH247843   3.876   3.240   8.565  0.3532  0.2508 -0.2247
 7883TIP3    H147844   3.839   3.211   8.481  0.4300 -1.3431  0.2570
 7883TIP3    H247845   3.867   3.335   8.563 -2.6105  0.0574 -0.6738
 7884TIP3   OH247846   1.988   0.773   6.857 -0.4582  0.0588 -0.3798
 7884TIP3    H147847   2.047   0.703   6.883 -1.8437 -0.7422  0.7081
 7884TIP3    H247848   2.036   0.820   6.788  0.5673 -1.8448 -1.0427
 7885TIP3   OH247849   5.192   0.516   8.375  0.0156 -0.2023  0.0503
 7885TIP3    H147850   5.143   0.557   8.446  2.8363  2.3510  0.7265
 7885TIP3    H247851   5.269   0.478   8.418  0.3780 -1.1187 -1.3365
 7886TIP3   OH247852   0.438   1.400   8.911 -0.2770  0.0841  0.1063
 7886TIP3    H147853   0.404   1.390   8.822 -1.0678 -0.6946  0.4876
 7886TIP3    H247854   0.482   1.485   8.910  0.1918 -0.1470 -1.1777
 7887TIP3   OH247855   5.574   5.924   8.226  0.4838 -0.3891  0.2717
 7887TIP3    H147856   5.516   5.952   8.297  1.8086  0.6164  1.0145
 7887TIP3    H247857   5.537   5.964   8.148  0.1356  0.2075  0.7334
 7888TIP3   OH247858   0.138   3.432   6.984 -0.2869 -0.2820 -0.0577
 7888TIP3    H147859   0.192   3.371   6.934 -0.6097 -0.5195 -0.1191
 7888TIP3    H247860   0.129   3.508   6.927 -1.5026 -0.9482 -0.8129
 7889TIP3   OH247861   7.135   5.698   2.342  0.2058 -0.1486 -0.0527
 7889TIP3    H147862   7.131   5.713   2.248  1.0332 -0.4251 -0.1435
 7889TIP3    H247863   7.047   5.718   2.374 -0.9307 -2.7419 -1.2859
 7890TIP3   OH247864   3.034   0.798   0.615 -0.4244  0.3534 -0.7597
 7890TIP3    H147865   3.071   0.826   0.531  0.0068 -0.9201 -1.0101
 7890TIP3    H247866   3.084   0.720   0.638  0.2478  1.3338  1.2619
 7891TIP3   OH247867   0.258   6.959   1.025 -0.0658  0.0406  0.3738
 7891TIP3    H147868   0.175   7.000   1.049 -0.0085  0.4741 -0.1562
 7891TIP3    H247869   0.294   6.928   1.108  0.3967  2.0136  0.9687
 7892TIP3   OH247870   6.794   5.279   9.477 -0.0405 -0.1090 -0.4594
 7892TIP3    H147871   6.719   5.313   9.427 -0.1625  1.8969  0.9810
 7892TIP3    H247872   6.867   5.336   9.453  0.1114  0.3193  0.9209
 7893TIP3   OH247873   4.685   6.033   8.559  0.3402 -0.6332  0.5198
 7893TIP3    H147874   4.674   6.044   8.465  1.5355 -2.3165  0.1411
 7893TIP3    H247875   4.757   6.091   8.582 -1.3730  1.4718  0.8584
 7894TIP3   OH247876   2.286   6.824   9.732  0.6809 -0.6620  0.4073
 7894TIP3    H147877   2.263   6.796   9.643  0.6170 -0.4606  0.3605
 7894TIP3    H247878   2.346   6.897   9.719  2.9713 -2.4179  0.5148
 7895TIP3   OH247879   1.269   7.301   0.689 -0.1358 -0.0382 -0.0710
 7895TIP3    H147880   1.288   7.347   0.771  0.1255 -0.9453  0.3792
 7895TIP3    H247881   1.179   7.325   0.669 -0.8756 -1.3472  1.5107
 7896TIP3   OH247882   7.371   4.727   8.225  0.1251 -0.0416  0.2229
 7896TIP3    H147883   7.392   4.744   8.317 -1.2760 -0.3605  0.6305
 7896TIP3    H247884   7.312   4.651   8.228  0.9159 -0.7467 -1.0315
 7897TIP3   OH247885   7.319   4.262   7.238  0.3284 -0.6380 -0.2349
 7897TIP3    H147886   7.234   4.296   7.210  1.1478  0.9166 -0.9429
 7897TIP3    H247887   7.369   4.254   7.157  0.5367 -2.6095  0.0408
 7898TIP3   OH247888   0.880   4.777   8.274 -0.0123  0.4553  0.1534
 7898TIP3    H147889   0.797   4.768   8.227  0.0767  2.4874 -0.4846
 7898TIP3    H247890   0.866   4.730   8.356 -1.1661 -0.7246 -0.6728
 7899TIP3   OH247891   4.283   4.817   9.138  0.7592 -0.2632 -0.0261
 7899TIP3    H147892   4.263   4.893   9.194  0.4940  0.8391 -1.5520
 7899TIP3    H247893   4.378   4.808   9.144  0.6565 -0.7044  1.2530
 7900TIP3   OH247894   6.638   0.208   9.844  0.0653 -0.0096  0.0901
 7900TIP3    H147895   6.585   0.131   9.864  0.1928 -0.6469 -1.8051
 7900TIP3    H247896   6.651   0.203   9.749  1.0890  1.7049  0.1164
 7901TIP3   OH247897   6.422   3.331   0.357  0.0565 -0.1710  0.5104
 7901TIP3    H147898   6.483   3.404   0.351 -2.1647  2.2102  3.7296
 7901TIP3    H247899   6.472   3.261   0.398  1.6866  0.1514 -0.8096
 7902TIP3   OH247900   2.636   0.417   9.043  0.1148  0.0270  0.6945
 7902TIP3    H147901   2.641   0.329   9.005 -1.0094  0.0060  0.5617
 7902TIP3    H247902   2.562   0.458   8.999 -0.0068  0.6867  1.4876
 7903TIP3   OH247903   5.291   3.772   8.897  0.3646  0.2893 -0.6253
 7903TIP3    H147904   5.263   3.839   8.959  0.3345 -2.3793  2.5741
 7903TIP3    H247905   5.374   3.740   8.933 -0.7778 -2.9384 -0.4768
 7904TIP3   OH247906   2.983   2.820   3.382 -0.0130  0.0789  0.3217
 7904TIP3    H147907   3.051   2.844   3.319  0.2333 -0.5009  0.3634
 7904TIP3    H247908   3.000   2.728   3.402 -0.9854 -0.1657  0.1074
 7905TIP3   OH247909   1.578   3.985   0.463  0.1014  0.2195  0.3496
 7905TIP3    H147910   1.586   4.063   0.408  0.3931  0.5906  0.9081
 7905TIP3    H247911   1.659   3.983   0.514 -0.9531  0.9779  2.1617
 7906TIP3   OH247912   3.631   1.105   9.925 -0.6288 -0.3036  0.2360
 7906TIP3    H147913   3.607   1.198   9.928 -0.4852 -0.2408 -0.3402
 7906TIP3    H247914   3.680   1.096   9.843 -1.7890 -1.1642 -0.3918
 7907TIP3   OH247915   6.720   6.505   0.223 -0.0446  0.1712 -0.1797
 7907TIP3    H147916   6.792   6.496   0.285  1.3789 -2.7485 -1.9789
 7907TIP3    H247917   6.671   6.423   0.230 -2.8204  1.7507  0.4087
 7908TIP3   OH247918   0.816   5.651   1.359  0.2963  0.3679  0.1541
 7908TIP3    H147919   0.728   5.646   1.322  0.6610 -0.6757 -0.6326
 7908TIP3    H247920   0.806   5.700   1.440 -1.0189  0.1732  0.1229
 7909TIP3   OH247921   1.054   3.474   0.342 -0.1538 -0.7721 -0.4320
 7909TIP3    H147922   1.000   3.472   0.263  0.8024  1.4729 -1.2114
 7909TIP3    H247923   1.143   3.459   0.310  0.7188  3.3047 -0.3747
 7910TIP3   OH247924   3.783   7.160   8.187  0.6260 -0.0108  0.0355
 7910TIP3    H147925   3.704   7.208   8.214  0.0613  0.7853 -2.7230
 7910TIP3    H247926   3.766   7.069   8.211 -0.9433  0.2252 -0.0868
 7911TIP3   OH247927   7.390   4.868   1.397  0.7081 -0.0910  0.4902
 7911TIP3    H147928   7.332   4.836   1.327  1.4572 -2.2518  0.7887
 7911TIP3    H247929   7.473   4.883   1.353  0.1963  2.3069  0.2094
 7912TIP3   OH247930   7.474   3.920   7.240  0.1650  1.0654  0.4260
 7912TIP3    H147931   7.503   3.947   7.327  1.3848  1.7257 -0.1500
 7912TIP3    H247932   7.380   3.936   7.240 -0.0032  0.2467  1.8925
 7913TIP3   OH247933   3.298   0.211   2.156 -0.8555 -0.0541  0.4382
 7913TIP3    H147934   3.306   0.202   2.061  0.2871  0.9112  0.4125
 7913TIP3    H247935   3.349   0.137   2.191 -1.3746 -0.4781  0.3145
 7914TIP3   OH247936   3.368   5.226   1.704 -0.2721  0.1411  0.4460
 7914TIP3    H147937   3.376   5.304   1.759 -0.8097  1.2958 -1.0554
 7914TIP3    H247938   3.433   5.239   1.635 -0.1453 -0.9120  0.3497
 7915TIP3   OH247939   6.386   7.175   1.187 -0.2227 -0.5565 -0.0641
 7915TIP3    H147940   6.402   7.103   1.125 -0.2638  0.4263 -1.2716
 7915TIP3    H247941   6.316   7.226   1.145 -1.1338 -0.5440  1.4186
 7916TIP3   OH247942   0.091   2.567   0.564 -0.1443 -0.0749 -0.3666
 7916TIP3    H147943   0.139   2.649   0.555  0.2838 -0.4997 -2.8711
 7916TIP3    H247944   0.031   2.567   0.490 -2.6746 -0.4764  1.5629
 7917TIP3   OH247945   3.912   0.844   2.497 -0.0066 -0.1196 -0.0091
 7917TIP3    H147946   3.920   0.842   2.592 -0.9191 -2.6628  0.1125
 7917TIP3    H247947   3.956   0.764   2.468 -2.8498 -1.3492 -1.3393
 7918TIP3   OH247948   3.855   4.877   7.900 -0.7732 -0.0728 -0.0494
 7918TIP3    H147949   3.897   4.908   7.980 -0.0806 -0.3973 -0.2730
 7918TIP3    H247950   3.763   4.866   7.923 -0.8855  1.3255  0.2680
 7919TIP3   OH247951   7.559   3.391   7.363 -0.2622 -0.0697  0.3322
 7919TIP3    H147952   7.534   3.473   7.403  0.6819  0.6414 -0.4804
 7919TIP3    H247953   7.643   3.409   7.320  0.2758 -1.6109  0.6530
 7920TIP3   OH247954   7.477   7.327   1.427  0.2166 -0.3957  0.5878
 7920TIP3    H147955   7.410   7.383   1.467  1.3792 -0.9422  3.5208
 7920TIP3    H247956   7.544   7.389   1.398 -0.5400 -0.0002 -0.3858
 7921TIP3   OH247957   3.107   1.568   7.543 -0.1088  0.3015  0.1403
 7921TIP3    H147958   3.188   1.561   7.493 -0.3703  1.4162 -0.4834
 7921TIP3    H247959   3.038   1.555   7.479 -0.4717 -1.9536  0.8881
 7922TIP3   OH247960   0.684   4.241   2.738  0.6558  0.1791 -0.5179
 7922TIP3    H147961   0.648   4.239   2.650  1.5041 -3.0858 -0.9147
 7922TIP3    H247962   0.776   4.264   2.727  1.0078 -1.2016 -0.6572
 7923TIP3   OH247963   3.556   5.485   1.134 -0.4665  0.0638  0.6776
 7923TIP3    H147964   3.469   5.444   1.138 -0.9536  1.1406  1.3821
 7923TIP3    H247965   3.596   5.447   1.055 -1.6708 -0.2466  0.1861
 7924TIP3   OH247966   4.735   2.020   9.138 -0.1296  0.1111  0.0905
 7924TIP3    H147967   4.694   2.051   9.057 -0.3439 -0.0683  0.1302
 7924TIP3    H247968   4.670   2.037   9.206 -1.1321 -2.2618 -0.1636
 7925TIP3   OH247969   6.580   1.873   7.988 -0.1285 -0.9752  0.3285
 7925TIP3    H147970   6.527   1.866   8.068  0.1965 -0.1644  0.6269
 7925TIP3    H247971   6.521   1.912   7.923  0.5866  1.8678  1.2170
 7926TIP3   OH247972   3.622   5.509   7.260 -0.1986 -0.0717 -0.1071
 7926TIP3    H147973   3.529   5.490   7.254 -0.7753  2.1723  0.7587
 7926TIP3    H247974   3.653   5.504   7.169 -0.8393 -2.0714 -0.2571
 7927TIP3   OH247975   5.109   7.483   9.564 -0.8118 -0.5951  0.4421
 7927TIP3    H147976   5.071   7.407   9.607  0.6801 -1.5867  0.0898
 7927TIP3    H247977   5.204   7.468   9.568 -0.5474  0.3840 -1.1347
 7928TIP3   OH247978   1.404   1.673   7.914  0.2748  0.1020 -0.3784
 7928TIP3    H147979   1.335   1.658   7.978  1.6734 -1.7064  0.8263
 7928TIP3    H247980   1.359   1.702   7.835 -1.9447 -2.0085  0.0201
 7929TIP3   OH247981   6.675   5.789   8.683  0.4221 -0.1313 -0.4565
 7929TIP3    H147982   6.607   5.752   8.739  0.8191  0.5313  0.4805
 7929TIP3    H247983   6.739   5.719   8.674 -1.2346 -1.4944 -2.9691
 7930TIP3   OH247984   3.407   6.742   7.626 -0.2851 -0.8836 -1.0550
 7930TIP3    H147985   3.395   6.738   7.721 -1.2917  2.9161 -0.8608
 7930TIP3    H247986   3.340   6.683   7.591 -0.8240 -1.2886  0.5671
 7931TIP3   OH247987   0.655   1.707   8.348  0.2228  0.2914 -0.4370
 7931TIP3    H147988   0.715   1.649   8.301 -0.6885  0.2011 -1.5232
 7931TIP3    H247989   0.577   1.711   8.293 -0.4776  1.0195  0.5712
 7932TIP3   OH247990   0.834   6.143   1.365 -0.2097 -0.0610  0.5166
 7932TIP3    H147991   0.808   6.219   1.312  1.6553  0.6112  0.4984
 7932TIP3    H247992   0.929   6.148   1.369 -0.1219 -1.8011  1.4508
 7933TIP3   OH247993   4.043   6.076   7.907  0.6181 -0.1824 -0.7672
 7933TIP3    H147994   3.969   6.054   7.850  0.3258  1.0822 -0.9060
 7933TIP3    H247995   4.027   6.168   7.932  1.5001 -0.2771  0.1867
 7934TIP3   OH247996   0.666   2.189   9.341  0.0585 -0.8574 -0.5465
 7934TIP3    H147997   0.739   2.137   9.310  0.0741  0.0182 -2.0697
 7934TIP3    H247998   0.694   2.222   9.426  1.1174 -1.1614 -0.7692
 7935TIP3   OH247999   5.682   0.019   1.427 -0.3081  0.1719  0.2836
 7935TIP3    H148000   5.587   0.021   1.413 -0.4689 -2.1607  0.6590
 7935TIP3    H248001   5.704  -0.074   1.431  1.8953  0.6612  1.0279
 7936TIP3   OH248002   7.077   3.315   0.358  0.2451  0.4897 -0.7275
 7936TIP3    H148003   7.158   3.315   0.307  0.6274  1.9829 -0.1583
 7936TIP3    H248004   7.106   3.321   0.449 -0.4936  0.9087 -0.5116
 7937TIP3   OH248005   4.669   2.090   1.159  0.0562  0.6229  0.2856
 7937TIP3    H148006   4.641   2.163   1.215  0.4278 -0.4913  1.9882
 7937TIP3    H248007   4.764   2.099   1.154  0.2023 -0.2278  1.2491
 7938TIP3   OH248008   2.107   7.301   8.423 -0.2617 -1.0030  0.2416
 7938TIP3    H148009   2.140   7.281   8.510 -0.4366  0.5042  0.6812
 7938TIP3    H248010   2.173   7.266   8.364  0.3079 -1.2378  1.0028
 7939TIP3   OH248011   2.646   1.170   9.279  0.0312  0.1949  0.1500
 7939TIP3    H148012   2.606   1.174   9.193 -0.0398 -1.0413  0.1071
 7939TIP3    H248013   2.741   1.171   9.262  0.0168  0.0391  0.0635
 7940TIP3   OH248014   3.567   0.800   2.084  0.0803 -0.0936 -0.1108
 7940TIP3    H148015   3.599   0.760   2.165  1.0507  3.4010  1.4523
 7940TIP3    H248016   3.483   0.838   2.107 -0.1954 -0.0614 -1.1174
 7941TIP3   OH248017   0.088   5.682   1.015 -0.0716 -0.0800  0.0555
 7941TIP3    H148018   0.080   5.743   0.942  0.0841  0.2321  0.2968
 7941TIP3    H248019   0.162   5.715   1.067 -1.1816  0.6516  1.2360
 7942TIP3   OH248020   5.218   0.561   1.126  0.0274  0.3908 -0.4433
 7942TIP3    H148021   5.308   0.582   1.151  0.4958  3.0499 -3.6510
 7942TIP3    H248022   5.227   0.496   1.056 -0.7212 -0.7924  0.5232
 7943TIP3   OH248023   7.585   6.173   2.905  0.1881  0.2281  0.6096
 7943TIP3    H148024   7.598   6.241   2.839  0.6529  0.7498  1.2282
 7943TIP3    H248025   7.660   6.114   2.893  1.4954  1.4895  2.0515
 7944TIP3   OH248026   0.847   0.485   0.870 -0.0292 -0.5044  0.1428
 7944TIP3    H148027   0.876   0.456   0.783  1.0430 -0.0404  0.3312
 7944TIP3    H248028   0.827   0.404   0.917  1.4939 -0.9059  0.1700
 7945TIP3   OH248029   4.434   5.914   9.150 -0.6741  0.1830 -0.0711
 7945TIP3    H148030   4.376   5.841   9.171 -1.1635 -0.1004 -2.1738
 7945TIP3    H248031   4.380   5.973   9.097  0.8851 -0.1319 -2.1592
 7946TIP3   OH248032   3.410   0.073   8.886  0.2062  0.6692  0.6051
 7946TIP3    H148033   3.497   0.086   8.925  1.0169 -0.6733 -0.6491
 7946TIP3    H248034   3.380  -0.010   8.923  1.4101 -1.1585 -2.1471
 7947TIP3   OH248035   3.230   6.908   1.947  0.1509 -0.0417  0.2467
 7947TIP3    H148036   3.195   6.998   1.948  0.4957  0.0915  0.4757
 7947TIP3    H248037   3.320   6.918   1.915 -0.2241 -0.4619 -1.0057
 7948TIP3   OH248038   0.346   5.726   0.498  0.2816  0.0747  0.0703
 7948TIP3    H148039   0.433   5.692   0.478 -0.4061 -1.2342 -0.8520
 7948TIP3    H248040   0.291   5.697   0.426 -1.1972 -0.2783  1.2753
 7949TIP3   OH248041   4.989   7.287   9.914 -0.4023  0.0821 -0.0772
 7949TIP3    H148042   4.931   7.356   9.945 -0.3643  0.1315 -0.1169
 7949TIP3    H248043   4.988   7.295   9.819  0.0740  0.4107 -0.0587
 7950TIP3   OH248044   1.594   6.264   9.177  0.3115  0.1210 -0.0181
 7950TIP3    H148045   1.684   6.242   9.202  0.1984 -0.1704  0.1376
 7950TIP3    H248046   1.564   6.322   9.247  0.3411  0.1277 -0.0106
 7951TIP3   OH248047   6.016   0.294   6.951 -0.0370 -0.5101 -0.1749
 7951TIP3    H148048   6.054   0.380   6.968  0.3049 -0.9119  1.1583
 7951TIP3    H248049   6.045   0.273   6.862  0.2393  0.5550 -0.3525
 7952TIP3   OH248050   5.063   2.955   8.494 -0.0828 -0.6485  0.3197
 7952TIP3    H148051   5.047   2.861   8.487 -0.7645 -0.4311 -1.6392
 7952TIP3    H248052   5.131   2.963   8.561 -1.5604 -2.3403  2.1439
 7953TIP3   OH248053   1.467   3.326   1.354 -0.0499  0.0563 -0.5339
 7953TIP3    H148054   1.499   3.398   1.298  0.4884 -0.2394 -0.6089
 7953TIP3    H248055   1.502   3.346   1.441 -1.4014  0.8556 -0.1304
 7954TIP3   OH248056   2.158   2.156   0.139 -0.2391 -0.1402  0.1000
 7954TIP3    H148057   2.172   2.199   0.055  1.4563 -0.5194  0.1464
 7954TIP3    H248058   2.168   2.226   0.204  0.5986 -0.2423  0.0844
 7955TIP3   OH248059   5.317   2.630   7.159  0.1528  0.4032 -0.1566
 7955TIP3    H148060   5.306   2.553   7.214  0.0863 -0.2706 -1.0926
 7955TIP3    H248061   5.340   2.700   7.220 -0.0428 -0.2924  0.7348
 7956TIP3   OH248062   2.358   0.644   9.648 -0.3951  0.3588  0.4384
 7956TIP3    H148063   2.450   0.664   9.630 -0.8467  2.0183 -0.2190
 7956TIP3    H248064   2.322   0.617   9.564 -0.3679 -1.0340  0.8436
 7957TIP3   OH248065   0.546   0.562   9.606  1.2034 -0.1338 -0.0379
 7957TIP3    H148066   0.548   0.468   9.626 -0.5682 -0.2315 -0.1980
 7957TIP3    H248067   0.507   0.602   9.683  1.5916  0.4391 -0.1316
 7958TIP3   OH248068   1.784   3.022   7.502  0.3501 -0.5956 -0.4611
 7958TIP3    H148069   1.805   3.104   7.547  1.3177 -1.1381  0.1304
 7958TIP3    H248070   1.847   3.018   7.430  0.8575 -1.1901 -0.0002
 7959TIP3   OH248071   5.471   1.837   1.475  0.1164 -0.1903 -0.2841
 7959TIP3    H148072   5.514   1.866   1.394 -0.2887 -2.1377 -1.2684
 7959TIP3    H248073   5.453   1.744   1.460  0.9406 -0.8819  2.4689
 7960TIP3   OH248074   1.771   6.482   7.965 -0.5304  0.2264  0.0068
 7960TIP3    H148075   1.753   6.459   7.874 -0.6614 -2.9409  0.7423
 7960TIP3    H248076   1.696   6.535   7.991 -0.5261  1.1404 -1.6614
 7961TIP3   OH248077   2.294   3.078   8.101 -0.4713 -0.0027 -0.5475
 7961TIP3    H148078   2.371   3.022   8.097 -0.4367 -0.4462  3.0642
 7961TIP3    H248079   2.328   3.167   8.088  0.8632 -0.1133  1.7609
 7962TIP3   OH248080   2.323   5.137   7.436  0.0238  0.0149 -0.3434
 7962TIP3    H148081   2.263   5.097   7.373  0.6715  0.0706 -1.0065
 7962TIP3    H248082   2.327   5.075   7.509 -1.6231  0.4773  0.1825
 7963TIP3   OH248083   6.215   4.114   8.720  0.0172  0.2250 -0.1754
 7963TIP3    H148084   6.304   4.106   8.753 -0.0669  0.3376  0.0808
 7963TIP3    H248085   6.207   4.205   8.693 -0.3850  0.5129  0.8704
 7964TIP3   OH248086   2.523   2.929   8.099 -0.4380 -0.5296  0.1582
 7964TIP3    H148087   2.573   2.887   8.029 -0.7877 -1.5775  0.5242
 7964TIP3    H248088   2.476   2.858   8.142 -1.0226  0.2312  0.8220
 7965TIP3   OH248089   4.220   1.289   1.780  0.3659 -0.4126  0.0137
 7965TIP3    H148090   4.255   1.214   1.731 -0.3422  0.0023 -1.1607
 7965TIP3    H248091   4.199   1.354   1.712 -1.2873 -0.0815  0.8052
 7966TIP3   OH248092   3.702   5.570   8.385  0.2719 -0.5454 -0.8822
 7966TIP3    H148093   3.674   5.638   8.446  1.4819 -0.4523 -0.3875
 7966TIP3    H248094   3.621   5.537   8.347 -0.3982  0.5758 -0.4952
 7967TIP3   OH248095   3.269   3.572   9.453  0.3628  0.6935 -0.1040
 7967TIP3    H148096   3.237   3.655   9.417 -2.2635  0.1501  0.7075
 7967TIP3    H248097   3.211   3.556   9.528  2.3489 -0.7212  1.2112
 7968TIP3   OH248098   2.607   0.576   2.205  0.1007 -0.1986  0.3182
 7968TIP3    H148099   2.518   0.574   2.169 -0.0948  0.0634  0.7657
 7968TIP3    H248100   2.663   0.591   2.129 -0.3782  1.2726  0.2105
 7969TIP3   OH248101   3.474   6.049   1.093  0.2365  0.2980 -0.1394
 7969TIP3    H148102   3.503   5.993   1.021  1.1714  1.2204 -0.5030
 7969TIP3    H248103   3.438   5.988   1.158  0.8526 -0.6849 -0.6927
 7970TIP3   OH248104   3.561   1.155   8.078 -0.4016 -0.1409  0.1091
 7970TIP3    H148105   3.513   1.161   7.995  1.6179 -1.4199 -1.2617
 7970TIP3    H248106   3.583   1.246   8.100 -0.2565  0.1764 -1.2512
 7971TIP3   OH248107   2.737   3.855   1.638  0.7475  0.0948 -0.1230
 7971TIP3    H148108   2.765   3.866   1.547  2.4381  0.0024  0.3478
 7971TIP3    H248109   2.749   3.762   1.656 -1.2324 -0.2260 -0.2911
 7972TIP3   OH248110   7.239   6.374   0.257  0.0854  0.0691 -0.3819
 7972TIP3    H148111   7.202   6.413   0.177  0.3090 -0.1768 -0.6104
 7972TIP3    H248112   7.297   6.442   0.292 -1.3700  0.8712  0.5694
 7973TIP3   OH248113   5.738   7.142   7.623  0.1187 -0.1157  0.7073
 7973TIP3    H148114   5.681   7.180   7.557 -1.1752  0.0376  1.8546
 7973TIP3    H248115   5.692   7.158   7.706  0.4100 -2.5363  1.4160
 7974TIP3   OH248116   3.653   6.766   3.140 -0.6356  0.3486 -0.0252
 7974TIP3    H148117   3.615   6.682   3.117  0.1943 -0.5557  1.7216
 7974TIP3    H248118   3.579   6.821   3.165 -0.9725 -1.4421  3.5656
 7975TIP3   OH248119   5.411   0.045   2.385  0.3374  0.3972 -0.3284
 7975TIP3    H148120   5.360  -0.036   2.379  1.3174 -0.2646  0.0438
 7975TIP3    H248121   5.360   0.101   2.445  0.3375 -0.4809  0.5104
 7976TIP3   OH248122   3.704   5.291   8.823  0.5633 -0.1931  0.3011
 7976TIP3    H148123   3.678   5.207   8.860 -0.3103 -0.0697 -0.0075
 7976TIP3    H248124   3.639   5.353   8.855  2.2439  0.7681  2.0899
 7977TIP3   OH248125   7.656   0.239   9.505 -0.3184 -0.4430 -0.6694
 7977TIP3    H148126   7.675   0.162   9.559 -0.4841  0.0328  0.0838
 7977TIP3    H248127   7.704   0.310   9.547 -2.3847  0.4505  0.3142
 7978TIP3   OH248128   2.596   5.819   2.686 -0.0451 -0.5567  0.2561
 7978TIP3    H148129   2.502   5.806   2.687  0.0546 -1.5032 -0.7259
 7978TIP3    H248130   2.631   5.754   2.747  0.0564 -1.1807 -0.4488
 7979TIP3   OH248131   3.594   6.756   1.500  0.1860 -0.7169  0.0483
 7979TIP3    H148132   3.683   6.724   1.482  0.1147 -0.5142 -0.6804
 7979TIP3    H248133   3.538   6.702   1.444  0.1831  1.5855 -2.3196
 7980TIP3   OH248134   3.291   0.749   7.565 -0.2603  0.1464  0.3834
 7980TIP3    H148135   3.272   0.742   7.658  0.7188 -1.9776  0.4739
 7980TIP3    H248136   3.312   0.842   7.552  0.0734  0.3896  2.3523
 7981TIP3   OH248137   7.011   6.779   0.587 -0.2367  0.3250  0.0018
 7981TIP3    H148138   7.003   6.874   0.584 -1.8744  0.2707  1.4128
 7981TIP3    H248139   7.078   6.759   0.522 -2.2596  2.1696 -2.9065
 7982TIP3   OH248140   1.911   0.621   8.017  0.1910  0.0406  0.0003
 7982TIP3    H148141   1.879   0.582   7.936 -0.7320  1.5374 -0.4007
 7982TIP3    H248142   1.877   0.711   8.015  1.2122  0.4925  1.4432
 7983TIP3   OH248143   3.816   6.150   0.369  0.8370  0.1541  0.0847
 7983TIP3    H148144   3.874   6.124   0.298  0.4497  2.0070 -0.9728
 7983TIP3    H248145   3.825   6.245   0.374 -3.5031  0.8502 -1.4497
 7984TIP3   OH248146   1.232   4.148   0.070  0.4087 -0.0918 -0.4476
 7984TIP3    H148147   1.255   4.136  -0.023  2.9913  0.9903 -0.0299
 7984TIP3    H248148   1.199   4.238   0.075  0.5350 -0.0554 -0.2723
 7985TIP3   OH248149   0.566   2.833   9.108 -0.1241 -0.3353  0.7797
 7985TIP3    H148150   0.512   2.895   9.059  1.3103  1.5524  1.4707
 7985TIP3    H248151   0.639   2.812   9.049  0.1397 -0.2302  1.0631
 7986TIP3   OH248152   3.311   5.864   9.019  0.1832 -0.1327 -0.0689
 7986TIP3    H148153   3.380   5.814   8.974  0.5493 -1.3129  1.7156
 7986TIP3    H248154   3.343   5.954   9.020  0.9975 -0.4063 -0.5440
 7987TIP3   OH248155   6.350   7.654   8.105  0.4516 -0.2185 -0.5962
 7987TIP3    H148156   6.354   7.561   8.081 -0.6912 -0.2825 -0.5889
 7987TIP3    H248157   6.345   7.700   8.022  0.7938 -0.1746 -0.5932
 7988TIP3   OH248158   6.509   3.100   8.853  0.3317 -0.5858  0.1062
 7988TIP3    H148159   6.524   3.085   8.760  1.7868  0.6784  0.1004
 7988TIP3    H248160   6.576   3.048   8.897  1.1603  0.6010  0.3182
 7989TIP3   OH248161   4.494   0.985   0.910  0.0896 -0.3755 -0.3449
 7989TIP3    H148162   4.536   1.003   0.826  0.9649 -1.0220 -0.0644
 7989TIP3    H248163   4.567   0.973   0.971 -0.3739 -3.4938 -0.2465
 7990TIP3   OH248164   3.055   1.216   2.373 -0.4990 -0.0568 -0.4776
 7990TIP3    H148165   3.040   1.135   2.324 -0.5254 -0.6145  0.4299
 7990TIP3    H248166   3.132   1.197   2.427 -0.2462  0.6801 -0.5635
 7991TIP3   OH248167   3.929   2.674   9.693  0.3063  0.1583  0.0571
 7991TIP3    H148168   3.878   2.594   9.702  0.5183  0.1091  0.9261
 7991TIP3    H248169   4.014   2.653   9.730  0.9929  0.2267 -1.4275
 7992TIP3   OH248170   0.995   5.905   9.111  0.3833 -0.1837 -0.0663
 7992TIP3    H148171   1.088   5.898   9.132  0.0283  0.1957  1.8299
 7992TIP3    H248172   0.961   5.971   9.172 -0.8397  0.8886 -1.7818
 7993TIP3   OH248173   0.514   2.548   7.378 -0.2173  0.5565  0.1826
 7993TIP3    H148174   0.452   2.611   7.414  0.4715  0.2219  2.0676
 7993TIP3    H248175   0.549   2.502   7.454 -0.4201 -1.8733 -1.0877
 7994TIP3   OH248176   1.916   2.951   9.902  0.5044  0.1891  0.5751
 7994TIP3    H148177   1.952   2.864   9.885 -1.0336 -0.8135  2.0669
 7994TIP3    H248178   1.886   2.947   9.993  1.1803  2.5862  0.9726
 7995TIP3   OH248179   4.609   1.789   8.545  0.3827  0.1701 -0.2279
 7995TIP3    H148180   4.519   1.819   8.548  0.5463  0.6407  0.1852
 7995TIP3    H248181   4.632   1.789   8.452  0.4752  1.6473 -0.2232
 7996TIP3   OH248182   2.094   0.787   0.138  0.6082  0.5700  0.6525
 7996TIP3    H148183   2.169   0.741   0.101  1.4471  1.0269  1.7396
 7996TIP3    H248184   2.111   0.879   0.119 -0.0733  0.6193  0.2348
 7997TIP3   OH248185   2.920   7.487   7.700  0.2259 -0.5302 -0.4018
 7997TIP3    H148186   2.923   7.475   7.605  2.0228 -1.9492 -0.1977
 7997TIP3    H248187   2.894   7.579   7.711  2.9965  0.6345 -2.3507
 7998TIP3   OH248188   0.576   5.595   2.249 -0.4335  0.0493  0.1106
 7998TIP3    H148189   0.527   5.541   2.311  0.5007 -0.1958  0.6565
 7998TIP3    H248190   0.642   5.639   2.302  2.1924 -2.2402 -0.9900
 7999TIP3   OH248191   1.394   1.370   8.069 -0.3644 -0.7152  0.8372
 7999TIP3    H148192   1.361   1.355   7.980  0.4554 -0.8623  0.5469
 7999TIP3    H248193   1.356   1.453   8.095  0.0176 -0.2710  0.0300
 8000TIP3   OH248194   2.867   5.594   0.505 -0.5212 -0.0486  0.0045
 8000TIP3    H148195   2.956   5.628   0.504 -0.0976 -0.9611  1.8955
 8000TIP3    H248196   2.877   5.499   0.490 -1.3097  0.0136 -1.0537
 8001TIP3   OH248197   0.741   7.326   0.773  0.6416 -0.5992  1.4384
 8001TIP3    H148198   0.737   7.240   0.731  1.1174  0.7139 -1.5569
 8001TIP3    H248199   0.797   7.313   0.849  0.7493 -2.9066  1.0459
 8002TIP3   OH248200   2.635   2.995   0.012  0.0246  0.1179 -0.0316
 8002TIP3    H148201   2.608   2.929   0.076  0.0906 -0.2836 -0.4161
 8002TIP3    H248202   2.680   2.946  -0.056 -0.1621  0.5270 -0.4594
 8003TIP3   OH248203   6.041   6.342   1.752 -0.8312  0.1496  0.4017
 8003TIP3    H148204   6.083   6.363   1.836 -0.4516  1.5957 -0.1291
 8003TIP3    H248205   6.045   6.246   1.747 -0.2131  0.0893  1.7059
 8004TIP3   OH248206   0.081   0.609   7.685  0.2656 -0.2077  0.2833
 8004TIP3    H148207   0.022   0.665   7.735 -0.0041 -0.2972  0.0655
 8004TIP3    H248208   0.075   0.641   7.595  0.5325 -0.2303  0.2560
 8005TIP3   OH248209   2.013   1.010   1.163  0.1100  0.1687 -0.2475
 8005TIP3    H148210   1.966   1.045   1.239  1.5601  0.4334  0.5530
 8005TIP3    H248211   2.036   1.088   1.111  0.7667  0.1534  0.0174
 8006TIP3   OH248212   2.654   2.976   1.113 -0.2065 -0.3124  0.1055
 8006TIP3    H148213   2.712   2.949   1.184 -0.2913  0.6187  0.5495
 8006TIP3    H248214   2.647   2.899   1.057 -1.8975 -1.8423  2.2382
 8007TIP3   OH248215   7.468   5.189   0.845  0.6234 -0.4062  0.2998
 8007TIP3    H148216   7.493   5.162   0.933  0.7184 -2.7037 -0.3755
 8007TIP3    H248217   7.378   5.158   0.836  1.0160 -1.3032 -0.8007
 8008TIP3   OH248218   0.572   3.736   0.076 -0.0959  0.8114  0.2315
 8008TIP3    H148219   0.571   3.641   0.078  0.4117  0.7958  2.0640
 8008TIP3    H248220   0.546   3.762   0.164  0.7375  2.3439  0.0706
 8009TIP3   OH248221   7.141   7.073   1.171 -0.3869  0.0078  0.2385
 8009TIP3    H148222   7.227   7.077   1.212 -0.0526 -0.9281 -0.3533
 8009TIP3    H248223   7.158   7.080   1.077 -1.0795  1.2012  0.1710
 8010TIP3   OH248224   2.178   4.821   0.928 -0.2638  0.0561  0.0983
 8010TIP3    H148225   2.114   4.815   0.857  0.1897 -0.5189 -0.2734
 8010TIP3    H248226   2.201   4.914   0.931  0.4421 -0.0560 -1.1806
 8011TIP3   OH248227   1.369   5.081   1.239  0.7740 -0.0580  0.4887
 8011TIP3    H148228   1.332   5.109   1.155  0.7983 -1.9946 -0.2174
 8011TIP3    H248229   1.300   5.101   1.303  0.0916 -0.0262 -0.2303
 8012TIP3   OH248230   7.481   7.314   2.107 -0.1618  0.4479  0.3670
 8012TIP3    H148231   7.524   7.323   2.193  1.8678 -0.5347 -0.4649
 8012TIP3    H248232   7.388   7.322   2.126  0.2603  0.8826  2.5778
 8013TIP3   OH248233   2.640   5.777   1.894 -0.0624  0.3085  0.0205
 8013TIP3    H148234   2.630   5.865   1.929  0.8548  0.5852 -0.3786
 8013TIP3    H248235   2.568   5.727   1.933  0.9951  0.5390  2.4690
 8014TIP3   OH248236   3.028   4.162   1.003 -0.0690 -0.0388 -0.2805
 8014TIP3    H148237   3.065   4.082   1.040  0.4848  0.1893 -0.3348
 8014TIP3    H248238   2.958   4.132   0.945 -0.2950 -0.4487  0.1957
 8015TIP3   OH248239   5.635   0.295   1.107  0.5729  0.9785  0.5075
 8015TIP3    H148240   5.611   0.221   1.051  0.6877  0.9359  0.5144
 8015TIP3    H248241   5.570   0.294   1.177 -0.1650  1.6221 -0.1469
 8016TIP3   OH248242   3.311   1.683   8.402 -0.0666  0.4146 -0.1714
 8016TIP3    H148243   3.233   1.631   8.381  0.2057 -0.0722  0.0014
 8016TIP3    H248244   3.328   1.735   8.323  0.2689 -0.5295 -0.7344
 8017TIP3   OH248245   2.624   1.278   9.544 -0.2728 -0.1093  0.3511
 8017TIP3    H148246   2.647   1.249   9.456  0.7765 -0.4347  0.7097
 8017TIP3    H248247   2.692   1.241   9.600 -0.8902  0.1358  1.2963
 8018TIP3   OH248248   0.670   1.212   9.437  0.7010 -0.7302  0.4845
 8018TIP3    H148249   0.627   1.223   9.352 -1.6771 -0.3671  1.6510
 8018TIP3    H248250   0.642   1.125   9.467  0.6866 -0.4411  1.3290
 8019TIP3   OH248251   5.290   3.074   7.740  0.1368  0.1193  0.2549
 8019TIP3    H148252   5.300   3.015   7.665 -1.7615 -1.7861  1.3855
 8019TIP3    H248253   5.196   3.073   7.759  0.3818  1.6718  1.8140
 8020TIP3   OH248254   6.252   4.768   9.151  0.3367  0.2696  0.1433
 8020TIP3    H148255   6.325   4.737   9.097  0.2673  2.1369 -1.0915
 8020TIP3    H248256   6.233   4.694   9.209  2.0925 -0.8748 -0.6464
 8021TIP3   OH248257   3.354   6.180   9.193 -0.0645 -0.0360 -0.3495
 8021TIP3    H148258   3.307   6.227   9.262  0.2973  0.4672 -0.4441
 8021TIP3    H248259   3.423   6.132   9.239  0.1013  0.2042 -0.3470
 8022TIP3   OH248260   6.416   0.439   8.828 -0.3254  0.2598 -0.5482
 8022TIP3    H148261   6.402   0.359   8.879  0.8148  0.2227 -0.2645
 8022TIP3    H248262   6.364   0.427   8.749 -0.4541 -0.6071 -0.3346
 8023TIP3   OH248263   3.969   6.432   7.208 -0.1780  0.3546  0.1052
 8023TIP3    H148264   3.990   6.345   7.242  2.0076 -0.0009 -1.8555
 8023TIP3    H248265   3.997   6.492   7.277  0.4851 -0.4293  0.5357
 8024TIP3   OH248266   1.408   4.091   2.227 -0.7066 -0.2849  0.7964
 8024TIP3    H148267   1.313   4.091   2.225 -0.7238 -0.0983  1.3200
 8024TIP3    H248268   1.435   4.110   2.137 -1.1797  0.6987  0.8474
 8025TIP3   OH248269   0.556   3.749   8.079 -0.4259  0.7732 -0.3425
 8025TIP3    H148270   0.543   3.836   8.041 -1.6010  1.5150  1.6168
 8025TIP3    H248271   0.493   3.745   8.151  1.2437 -0.7967  1.1150
 8026TIP3   OH248272   2.193   0.850   7.748 -0.3610 -0.3546  0.1335
 8026TIP3    H148273   2.282   0.814   7.738 -0.0087  0.3500  0.7133
 8026TIP3    H248274   2.205   0.932   7.795 -1.3164 -0.1928  0.1098
 8027TIP3   OH248275   6.202   3.640   8.704 -0.2144 -0.2377 -0.0912
 8027TIP3    H148276   6.113   3.671   8.689 -0.1328  0.0049 -0.0905
 8027TIP3    H248277   6.249   3.663   8.624 -0.7816 -2.8480 -1.2593
 8028TIP3   OH248278   0.068   5.067   8.528 -0.0572  0.0449  0.4202
 8028TIP3    H148279   0.022   5.127   8.587  0.6129  0.9009  0.1034
 8028TIP3    H248280   0.042   5.096   8.441  0.1194 -0.2555  0.2682
 8029TIP3   OH248281   2.218   6.554   1.673 -0.3621  0.8430 -0.2928
 8029TIP3    H148282   2.139   6.526   1.626 -0.3410 -0.2543  0.3060
 8029TIP3    H248283   2.275   6.477   1.672  0.4878  1.4565 -0.2447
 8030TIP3   OH248284   2.356   5.320   0.626  0.4908 -0.1736 -0.2618
 8030TIP3    H148285   2.298   5.312   0.551 -1.2550  2.4083  0.6709
 8030TIP3    H248286   2.439   5.350   0.589  0.1865 -0.5733 -1.2983
 8031TIP3   OH248287   6.348   2.800   9.069 -0.1390 -0.2695 -0.5335
 8031TIP3    H148288   6.399   2.748   9.006 -0.7076 -1.1155 -0.3196
 8031TIP3    H248289   6.281   2.740   9.100  0.4948 -0.0666  1.3586
 8032TIP3   OH248290   0.645   3.499   9.926 -0.2028  0.0924 -0.5154
 8032TIP3    H148291   0.711   3.500   9.858 -1.1686  2.0970 -1.5445
 8032TIP3    H248292   0.574   3.446   9.891 -0.9914  1.6898 -1.4590
 8033TIP3   OH248293   2.840   1.076   8.532  0.1773  0.2691 -0.0405
 8033TIP3    H148294   2.806   1.017   8.600  2.3748 -0.3943  0.5456
 8033TIP3    H248295   2.869   1.153   8.580  2.5021 -0.5324 -0.0398
 8034TIP3   OH248296   0.441   2.901   2.620 -0.1397 -0.4888  0.4391
 8034TIP3    H148297   0.483   2.964   2.561  0.6870 -1.0773  0.3715
 8034TIP3    H248298   0.514   2.849   2.655 -0.6183 -0.1527  1.9961
 8035TIP3   OH248299   7.547   3.767   9.225  0.0449  0.1475 -0.3820
 8035TIP3    H148300   7.596   3.784   9.304  1.9794 -2.8629 -0.7660
 8035TIP3    H248301   7.456   3.760   9.254  0.4473  1.0316  1.1921
 8036TIP3   OH248302   1.066   5.168   9.732  0.6731  0.5082 -0.1692
 8036TIP3    H148303   1.013   5.090   9.718  1.5355  0.0970 -1.4007
 8036TIP3    H248304   1.099   5.160   9.821  1.5221 -1.0649 -0.5745
 8037TIP3   OH248305   7.485   1.566   1.313 -0.1246 -0.4411 -0.0695
 8037TIP3    H148306   7.490   1.596   1.404 -0.9959 -0.8423  0.1220
 8037TIP3    H248307   7.466   1.645   1.263  0.3438 -0.2198  0.0950
 8038TIP3   OH248308   5.871   5.983   9.127 -0.3292 -0.3795 -0.6984
 8038TIP3    H148309   5.941   6.040   9.095  0.1943  0.4839  1.7517
 8038TIP3    H248310   5.822   5.959   9.048  0.9204  1.4461 -2.1267
 8039TIP3   OH248311   3.426   1.828   8.170 -0.1860 -0.1038  0.5496
 8039TIP3    H148312   3.418   1.889   8.244  1.2124  1.8697 -0.8151
 8039TIP3    H248313   3.374   1.869   8.101  0.9542 -0.3326 -0.4684
 8040TIP3   OH248314   3.368   0.770   1.373 -0.0278  0.0701  0.0805
 8040TIP3    H148315   3.433   0.802   1.435 -0.0675  0.2185  0.0466
 8040TIP3    H248316   3.368   0.835   1.303  1.5555 -1.1563 -1.1462
 8041TIP3   OH248317   2.905   4.955   7.034  0.0340  0.4884  0.3114
 8041TIP3    H148318   2.976   5.014   7.009  0.1694  0.7404  1.2830
 8041TIP3    H248319   2.854   5.004   7.099 -1.3322  0.5190 -0.7204
 8042TIP3   OH248320   6.246   6.922   0.770  0.3580  0.4181 -0.0422
 8042TIP3    H148321   6.312   6.905   0.703 -0.3492 -0.8769 -0.4334
 8042TIP3    H248322   6.184   6.981   0.727 -2.6827 -3.9343 -2.3852
 8043TIP3   OH248323   7.054   3.385   1.987  0.3739  0.1843  0.2693
 8043TIP3    H148324   7.009   3.462   2.021 -0.5742 -0.4097  0.4022
 8043TIP3    H248325   7.089   3.341   2.065  0.3035  0.1084  0.2584
 8044TIP3   OH248326   2.443   3.087   1.269  0.4458 -0.5429 -0.0186
 8044TIP3    H148327   2.495   3.048   1.199 -0.4166  0.4071 -1.2379
 8044TIP3    H248328   2.367   3.029   1.277  1.8789 -2.2879  2.1949
 8045TIP3   OH248329   6.938   4.598   6.547  0.3357 -0.0745 -0.2380
 8045TIP3    H148330   6.899   4.686   6.552  1.0332  0.2003  0.7270
 8045TIP3    H248331   6.925   4.572   6.456 -3.5476 -0.7226  0.3321
 8046TIP3   OH248332   3.295   2.204   1.660  0.6093 -0.0108  0.1541
 8046TIP3    H148333   3.299   2.284   1.713  1.6634 -0.1071  0.2295
 8046TIP3    H248334   3.214   2.162   1.688 -0.0608  1.1188 -0.0228
 8047TIP3   OH248335   6.231   0.780   9.898 -0.7882 -0.1837  0.3040
 8047TIP3    H148336   6.263   0.859   9.941 -1.4929 -0.4624  1.3851
 8047TIP3    H248337   6.310   0.732   9.873 -0.3415  1.2387 -1.1404
 8048TIP3   OH248338   0.771   3.205   7.132  0.1876 -0.6185  0.0684
 8048TIP3    H148339   0.706   3.236   7.068  1.1933 -0.0172 -0.6773
 8048TIP3    H248340   0.820   3.138   7.085  1.1883  0.1018  0.0677
 8049TIP3   OH248341   4.135   7.039   2.224  0.7606 -0.0879 -0.6255
 8049TIP3    H148342   4.214   7.089   2.202 -0.0643  0.8241 -1.5732
 8049TIP3    H248343   4.168   6.965   2.275  1.9090  2.0453  1.9724
 8050TIP3   OH248344   5.901   1.283   9.206  0.5291 -0.3658 -0.1358
 8050TIP3    H148345   5.953   1.203   9.210  1.2331  0.0655 -0.5114
 8050TIP3    H248346   5.958   1.350   9.243  0.1380  0.0639 -0.3128
 8051TIP3   OH248347   4.065   5.069   7.270  0.3580  0.0177  0.1005
 8051TIP3    H148348   4.108   5.003   7.215  0.9754  1.2435 -0.9447
 8051TIP3    H248349   4.013   5.018   7.333  0.1687 -1.4424 -1.1832
 8052TIP3   OH248350   6.234   0.342   7.979 -0.0818 -0.0178 -0.4229
 8052TIP3    H148351   6.206   0.405   7.911 -2.7138 -0.4497  0.1563
 8052TIP3    H248352   6.325   0.365   7.996 -0.8078  3.4584 -0.4829
 8053TIP3   OH248353   5.304   0.326   7.683 -0.0445 -0.7244 -0.1059
 8053TIP3    H148354   5.256   0.329   7.600  0.6782 -1.0958 -0.5496
 8053TIP3    H248355   5.318   0.418   7.706  0.1742 -0.6141 -0.6563
 8054TIP3   OH248356   1.857   4.979   1.120 -0.2400 -0.1158  0.3925
 8054TIP3    H148357   1.765   4.963   1.141 -0.2078  0.7789  1.2771
 8054TIP3    H248358   1.856   5.008   1.029 -0.5045 -2.9046 -0.6025
 8055TIP3   OH248359   2.824   6.889   8.304  0.9549 -0.2314 -0.5406
 8055TIP3    H148360   2.807   6.845   8.387 -1.5265  1.9616  0.2672
 8055TIP3    H248361   2.905   6.939   8.320 -1.1365  2.7516  1.9015
 8056TIP3   OH248362   4.155   5.514   9.234  0.0675 -0.1870 -0.9054
 8056TIP3    H148363   4.202   5.449   9.286  0.4986 -0.1268 -1.2126
 8056TIP3    H248364   4.174   5.489   9.143 -0.5680 -0.2131 -1.0322
 8057TIP3   OH248365   0.466   3.797   0.654  0.9855  0.4390  0.0658
 8057TIP3    H148366   0.382   3.751   0.654  1.4375 -0.6123 -2.9921
 8057TIP3    H248367   0.448   3.879   0.609  1.7399 -0.2914 -1.6692
 8058TIP3   OH248368   6.215   4.908   7.030  0.4034  0.0235 -0.3304
 8058TIP3    H148369   6.140   4.912   7.088  0.7347  0.1491  0.0919
 8058TIP3    H248370   6.202   4.827   6.979  0.6975 -0.7106  0.7309
 8059TIP3   OH248371   2.425   4.323   7.721  0.4057  0.3253 -0.1699
 8059TIP3    H148372   2.445   4.319   7.814  1.2806 -0.2844 -0.3751
 8059TIP3    H248373   2.507   4.351   7.680  0.2116 -0.0359 -0.8218
 8060TIP3   OH248374   2.636   0.307   9.959 -0.4951  0.0464  0.0934
 8060TIP3    H148375   2.677   0.304  10.045 -2.4799  0.1762  1.0903
 8060TIP3    H248376   2.585   0.225   9.954  0.6702 -0.6354 -1.5501
 8061TIP3   OH248377   4.385   7.161   9.526 -0.1356  0.1447 -1.2230
 8061TIP3    H148378   4.362   7.195   9.612  3.9150 -0.2448  0.2327
 8061TIP3    H248379   4.329   7.085   9.514 -0.5084 -0.0608  1.3166
 8062TIP3   OH248380   7.637   1.377   8.272 -0.0459 -0.4461  0.0138
 8062TIP3    H148381   7.561   1.401   8.326  2.3256  0.1879  3.4388
 8062TIP3    H248382   7.691   1.456   8.271  0.7995 -0.9774 -2.0407
 8063TIP3   OH248383   3.175   2.118   7.419  0.3796 -0.0942  0.5617
 8063TIP3    H148384   3.154   2.133   7.327 -0.3308 -1.1779  0.5322
 8063TIP3    H248385   3.245   2.052   7.416 -0.2926 -0.8231  0.8175
 8064TIP3   OH248386   5.319   0.328   7.356 -0.1077  0.1315 -0.1373
 8064TIP3    H148387   5.242   0.304   7.408  0.5068  1.5470  1.5611
 8064TIP3    H248388   5.324   0.424   7.364  0.6897  0.2670 -1.8985
 8065TIP3   OH248389   2.008   7.441   0.661  0.0068 -0.2490  1.1024
 8065TIP3    H148390   1.930   7.385   0.664  0.8904 -1.6036  0.0282
 8065TIP3    H248391   2.066   7.404   0.727  1.1798 -1.5964 -0.5883
 8066TIP3   OH248392   7.127   6.007   6.643 -0.3303  0.2786  0.1048
 8066TIP3    H148393   7.167   6.065   6.708  0.7172 -0.4237  0.1028
 8066TIP3    H248394   7.143   6.052   6.559  0.0226  0.2451  0.1515
 8067TIP3   OH248395   2.040   1.091   1.857 -0.2939  0.2473  0.1594
 8067TIP3    H148396   2.066   1.145   1.782  0.2533  0.3394  0.4065
 8067TIP3    H248397   2.104   1.112   1.925 -0.8131  0.2048  0.6740
 8068TIP3   OH248398   7.011   3.508   8.473  0.5185 -0.0062  0.6868
 8068TIP3    H148399   6.996   3.437   8.411  2.1348 -1.6692  2.0912
 8068TIP3    H248400   6.954   3.488   8.547  1.3199 -0.1327  1.2877
 8069TIP3   OH248401   3.425   6.158   1.787  0.0246  0.0612  0.5250
 8069TIP3    H148402   3.364   6.093   1.823 -0.9048 -0.7394 -2.2226
 8069TIP3    H248403   3.506   6.110   1.772  0.5529  0.5014  1.8920
 8070TIP3   OH248404   2.452   5.761   0.576  0.3829  0.5556  0.3027
 8070TIP3    H148405   2.503   5.680   0.583 -0.6587 -0.0628  0.8267
 8070TIP3    H248406   2.463   5.804   0.661  2.6641  2.0565 -0.6489
 8071TIP3   OH248407   5.437   5.432   8.060  0.3798 -0.3059 -0.2101
 8071TIP3    H148408   5.438   5.397   7.972 -0.7842 -1.0569  0.0565
 8071TIP3    H248409   5.344   5.442   8.081  0.6279  2.3021 -0.0066
 8072TIP3   OH248410   6.312   2.600   7.521 -0.1570  0.7119  0.4302
 8072TIP3    H148411   6.338   2.512   7.547 -0.1077  0.7710  0.5811
 8072TIP3    H248412   6.313   2.598   7.426 -0.8911  0.3260  0.4190
 8073TIP3   OH248413   3.735   4.359   0.102  0.3556  0.0219 -0.2989
 8073TIP3    H148414   3.811   4.347   0.159 -0.4322 -1.8023  0.4587
 8073TIP3    H248415   3.771   4.380   0.016  1.6998 -0.6692  0.0805
 8074TIP3   OH248416   6.449   7.567   9.478  0.4822 -0.5666 -0.1045
 8074TIP3    H148417   6.407   7.490   9.439 -0.2422 -0.3208  0.1795
 8074TIP3    H248418   6.426   7.639   9.420 -1.5552  0.0145  1.3230
 8075TIP3   OH248419   0.202   2.519   1.716 -0.3004 -0.0886  0.6409
 8075TIP3    H148420   0.181   2.560   1.799 -1.4345 -0.5651  0.5970
 8075TIP3    H248421   0.206   2.425   1.735  0.0921 -0.1481  0.2908
 8076TIP3   OH248422   6.529   6.127   2.243 -0.0439 -0.1273  0.1142
 8076TIP3    H148423   6.620   6.153   2.256  0.2147 -1.0567  0.2098
 8076TIP3    H248424   6.478   6.192   2.292  0.5401  0.5492 -0.1504
 8077TIP3   OH248425   1.321   1.897   9.407  0.0147 -0.1859 -0.0010
 8077TIP3    H148426   1.396   1.928   9.356 -0.2137  1.4962  0.6201
 8077TIP3    H248427   1.247   1.951   9.377 -0.9233 -1.6611 -0.4473
 8078TIP3   OH248428   5.702   6.521   6.622  0.0005  0.2526 -0.4676
 8078TIP3    H148429   5.715   6.604   6.668 -0.2488 -0.2569  0.5465
 8078TIP3    H248430   5.690   6.456   6.691  2.0817 -0.9841 -1.1758
 8079TIP3   OH248431   5.830   0.904   9.167 -0.4452  0.4860 -0.1588
 8079TIP3    H148432   5.909   0.956   9.150  0.2420  0.1625  1.7447
 8079TIP3    H248433   5.787   0.949   9.240 -0.8257 -0.5785  0.2905
 8080TIP3   OH248434   0.437   6.446   7.995 -0.3938  0.3034  0.2328
 8080TIP3    H148435   0.407   6.499   7.920 -0.1876 -0.7601 -0.6212
 8080TIP3    H248436   0.506   6.498   8.035  1.4223 -0.2669 -1.9691
 8081TIP3   OH248437   3.725   5.094   9.248 -0.7896 -0.0289  0.6185
 8081TIP3    H148438   3.700   5.025   9.186  1.2681  1.2437 -1.7938
 8081TIP3    H248439   3.756   5.045   9.325 -0.2322 -1.8106 -0.6564
 8082TIP3   OH248440   2.274   4.357   8.398  0.1093 -0.2515 -0.0741
 8082TIP3    H148441   2.310   4.277   8.437 -0.9391 -1.5420 -1.6161
 8082TIP3    H248442   2.188   4.331   8.364 -0.9976  1.9709  0.8290
 8083TIP3   OH248443   4.655   2.823   0.593  0.5686  0.2108 -0.5282
 8083TIP3    H148444   4.617   2.822   0.681  0.8249 -0.1948 -0.4207
 8083TIP3    H248445   4.580   2.824   0.534  0.2784 -2.7899 -0.3765
 8084TIP3   OH248446   4.962   5.548   7.819 -0.3152  0.2451 -0.0626
 8084TIP3    H148447   4.973   5.454   7.805 -0.5882  0.2773 -0.4998
 8084TIP3    H248448   4.951   5.557   7.914 -1.3115 -0.2688 -0.1215
 8085TIP3   OH248449   2.218   3.280   9.772  0.2134 -0.1297 -0.0237
 8085TIP3    H148450   2.123   3.288   9.760 -0.0422 -0.7038  1.4797
 8085TIP3    H248451   2.237   3.187   9.757  0.3259 -0.2758  0.9453
 8086TIP3   OH248452   5.978   7.657   7.625  0.4244  0.1712  0.4382
 8086TIP3    H148453   5.974   7.562   7.613  0.5680  0.0138  1.5020
 8086TIP3    H248454   5.927   7.673   7.705 -0.1781  1.0757 -0.1071
 8087TIP3   OH248455   3.201   0.894   7.186  0.2840 -0.3736 -0.2316
 8087TIP3    H148456   3.116   0.851   7.177  0.1849 -0.2880  0.2921
 8087TIP3    H248457   3.258   0.847   7.124  0.0049 -0.8073 -0.1652
 8088TIP3   OH248458   2.241   5.228   2.877 -0.3928 -0.1409  0.1724
 8088TIP3    H148459   2.225   5.136   2.856  0.0247 -0.0241 -0.6686
 8088TIP3    H248460   2.266   5.227   2.970  2.9050 -1.3013 -0.5777
 8089TIP3   OH248461   6.718   0.248   1.991  0.4151  0.0881  0.2012
 8089TIP3    H148462   6.795   0.195   1.973 -1.5566 -2.2917 -1.9276
 8089TIP3    H248463   6.660   0.191   2.041 -0.2718  1.6250  1.2548
 8090TIP3   OH248464   2.804   2.083   9.918  0.6732 -0.1506 -0.0320
 8090TIP3    H148465   2.893   2.068   9.949  0.3880 -0.0346  0.8918
 8090TIP3    H248466   2.790   2.018   9.850  1.1133 -0.8542  0.5350
 8091TIP3   OH248467   2.440   1.963   0.270  0.1121 -0.0348  0.0406
 8091TIP3    H148468   2.363   1.944   0.217  0.7457 -0.9006 -0.5919
 8091TIP3    H248469   2.468   1.878   0.304  0.7383  0.2805  0.3403
 8092TIP3   OH248470   0.299   0.219   1.601 -0.3492 -0.0127 -0.1258
 8092TIP3    H148471   0.292   0.312   1.621 -1.0551  0.3448 -1.7906
 8092TIP3    H248472   0.366   0.214   1.533 -0.5176 -0.6819 -0.2532
 8093TIP3   OH248473   6.520   3.801   0.243 -0.2340 -0.4612  0.3775
 8093TIP3    H148474   6.614   3.816   0.256  0.0254 -0.3563 -1.4278
 8093TIP3    H248475   6.479   3.840   0.321  1.0679  1.3331  0.2266
 8094TIP3   OH248476   4.310   6.211   0.159  0.1138 -0.3825 -0.0850
 8094TIP3    H148477   4.360   6.287   0.188 -2.9557  1.2891  1.2864
 8094TIP3    H248478   4.310   6.218   0.063 -0.5300  1.7050  0.0210
 8095TIP3   OH248479   1.193   4.131   1.945 -0.5139 -0.3873 -0.0846
 8095TIP3    H148480   1.159   4.099   2.029 -2.4882  1.7606  0.0447
 8095TIP3    H248481   1.288   4.127   1.955 -0.6890 -0.1264  2.3176
 8096TIP3   OH248482   5.309   3.694   8.181  0.5834  0.1348  0.0311
 8096TIP3    H148483   5.269   3.726   8.100 -0.8512  1.0871  1.0749
 8096TIP3    H248484   5.333   3.773   8.229 -1.8730 -0.2486  2.1038
 8097TIP3   OH248485   5.728   5.701   7.970 -0.4588 -0.4563  0.6814
 8097TIP3    H148486   5.689   5.726   7.886  2.2664 -1.1881 -0.9300
 8097TIP3    H248487   5.761   5.784   8.007 -0.7727 -0.2659  0.5342
 8098TIP3   OH248488   6.300   5.763   7.389  0.2586  0.3555 -0.7308
 8098TIP3    H148489   6.261   5.760   7.301 -0.7235  0.7942 -0.3291
 8098TIP3    H248490   6.281   5.676   7.426 -0.2187  0.5122 -0.5955
 8099TIP3   OH248491   4.342   7.237   6.824  0.0123  0.4026 -0.1392
 8099TIP3    H148492   4.248   7.223   6.833 -0.4807  1.3911 -2.7896
 8099TIP3    H248493   4.379   7.149   6.821 -0.2718 -0.0957  4.2298
 8100TIP3   OH248494   7.676   3.826   9.469  0.0896  0.3399 -0.1380
 8100TIP3    H148495   7.756   3.864   9.505  0.5953  0.8316 -1.6993
 8100TIP3    H248496   7.609   3.845   9.534  1.3066 -0.5022  1.4345
 8101TIP3   OH248497   1.126   7.156   1.099  0.0685 -0.2025 -0.6036
 8101TIP3    H148498   1.168   7.239   1.122 -1.9321  1.0888 -1.3528
 8101TIP3    H248499   1.058   7.144   1.164  0.3602 -1.3082 -0.4818
 8102TIP3   OH248500   4.207   4.397   7.799 -0.6990 -0.7884 -0.2565
 8102TIP3    H148501   4.233   4.344   7.724  0.3868  0.2244 -0.6285
 8102TIP3    H248502   4.289   4.415   7.846 -0.9415  1.0007 -0.4568
 8103TIP3   OH248503   5.380   0.675   8.226  0.2051 -0.3503 -0.1732
 8103TIP3    H148504   5.358   0.707   8.138 -1.6000 -0.9501  0.0200
 8103TIP3    H248505   5.295   0.657   8.267  1.0233 -0.3011  1.6226
 8104TIP3   OH248506   1.089   6.839   0.035  0.1667 -0.5667 -0.4512
 8104TIP3    H148507   1.076   6.814  -0.057  0.1664 -1.5822 -0.1857
 8104TIP3    H248508   1.158   6.905   0.032 -1.2426  0.9410 -1.3749
 8105TIP3   OH248509   3.946   7.133   7.433  0.0655 -0.1985 -0.1269
 8105TIP3    H148510   3.973   7.175   7.514 -2.0203  0.2215  0.4141
 8105TIP3    H248511   4.028   7.109   7.390  1.2454 -1.0588  2.3943
 8106TIP3   OH248512   0.259   0.707   0.115  0.5511 -0.2882 -0.4700
 8106TIP3    H148513   0.262   0.799   0.088 -1.5342  0.5893  1.9507
 8106TIP3    H248514   0.318   0.703   0.190 -0.1161 -0.7087  0.0301
 8107TIP3   OH248515   2.591   1.330   1.220  0.8076  0.0593  0.0308
 8107TIP3    H148516   2.616   1.358   1.132 -1.0943 -0.5250 -0.7433
 8107TIP3    H248517   2.654   1.262   1.243 -0.4346 -1.9699 -2.1785
 8108TIP3   OH248518   6.839   1.534   0.264 -0.3813 -0.0581  0.1386
 8108TIP3    H148519   6.876   1.496   0.344  1.8700  0.6119 -0.5078
 8108TIP3    H248520   6.830   1.627   0.283 -2.2475 -0.2675  0.4259
 8109TIP3   OH248521   0.703   0.479   1.347  0.0598 -0.1413 -0.5666
 8109TIP3    H148522   0.625   0.529   1.373  0.7128  0.3507  0.5158
 8109TIP3    H248523   0.774   0.543   1.351  0.9343 -1.1526  0.9092
 8110TIP3   OH248524   6.709   1.003   1.648 -0.2684  0.1073 -0.1046
 8110TIP3    H148525   6.617   1.026   1.659 -0.5411 -1.4781  1.3464
 8110TIP3    H248526   6.707   0.922   1.598  0.3221 -0.1174  0.2321
 8111TIP3   OH248527   0.901   6.519   1.497 -0.5825  0.0387 -0.5740
 8111TIP3    H148528   0.900   6.587   1.564  2.2339 -1.3402  1.0477
 8111TIP3    H248529   0.877   6.439   1.544  0.1165 -0.7369 -1.5047
 8112TIP3   OH248530   4.365   7.010   9.221  0.1942  0.0630 -0.1298
 8112TIP3    H148531   4.436   6.968   9.271  0.7000 -1.7819 -2.2157
 8112TIP3    H248532   4.405   7.088   9.183  1.2754 -1.1003 -1.5007
 8113TIP3   OH248533   3.701   2.061   9.141 -0.6066  0.0491 -0.2165
 8113TIP3    H148534   3.685   2.032   9.051  0.5912 -0.7417 -0.1952
 8113TIP3    H248535   3.649   2.000   9.195 -2.2665  1.2440 -0.3848
 8114TIP3   OH248536   5.090   7.270   8.160  0.3036 -0.2045 -0.0598
 8114TIP3    H148537   5.052   7.352   8.191  0.7147  0.6142 -1.6125
 8114TIP3    H248538   5.153   7.245   8.228  1.5005  1.7488 -0.3684
 8115TIP3   OH248539   4.856   1.031   7.874 -1.2698  0.8832  0.1351
 8115TIP3    H148540   4.912   0.993   7.806 -0.7552  1.9093 -0.0354
 8115TIP3    H248541   4.847   0.961   7.939 -2.1672 -0.2910 -1.1840
 8116TIP3   OH248542   0.160   3.498   9.064 -0.2053  1.1185  0.3350
 8116TIP3    H148543   0.213   3.441   9.007 -3.5958 -1.7141 -0.3122
 8116TIP3    H248544   0.132   3.569   9.007 -1.0695 -0.0566 -0.7604
 8117TIP3   OH248545   6.078   5.557   9.339  0.0610 -0.0627  0.1668
 8117TIP3    H148546   6.034   5.624   9.287 -0.8076 -0.4320  0.4077
 8117TIP3    H248547   6.168   5.558   9.308 -0.0829  0.7985 -0.2530
 8118TIP3   OH248548   5.537   5.690   9.605 -0.2338 -0.4382 -0.3548
 8118TIP3    H148549   5.543   5.780   9.572  0.0602 -0.2466  0.2027
 8118TIP3    H248550   5.448   5.682   9.638  0.2121  0.1857  1.0752
 8119TIP3   OH248551   1.310   4.541   0.282  0.2889  0.1670  0.2239
 8119TIP3    H148552   1.272   4.483   0.348  1.3846  2.1575  2.7965
 8119TIP3    H248553   1.387   4.579   0.325  0.2730  2.6203 -1.6938
 8120TIP3   OH248554   4.166   2.101   0.723 -0.0772 -0.4049 -0.1116
 8120TIP3    H148555   4.205   2.015   0.739  0.0969  0.0297  2.1665
 8120TIP3    H248556   4.098   2.109   0.790  0.2814  1.4251  0.0947
 8121TIP3   OH248557   6.165   1.485   1.670  0.1135  0.0159  0.2544
 8121TIP3    H148558   6.201   1.498   1.758  0.8857  0.4819 -0.1171
 8121TIP3    H248559   6.227   1.529   1.612 -1.4886  1.5552 -0.3571
 8122TIP3   OH248560   7.665   7.363   0.957  0.6987  0.0959 -0.4512
 8122TIP3    H148561   7.590   7.351   0.899  1.4484 -1.0991 -1.2171
 8122TIP3    H248562   7.676   7.279   1.001  1.0554  0.5339  0.3211
 8123TIP3   OH248563   6.877   3.296   8.315 -0.5661  0.1135  0.5682
 8123TIP3    H148564   6.842   3.208   8.322  0.0944 -0.2789 -0.6649
 8123TIP3    H248565   6.831   3.334   8.240  1.1215 -0.2008 -0.6970
 8124TIP3   OH248566   3.740   2.737   0.104  0.2551 -0.7565 -0.0180
 8124TIP3    H148567   3.725   2.738   0.009 -0.3933  0.3428  0.0798
 8124TIP3    H248568   3.803   2.807   0.119  0.5248 -1.0738  0.3391
 8125TIP3   OH248569   3.131   1.460   9.964 -0.3806 -0.5912 -0.2178
 8125TIP3    H148570   3.062   1.455   9.899  0.5472 -1.5560 -1.1846
 8125TIP3    H248571   3.204   1.410   9.926  1.2979  1.3948  0.1987
 8126TIP3   OH248572   4.774   3.211   9.391  0.2298  0.5181 -0.8667
 8126TIP3    H148573   4.856   3.162   9.380  0.2809 -0.1985  1.9893
 8126TIP3    H248574   4.722   3.188   9.314  0.6108 -3.4268 -0.1845
 8127TIP3   OH248575   4.570   0.590   9.606 -0.1882 -0.0613  0.2595
 8127TIP3    H148576   4.591   0.616   9.516  1.7965 -0.5482  0.5314
 8127TIP3    H248577   4.653   0.598   9.653 -0.8266 -1.3211  1.6902
 8128TIP3   OH248578   6.966   0.279   0.751  0.1557  0.1750  0.0438
 8128TIP3    H148579   7.044   0.232   0.783  1.1183 -0.3111 -2.7076
 8128TIP3    H248580   6.937   0.227   0.676 -2.8958  0.3618  0.9767
 8129TIP3   OH248581   6.077   5.686   7.595  0.3341  1.0061 -0.2835
 8129TIP3    H148582   6.138   5.630   7.547 -0.3748 -0.2731  0.2574
 8129TIP3    H248583   6.051   5.635   7.671 -2.5720  0.8222 -1.2622
 8130TIP3   OH248584   2.280   7.546   0.581  0.5103 -0.1680  0.3667
 8130TIP3    H148585   2.297   7.525   0.489  2.3874 -1.2318  0.8904
 8130TIP3    H248586   2.198   7.500   0.601  0.3528 -0.3532 -0.6441
 8131TIP3   OH248587   7.510   2.325   1.407 -0.1141  0.1127  0.0589
 8131TIP3    H148588   7.432   2.370   1.376 -0.1363 -0.2144 -0.3697
 8131TIP3    H248589   7.545   2.381   1.477  0.2933  1.1743 -0.9671
 8132TIP3   OH248590   0.140   3.538   9.607  0.1139  0.3569 -0.4573
 8132TIP3    H148591   0.126   3.593   9.684 -1.9439 -1.1718  0.3542
 8132TIP3    H248592   0.068   3.560   9.548 -0.2790 -0.8444 -0.4568
 8133TIP3   OH248593   2.822   3.748   2.806  0.4001  0.2699 -0.2561
 8133TIP3    H148594   2.732   3.726   2.830  1.2598 -1.4846  1.7342
 8133TIP3    H248595   2.850   3.678   2.747  1.1503 -0.5804  1.0403
 8134TIP3   OH248596   6.924   0.804   8.050  0.0481 -0.2068 -0.5820
 8134TIP3    H148597   6.902   0.712   8.034  0.7758 -0.1712 -1.8819
 8134TIP3    H248598   7.014   0.813   8.018  0.9066  0.3949  1.7443
 8135TIP3   OH248599   2.591   5.073   7.612  0.3399 -0.3273  0.3566
 8135TIP3    H148600   2.636   5.109   7.689 -0.3294 -0.7675  0.9665
 8135TIP3    H248601   2.512   5.032   7.648  0.0807 -0.6398 -0.5575
 8136TIP3   OH248602   3.346   4.764   8.168 -1.0420 -0.1358  0.4958
 8136TIP3    H148603   3.424   4.808   8.203 -0.3506 -0.1992 -0.9090
 8136TIP3    H248604   3.286   4.835   8.147 -0.4179  0.1014 -0.5926
 8137TIP3   OH248605   2.642   7.612   7.595  0.1221  0.4867  0.3445
 8137TIP3    H148606   2.619   7.585   7.684 -2.0040  1.0906  0.0266
 8137TIP3    H248607   2.675   7.532   7.554  1.4667  0.2753  1.7428
 8138TIP3   OH248608   7.376   1.328   1.926  0.3357  0.5128  0.7784
 8138TIP3    H148609   7.351   1.415   1.959  0.4036  0.9011 -0.1653
 8138TIP3    H248610   7.447   1.345   1.864 -1.2785  0.0799 -1.3140
 8139TIP3   OH248611   5.810   2.013   0.846 -0.1903  0.2304  0.2709
 8139TIP3    H148612   5.798   2.053   0.933 -1.6836 -1.5234  0.9442
 8139TIP3    H248613   5.876   1.945   0.861 -0.0922  0.2473 -0.0906
 8140TIP3   OH248614   2.980   0.063   0.844  0.1464  0.4038  0.1223
 8140TIP3    H148615   3.015   0.078   0.931  1.4669 -0.8914 -0.1545
 8140TIP3    H248616   3.025  -0.015   0.812 -2.0791 -0.6314 -0.7657
 8141TIP3   OH248617   3.168   6.259   9.868 -0.0760  0.4832  0.0124
 8141TIP3    H148618   3.127   6.222   9.789  0.1389  1.1306 -0.4134
 8141TIP3    H248619   3.238   6.197   9.889 -2.5420 -1.8780  2.0647
 8142TIP3   OH248620   5.144   0.074   0.414 -0.0415 -0.1918 -0.5170
 8142TIP3    H148621   5.088   0.023   0.471  2.0491 -2.5231 -0.3555
 8142TIP3    H248622   5.136   0.032   0.328  1.5212 -0.7323 -0.4421
 8143TIP3   OH248623   1.403   1.165   0.217 -0.4528 -0.0989 -0.2822
 8143TIP3    H148624   1.456   1.168   0.138  0.4598  1.0503  0.3519
 8143TIP3    H248625   1.350   1.245   0.213  0.2380  0.4296  0.6764
 8144TIP3   OH248626   4.784   6.105   7.653 -0.4893  0.4665 -0.2465
 8144TIP3    H148627   4.876   6.089   7.674 -1.0117  0.9872  2.8729
 8144TIP3    H248628   4.784   6.187   7.604  0.6839  0.5416 -0.1379
 8145TIP3   OH248629   4.782   0.742   1.442  0.3140  0.1266  0.0010
 8145TIP3    H148630   4.784   0.828   1.400 -0.3892 -0.8462 -2.1666
 8145TIP3    H248631   4.869   0.705   1.423  0.1584 -0.1426 -0.1829
 8146TIP3   OH248632   2.191   7.303   8.707  0.1640  0.1458 -0.7314
 8146TIP3    H148633   2.101   7.335   8.710  0.3025  0.5555 -0.9491
 8146TIP3    H248634   2.195   7.236   8.776 -0.3792 -0.0698 -0.9052
 8147TIP3   OH248635   2.017   4.806   2.653 -0.0746  0.4140  0.0886
 8147TIP3    H148636   1.948   4.798   2.587 -0.9719  1.9876  0.8031
 8147TIP3    H248637   1.971   4.821   2.735  1.0718 -0.2756  0.8955
 8148TIP3   OH248638   1.227   3.291   0.238 -0.1948  0.4670  0.8864
 8148TIP3    H148639   1.263   3.252   0.159  0.9693  1.2808  0.9782
 8148TIP3    H248640   1.182   3.219   0.282  0.4757 -0.3698  0.2475
 8149TIP3   OH248641   6.794   3.877   0.249 -0.1500 -0.6148  0.3895
 8149TIP3    H148642   6.869   3.821   0.269 -1.8440 -3.5975 -0.8160
 8149TIP3    H248643   6.812   3.912   0.162  0.6479  0.2330  0.8869
 8150TIP3   OH248644   4.329   5.476   7.755  0.2011  0.3278  0.8534
 8150TIP3    H148645   4.395   5.415   7.722  0.1610  0.8948 -0.3160
 8150TIP3    H248646   4.325   5.545   7.690 -1.3948  0.4174  1.0006
 8151TIP3   OH248647   2.543   4.454   2.360  0.3452  0.3318  0.5719
 8151TIP3    H148648   2.547   4.515   2.433  0.1856 -0.3938  1.2032
 8151TIP3    H248649   2.452   4.424   2.358 -0.4183  2.4511 -1.7168
 8152TIP3   OH248650   5.981   1.953   8.201 -0.1927 -0.4316 -0.2289
 8152TIP3    H148651   5.998   1.980   8.291 -1.2005 -0.0259 -0.1483
 8152TIP3    H248652   5.957   2.034   8.156  0.0533 -0.6731 -0.8090
 8153TIP3   OH248653   3.056   3.411   2.421  0.0987  0.6078  0.1292
 8153TIP3    H148654   3.030   3.345   2.485  1.0583 -0.2116 -0.3043
 8153TIP3    H248655   3.084   3.486   2.475  1.4553 -0.2861  0.7202
 8154TIP3   OH248656   0.729   0.799   9.084  0.4488  0.2948 -0.5518
 8154TIP3    H148657   0.641   0.816   9.118 -0.3629 -2.0918 -1.2176
 8154TIP3    H248658   0.769   0.885   9.075 -0.2731  1.2781  3.6596
 8155TIP3   OH248659   0.479   4.045   6.695  0.0746 -0.2348  0.7694
 8155TIP3    H148660   0.434   3.961   6.686 -0.6004  0.0527  1.3600
 8155TIP3    H248661   0.554   4.026   6.751  0.3182 -0.5841  0.3274
 8156TIP3   OH248662   5.064   4.413   7.334  0.0765 -0.2254  0.1177
 8156TIP3    H148663   5.017   4.496   7.343 -0.0399 -0.3068  0.2689
 8156TIP3    H248664   5.013   4.351   7.386  1.5974  0.1918  2.2153
 8157TIP3   OH248665   2.793   1.557   2.182 -0.0816  0.1105 -0.4255
 8157TIP3    H148666   2.748   1.474   2.192  0.3431  0.0974  2.1004
 8157TIP3    H248667   2.731   1.613   2.136 -2.4731 -0.1678  2.1898
 8158TIP3   OH248668   2.313   3.431   2.711  0.3156 -0.3093 -0.0098
 8158TIP3    H148669   2.291   3.524   2.720 -0.0859 -0.4677  0.7568
 8158TIP3    H248670   2.406   3.431   2.686  0.0206  0.3172 -1.1895
 8159TIP3   OH248671   1.109   5.975   2.719 -0.0350 -0.0187  0.6174
 8159TIP3    H148672   1.025   5.944   2.684  1.3520 -2.5478 -0.8100
 8159TIP3    H248673   1.113   6.067   2.693 -2.7390  0.4817  1.6038
 8160TIP3   OH248674   5.247   6.277   7.478  0.6927  0.1215  0.0285
 8160TIP3    H148675   5.315   6.280   7.545  0.9004 -0.1338 -0.1679
 8160TIP3    H248676   5.291   6.243   7.400  0.6118  1.0161 -0.4296
 8161TIP3   OH248677   2.474   3.906   1.607 -0.6118  0.2631  0.6320
 8161TIP3    H148678   2.568   3.916   1.622 -0.3404 -1.6684  0.4200
 8161TIP3    H248679   2.458   3.952   1.525  0.3356 -0.1373  0.2034
 8162TIP3   OH248680   6.475   6.963   1.378  0.0935 -0.4917  0.6403
 8162TIP3    H148681   6.454   7.047   1.336  2.2030 -0.0383  0.3631
 8162TIP3    H248682   6.420   6.899   1.334  0.5468  0.3402 -1.2278
 8163TIP3   OH248683   4.283   6.483   9.644  0.0498 -0.5243 -0.0457
 8163TIP3    H148684   4.271   6.567   9.689 -1.2757 -0.6396 -0.1376
 8163TIP3    H248685   4.374   6.484   9.614  0.2199  0.6246  0.4611
 8164TIP3   OH248686   3.543   1.671   9.807  0.6736  0.2122 -0.4006
 8164TIP3    H148687   3.506   1.696   9.722  0.0903 -1.7351 -0.7757
 8164TIP3    H248688   3.471   1.629   9.853  1.2057  0.5256  0.7525
 8165TIP3   OH248689   1.792   1.725   9.347 -0.1704 -0.8225  0.8251
 8165TIP3    H148690   1.729   1.663   9.309  0.9972 -2.6280  1.7095
 8165TIP3    H248691   1.771   1.726   9.440  0.8034 -1.1178  1.0593
 8166TIP3   OH248692   2.313   1.685   1.364  0.1124  0.0214  0.1383
 8166TIP3    H148693   2.363   1.759   1.329  0.9363 -0.8200 -0.4748
 8166TIP3    H248694   2.222   1.704   1.340  0.6181 -0.4334 -2.3283
 8167TIP3   OH248695   5.063   7.632   9.802  0.4548 -0.0508  0.4312
 8167TIP3    H148696   5.134   7.680   9.845  1.3227 -3.3660  3.1786
 8167TIP3    H248697   5.098   7.609   9.716  1.5971  0.7271  0.6730
 8168TIP3   OH248698   3.168   3.617   0.812 -0.0651 -0.1186  0.1174
 8168TIP3    H148699   3.138   3.642   0.725  0.5126 -0.3910 -0.1642
 8168TIP3    H248700   3.188   3.701   0.855 -1.7731  0.1144  0.5356
 8169TIP3   OH248701   5.206   6.647   0.141 -0.1016 -0.2870  0.1766
 8169TIP3    H148702   5.219   6.609   0.228 -0.8741  0.8210  0.8054
 8169TIP3    H248703   5.242   6.582   0.081  0.8547 -0.8804  1.3395
 8170TIP3   OH248704   0.404   0.662   7.433 -0.5921  0.0058 -0.2898
 8170TIP3    H148705   0.315   0.698   7.425 -0.4292  0.2571 -1.0480
 8170TIP3    H248706   0.391   0.570   7.456 -1.0623 -0.0402 -0.7210
 8171TIP3   OH248707   4.381   3.559   9.350 -0.2461  0.2322 -0.2529
 8171TIP3    H148708   4.393   3.471   9.315  0.3098  0.9703 -2.0656
 8171TIP3    H248709   4.310   3.596   9.297 -1.1902  0.5489  1.1860
 8172TIP3   OH248710   5.419   1.188   0.061 -0.2700 -0.6400 -0.1180
 8172TIP3    H148711   5.489   1.141   0.017 -1.0882 -0.9046 -1.1808
 8172TIP3    H248712   5.372   1.234  -0.009 -1.3864 -0.7679  0.5099
 8173TIP3   OH248713   0.175   5.870   9.617 -0.0939 -0.2989  0.2748
 8173TIP3    H148714   0.257   5.820   9.616 -0.8778 -1.6340  0.4888
 8173TIP3    H248715   0.113   5.814   9.664 -0.6163  1.5623  1.9650
 8174TIP3   OH248716   5.144   5.522   8.349 -0.2823  0.1818 -0.2409
 8174TIP3    H148717   5.165   5.430   8.336 -0.4984 -0.0026  0.6423
 8174TIP3    H248718   5.073   5.522   8.413  0.6378  1.0026  0.8339
 8175TIP3   OH248719   7.467   4.886   0.532  0.3714  0.2685 -0.5861
 8175TIP3    H148720   7.489   4.905   0.441  0.9084  2.0730 -0.1204
 8175TIP3    H248721   7.391   4.941   0.551  0.2503 -0.1016  0.0548
 8176TIP3   OH248722   2.373   0.411   8.499  0.3486 -0.0657  0.2440
 8176TIP3    H148723   2.321   0.390   8.577  0.9140 -0.0572  0.6362
 8176TIP3    H248724   2.441   0.344   8.497  0.6754  0.2672  0.0781
 8177TIP3   OH248725   1.566   7.513   9.054  0.8174 -0.0585 -0.7312
 8177TIP3    H148726   1.589   7.451   9.124  0.8883  1.0596  0.2790
 8177TIP3    H248727   1.485   7.554   9.085  0.1449 -0.4454 -1.9252
 8178TIP3   OH248728   4.935   1.508   7.326  0.0740  0.4008 -0.9998
 8178TIP3    H148729   4.961   1.466   7.244 -2.0777  0.0177 -1.5601
 8178TIP3    H248730   4.899   1.593   7.298 -2.4400 -0.4958 -0.7516
 8179TIP3   OH248731   7.112   4.867   0.642  0.2281 -0.0759  0.1094
 8179TIP3    H148732   7.046   4.854   0.574 -0.1162  1.3670  0.1229
 8179TIP3    H248733   7.184   4.911   0.597  0.1629  0.5322  0.5828
 8180TIP3   OH248734   1.541   3.387   0.927 -0.4350  0.3026  0.8714
 8180TIP3    H148735   1.599   3.359   0.998  0.2521  0.6806  0.4664
 8180TIP3    H248736   1.458   3.408   0.971 -0.3594 -0.5021  1.4167
 8181TIP3   OH248737   2.410   0.703   7.687  0.4278 -0.6313  0.1910
 8181TIP3    H148738   2.490   0.752   7.706  0.6023 -1.1386  0.7937
 8181TIP3    H248739   2.403   0.707   7.591  0.4060  0.5956  0.2204
 8182TIP3   OH248740   7.673   4.519   8.492 -0.1838  0.6606  0.5951
 8182TIP3    H148741   7.757   4.538   8.450 -0.3623  1.3948  0.5579
 8182TIP3    H248742   7.632   4.604   8.504 -0.0649  0.4978  2.4532
 8183TIP3   OH248743   4.518   6.673   8.824  0.3857 -0.5249 -0.2790
 8183TIP3    H148744   4.581   6.711   8.764  0.8868  0.3030  0.7275
 8183TIP3    H248745   4.434   6.713   8.800  0.4893 -0.5992 -0.7584
 8184TIP3   OH248746   3.695   5.385   9.853  0.5447  0.3410  0.7317
 8184TIP3    H148747   3.601   5.366   9.846  0.1604  1.7622  1.5977
 8184TIP3    H248748   3.737   5.318   9.799 -0.9794 -0.1880  0.1424
 8185TIP3   OH248749   7.192   4.263   0.173  0.1328 -0.2067 -0.1960
 8185TIP3    H148750   7.198   4.344   0.122 -0.4078 -0.5205 -0.7782
 8185TIP3    H248751   7.162   4.197   0.110 -0.4076 -0.6353  0.4870
 8186TIP3   OH248752   6.058   3.153   9.696 -0.2374  0.2941  0.0666
 8186TIP3    H148753   5.969   3.130   9.670 -1.0014 -0.0227  2.7044
 8186TIP3    H248754   6.049   3.234   9.746  1.0890  0.6465 -0.2011
 8187TIP3   OH248755   2.497   2.237   0.266 -0.9277 -0.3359 -1.1437
 8187TIP3    H148756   2.539   2.233   0.181 -1.2191  1.1076 -1.3951
 8187TIP3    H248757   2.461   2.150   0.280 -1.5862 -0.3720 -2.8777
 8188TIP3   OH248758   2.224   1.843   9.561  0.1428 -0.1110 -0.0016
 8188TIP3    H148759   2.161   1.772   9.573 -2.5734  2.2271  0.5509
 8188TIP3    H248760   2.210   1.872   9.471  1.1777 -0.2015 -0.1990
 8189TIP3   OH248761   1.080   5.864   1.191 -0.2989  0.2407 -0.3115
 8189TIP3    H148762   1.036   5.782   1.213 -1.7015  1.3353  1.2037
 8189TIP3    H248763   1.035   5.894   1.112 -0.3909 -0.0064 -0.3549
 8190TIP3   OH248764   2.343   1.450   9.813  0.1718 -0.2022 -0.2291
 8190TIP3    H148765   2.273   1.405   9.766  0.9968 -3.4190  1.3282
 8190TIP3    H248766   2.320   1.543   9.807 -1.7810 -0.7294 -3.5192
 8191TIP3   OH248767   3.231   3.606   7.865  0.2943  0.9804  0.7712
 8191TIP3    H148768   3.256   3.564   7.782 -2.6789  0.5699 -0.0439
 8191TIP3    H248769   3.298   3.672   7.880  1.6667  0.1402 -1.2491
 8192TIP3   OH248770   3.831   6.062   1.638 -0.2740  0.0312  0.4652
 8192TIP3    H148771   3.919   6.087   1.608 -1.2465  0.7629 -1.9629
 8192TIP3    H248772   3.797   6.140   1.680  0.4680 -0.4860  2.1100
 8193TIP3   OH248773   2.788   5.916   0.860 -0.0059  0.4893 -0.8531
 8193TIP3    H148774   2.779   6.004   0.823  0.7714  0.7290 -0.4975
 8193TIP3    H248775   2.841   5.929   0.939 -0.5952 -0.1870 -0.3377
 8194TIP3   OH248776   0.077   6.619   1.220 -0.0764 -0.1239  0.7828
 8194TIP3    H148777   0.093   6.550   1.156 -0.3300  1.2345 -0.8118
 8194TIP3    H248778   0.021   6.681   1.175 -2.1659 -0.1824  3.0998
 8195TIP3   OH248779   7.408   0.918   1.329 -0.3499  0.3917  0.2590
 8195TIP3    H148780   7.344   0.853   1.358 -0.2935  1.0762  2.0629
 8195TIP3    H248781   7.451   0.947   1.409  0.3664  1.8916 -0.6129
 8196TIP3   OH248782   4.757   0.741   0.120 -0.6589 -0.4799  0.4892
 8196TIP3    H148783   4.771   0.770   0.030 -1.8549  1.3687  0.8264
 8196TIP3    H248784   4.693   0.670   0.112 -1.8277  0.5963 -0.0650
 8197TIP3   OH248785   2.228   3.199   2.292 -0.4204 -0.1291  0.0453
 8197TIP3    H148786   2.220   3.204   2.387 -0.5644 -1.1929  0.0982
 8197TIP3    H248787   2.156   3.254   2.259 -1.8727 -1.6317  0.5670
 8198TIP3   OH248788   4.334   0.154   9.438  0.0708  0.3757  0.1248
 8198TIP3    H148789   4.364   0.218   9.502  0.7668  0.5162 -0.3253
 8198TIP3    H248790   4.332   0.201   9.355 -0.2807  0.0505 -0.0582
 8199TIP3   OH248791   1.276   6.552   9.924 -0.4836  0.4210  0.5758
 8199TIP3    H148792   1.215   6.554   9.850  1.1916 -0.0685 -0.8933
 8199TIP3    H248793   1.339   6.622   9.904  0.7367 -0.5667  0.8525
 8200TIP3   OH248794   2.647   0.709   2.473 -0.0244  0.1065 -0.1805
 8200TIP3    H148795   2.595   0.662   2.538 -1.3796  0.7890 -0.7326
 8200TIP3    H248796   2.638   0.656   2.393 -1.4990  1.1798 -0.7860
 8201TIP3   OH248797   6.932   7.239   8.848  0.4489  0.4721  0.2872
 8201TIP3    H148798   6.942   7.147   8.873  0.3019 -0.2893 -2.2524
 8201TIP3    H248799   6.984   7.287   8.913  1.4876 -1.4809  0.9685
 8202TIP3   OH248800   5.609   2.933   0.240  0.6492  0.0722  0.3147
 8202TIP3    H148801   5.598   2.996   0.312 -0.7897 -0.2002  0.3657
 8202TIP3    H248802   5.531   2.945   0.186  0.2930 -1.7191  0.3704
 8203TIP3   OH248803   6.118   4.758   7.880 -0.4886 -0.7160 -0.3321
 8203TIP3    H148804   6.052   4.810   7.833  0.7358 -0.1781 -1.4944
 8203TIP3    H248805   6.121   4.797   7.967 -0.6233  0.2350 -0.7437
 8204TIP3   OH248806   7.567   1.848   8.375 -0.5598  0.1480  0.1680
 8204TIP3    H148807   7.509   1.816   8.306 -0.2921  0.0858 -0.0280
 8204TIP3    H248808   7.525   1.821   8.456  0.1338 -1.5482  0.0037
 8205TIP3   OH248809   3.190   5.085   1.329  0.0488  0.2095  0.7526
 8205TIP3    H148810   3.233   5.010   1.288  1.5341  0.3161  2.0015
 8205TIP3    H248811   3.100   5.056   1.345 -0.4847  0.0199 -2.0634
 8206TIP3   OH248812   7.614   4.724   8.789 -0.8095 -0.1833  0.2294
 8206TIP3    H148813   7.563   4.761   8.717 -0.8743  2.0651  1.3346
 8206TIP3    H248814   7.565   4.748   8.868  0.3228 -0.7687  1.1437
 8207TIP3   OH248815   2.532   0.556   0.930  0.6150 -0.2648  0.0672
 8207TIP3    H148816   2.621   0.522   0.929  0.6383 -0.2114  0.2686
 8207TIP3    H248817   2.488   0.510   0.858  0.7997 -0.3011 -0.0242
 8208TIP3   OH248818   4.583   0.058   0.213 -0.2277 -0.0343  0.1837
 8208TIP3    H148819   4.595   0.129   0.276  0.6427 -0.8090  0.9120
 8208TIP3    H248820   4.543  -0.013   0.263 -1.5574  0.0732 -0.6477
 8209TIP3   OH248821   3.989   4.188   9.843 -0.5057  0.3279  0.8218
 8209TIP3    H148822   3.931   4.257   9.810 -0.7534 -0.5231 -0.5817
 8209TIP3    H248823   3.930   4.122   9.879 -0.2956  0.4420  1.4005
 8210TIP3   OH248824   4.685   4.637   9.608 -0.0657 -0.0546 -0.5305
 8210TIP3    H148825   4.662   4.577   9.679 -0.0397  2.2398  1.5093
 8210TIP3    H248826   4.605   4.687   9.592  0.7618  1.4726 -0.0192
 8211TIP3   OH248827   6.451   7.573   9.166 -0.2485  0.3983 -0.1073
 8211TIP3    H148828   6.415   7.516   9.233  0.9633 -2.3536 -1.6033
 8211TIP3    H248829   6.422   7.534   9.083  3.0111  0.0922 -1.2757
 8212TIP3   OH248830   6.415   4.871   8.497 -0.1614 -0.1104 -0.2603
 8212TIP3    H148831   6.369   4.909   8.572 -0.7574 -1.2116 -0.0487
 8212TIP3    H248832   6.497   4.837   8.533 -0.2193 -0.1899 -0.2044
 8213TIP3   OH248833   4.326   1.931   7.297  0.7311  0.3085  0.1665
 8213TIP3    H148834   4.406   1.900   7.338  0.8225 -1.5971 -1.3104
 8213TIP3    H248835   4.294   1.856   7.246  0.3341  2.2590 -2.7229
 8214TIP3   OH248836   0.907   5.326   0.754 -0.2104 -0.0441  0.0439
 8214TIP3    H148837   0.842   5.257   0.767  0.2687 -0.2634  1.4689
 8214TIP3    H248838   0.991   5.280   0.754  0.0011  0.3318 -0.9438
 8215TIP3   OH248839   7.091   1.959   8.425 -0.0795 -0.4603 -0.0383
 8215TIP3    H148840   7.013   1.977   8.373  0.4623  1.2164 -0.3118
 8215TIP3    H248841   7.067   1.985   8.514  0.0722 -0.1946 -0.0740
 8216TIP3   OH248842   2.872   4.533   7.248  0.2393  0.9601  0.0245
 8216TIP3    H148843   2.811   4.469   7.211 -2.3483  2.0479  1.9807
 8216TIP3    H248844   2.928   4.482   7.306 -0.5256  0.1862  0.1074
 8217TIP3   OH248845   2.865   2.454   8.613 -0.2651 -0.3989 -0.2177
 8217TIP3    H148846   2.816   2.378   8.646 -1.4749  0.7635  0.7874
 8217TIP3    H248847   2.938   2.464   8.675  0.1253 -0.9761 -0.5837
 8218TIP3   OH248848   3.174   0.035   8.409  0.1315  0.5210  0.1956
 8218TIP3    H148849   3.204   0.033   8.500  2.3560  1.3478 -0.4487
 8218TIP3    H248850   3.079   0.039   8.415  0.2647  2.3780  2.5371
 8219TIP3   OH248851   6.426   6.359   1.824 -0.1021 -0.4288 -0.3677
 8219TIP3    H148852   6.343   6.354   1.871  0.3087  1.9035  0.7920
 8219TIP3    H248853   6.492   6.338   1.890  0.3324  0.2482 -0.5681
 8220TIP3   OH248854   0.548   5.536   9.352  0.8407 -0.2095 -0.2146
 8220TIP3    H148855   0.599   5.557   9.274  0.6689 -1.3096 -0.6313
 8220TIP3    H248856   0.458   5.562   9.330  0.9331  0.2576 -0.0620
 8221TIP3   OH248857   2.165   5.627   1.182  0.0641 -0.0389 -0.2794
 8221TIP3    H148858   2.235   5.690   1.163  2.7967 -2.7447  0.0694
 8221TIP3    H248859   2.107   5.674   1.243  0.4456  2.9431 -1.9947
 8222TIP3   OH248860   2.730   6.611   7.635  0.0020 -0.0029 -0.6201
 8222TIP3    H148861   2.711   6.691   7.683  2.4805  1.8932 -2.5525
 8222TIP3    H248862   2.669   6.611   7.562  0.3106  0.3644 -0.8765
 8223TIP3   OH248863   6.248   1.279   1.142 -0.3158 -0.1994 -0.0027
 8223TIP3    H148864   6.319   1.324   1.187 -0.7341 -0.7591  1.2447
 8223TIP3    H248865   6.232   1.332   1.063  0.3681  0.8419  0.5451
 8224TIP3   OH248866   3.230   6.030   8.649 -0.5060  0.6833  0.7625
 8224TIP3    H148867   3.255   6.105   8.703 -0.2213  1.3743 -0.2937
 8224TIP3    H248868   3.287   6.035   8.573  0.2542 -1.2362  1.1441
 8225TIP3   OH248869   1.481   3.726   8.416  0.2046 -0.7062  0.1359
 8225TIP3    H148870   1.501   3.819   8.407 -0.0015 -0.5913  0.8190
 8225TIP3    H248871   1.548   3.682   8.363  0.6158 -0.2002  0.2299
 8226TIP3   OH248872   0.489   0.375   1.075 -0.6531  0.0952  0.0947
 8226TIP3    H148873   0.406   0.344   1.113 -1.2287  0.0688 -1.1489
 8226TIP3    H248874   0.464   0.413   0.991  0.7395 -0.9245 -0.8266
 8227TIP3   OH248875   0.541   7.498   1.097  0.4040 -0.1937 -0.3499
 8227TIP3    H148876   0.584   7.420   1.131  0.9276  0.0375 -0.4688
 8227TIP3    H248877   0.503   7.541   1.174  0.4877 -0.3389 -0.2285
 8228TIP3   OH248878   3.276   1.592   0.284  0.2025 -0.0258  0.2608
 8228TIP3    H148879   3.244   1.541   0.358  0.7076  1.5208  1.6097
 8228TIP3    H248880   3.201   1.645   0.257  0.2550  0.0190  0.2033
 8229TIP3   OH248881   5.009   5.099   9.696 -0.1217 -0.0350 -0.5242
 8229TIP3    H148882   5.083   5.061   9.649 -0.0999  0.9572 -1.3327
 8229TIP3    H248883   4.995   5.041   9.771  2.9585  1.0253  1.0026
 8230TIP3   OH248884   4.201   0.237   1.496 -0.0654  0.1243 -0.0984
 8230TIP3    H148885   4.204   0.143   1.508 -0.5333  0.0332 -0.6202
 8230TIP3    H248886   4.270   0.256   1.432 -1.0205 -0.0943 -1.2409
 8231TIP3   OH248887   7.570   3.735   8.169 -0.4431  0.2076 -0.1749
 8231TIP3    H148888   7.653   3.713   8.212 -0.8699 -3.3406 -0.8001
 8231TIP3    H248889   7.595   3.763   8.081  0.1663  0.0008 -0.0776
 8232TIP3   OH248890   4.915   0.153   7.759 -0.4643 -0.2033 -0.8692
 8232TIP3    H148891   4.880   0.221   7.816  1.8922  1.9507 -1.8582
 8232TIP3    H248892   4.851   0.147   7.688 -0.7768  0.8902 -0.7009
 8233TIP3   OH248893   1.490   5.076   9.946 -0.1860 -0.1305 -0.0555
 8233TIP3    H148894   1.519   5.051  10.034  0.0336 -2.2689 -0.6759
 8233TIP3    H248895   1.396   5.090   9.955  0.0882  1.2794  0.8298
 8234TIP3   OH248896   3.141   6.812   2.811 -0.0477 -0.9032  0.2073
 8234TIP3    H148897   3.151   6.725   2.774  0.1797 -1.1357  0.8001
 8234TIP3    H248898   3.046   6.828   2.810 -0.0530 -0.9631 -0.3297
 8235TIP3   OH248899   1.482   4.150   1.972  0.2940 -0.2674  0.3338
 8235TIP3    H148900   1.464   4.124   1.881  1.2640 -1.1381  0.3629
 8235TIP3    H248901   1.574   4.128   1.984 -0.4517 -2.7783  2.3543
 8236TIP3   OH248902   3.191   1.796   2.379  0.3867 -0.3454  0.4914
 8236TIP3    H148903   3.213   1.742   2.455 -0.5395  0.8438  1.6407
 8236TIP3    H248904   3.263   1.858   2.373 -1.2145  1.9131  2.7064
 8237TIP3   OH248905   0.639   0.606   0.734  0.2240 -0.8166  0.1519
 8237TIP3    H148906   0.709   0.575   0.791  0.3187  0.6462  0.8711
 8237TIP3    H248907   0.559   0.567   0.770  0.3547 -0.3695  0.9521
 8238TIP3   OH248908   2.563   6.510   9.564  0.1743 -0.3325 -0.5237
 8238TIP3    H148909   2.498   6.470   9.621  0.8913 -0.4310  0.2578
 8238TIP3    H248910   2.647   6.474   9.595  0.8627  1.7619  0.2633
 8239TIP3   OH248911   2.031   4.423   6.772  0.2524  0.0856  0.5777
 8239TIP3    H148912   2.046   4.330   6.757 -1.1565 -0.0549 -0.1357
 8239TIP3    H248913   2.118   4.460   6.780  0.9276 -1.0018 -1.0665
 8240TIP3   OH248914   2.906   5.117   1.335  0.1762 -0.3229  0.3685
 8240TIP3    H148915   2.865   5.034   1.356 -2.3011  0.7938  0.2576
 8240TIP3    H248916   2.859   5.181   1.389  0.2246  1.3352 -1.4684
 8241TIP3   OH248917   4.556   4.084   8.268 -0.9505 -0.2999 -0.1504
 8241TIP3    H148918   4.645   4.055   8.246 -0.8479 -0.8903  0.9748
 8241TIP3    H248919   4.523   4.017   8.327 -0.4607  2.1118  3.1315
 8242TIP3   OH248920   4.071   7.552   9.988  0.6912 -0.6131 -0.3911
 8242TIP3    H148921   4.035   7.520  10.071  0.1133  1.6974  0.3175
 8242TIP3    H248922   4.163   7.525   9.991  0.4993 -1.2427  0.6224
 8243TIP3   OH248923   5.212   1.925   7.986  0.1735 -0.6759 -0.1333
 8243TIP3    H148924   5.188   1.879   8.066  0.4912 -0.9623 -0.2028
 8243TIP3    H248925   5.211   2.018   8.010  0.5188 -0.7786  0.2647
 8244TIP3   OH248926   6.026   5.471   7.746  0.1948  0.0549 -0.0068
 8244TIP3    H148927   6.049   5.412   7.674 -0.8158 -0.3865  0.0239
 8244TIP3    H248928   5.932   5.486   7.736  0.1896  0.6025  0.7820
 8245TIP3   OH248929   5.177   1.137   2.511  0.0980  0.2665 -0.8314
 8245TIP3    H148930   5.170   1.221   2.465  1.6344  0.8681 -0.0554
 8245TIP3    H248931   5.115   1.144   2.584  0.1804  0.7191 -0.8003
 8246TIP3   OH248932   4.870   6.627   9.781  0.1624  0.3777  0.9787
 8246TIP3    H148933   4.962   6.639   9.808  0.5317 -0.1752  0.0182
 8246TIP3    H248934   4.872   6.550   9.724 -1.0217 -0.0626  1.5031
 8247TIP3   OH248935   2.206   0.343   7.906 -0.2337 -0.2069 -0.7767
 8247TIP3    H148936   2.161   0.386   7.979  0.7301  1.2100 -0.9673
 8247TIP3    H248937   2.167   0.255   7.902 -0.6608 -0.1449  1.0980
 8248TIP3   OH248938   0.081   1.590   8.740 -0.0395  0.4672  0.0898
 8248TIP3    H148939   0.142   1.621   8.807  0.4708  1.4952 -0.8178
 8248TIP3    H248940  -0.004   1.591   8.784  0.5869 -1.1436  1.4177
 8249TIP3   OH248941   3.832   4.599   9.574 -0.4490 -0.9037  0.3212
 8249TIP3    H148942   3.757   4.541   9.561 -0.0654 -1.1736 -0.7476
 8249TIP3    H248943   3.857   4.626   9.486  0.1368 -0.0777  0.7327
 8250TIP3   OH248944   2.926   2.109   1.900  0.5082 -0.1970 -0.4853
 8250TIP3    H148945   2.991   2.074   1.839  1.3509 -1.8744  1.2530
 8250TIP3    H248946   2.844   2.064   1.878  0.7367 -0.5620 -0.5872
 8251TIP3   OH248947   2.875   7.281   8.682  0.5348  0.3839 -0.3027
 8251TIP3    H148948   2.938   7.227   8.633  0.3582 -1.3419  1.2447
 8251TIP3    H248949   2.915   7.368   8.684  2.6103 -0.5188  0.1339
 8252TIP3   OH248950   5.019   6.579   8.691  0.1014 -0.2796 -0.3156
 8252TIP3    H148951   4.961   6.570   8.615 -0.6527 -0.1693  0.2366
 8252TIP3    H248952   5.099   6.618   8.656 -0.7808  1.1492 -0.8207
 8253TIP3   OH248953   0.330   1.986   0.181  0.1386 -0.1375  0.1213
 8253TIP3    H148954   0.364   2.071   0.210  1.5769 -1.0921  1.3792
 8253TIP3    H248955   0.257   2.008   0.123 -1.1588  1.9350  2.3627
 8254TIP3   OH248956   6.668   1.569   1.603 -0.2585  0.1443  0.3996
 8254TIP3    H148957   6.592   1.511   1.594 -0.0305 -0.5278  2.3924
 8254TIP3    H248958   6.704   1.575   1.514 -1.4363 -1.1671 -0.2102
 8255TIP3   OH248959   1.312   4.052   1.286  0.1202 -0.8519 -0.4155
 8255TIP3    H148960   1.390   3.999   1.303  1.0105  0.4282 -0.3370
 8255TIP3    H248961   1.298   4.100   1.367  1.2735  1.4076 -1.4704
 8256TIP3   OH248962   5.267   7.001   8.649  0.3074  0.9906  0.2637
 8256TIP3    H148963   5.194   7.022   8.590  0.3685  0.3507 -0.0501
 8256TIP3    H248964   5.345   7.025   8.599  0.3327  1.1263  0.3696
 8257TIP3   OH248965   3.243   2.478   0.031 -0.2207  0.3694 -0.4179
 8257TIP3    H148966   3.246   2.403  -0.029 -1.0923  0.5504 -0.6913
 8257TIP3    H248967   3.265   2.441   0.116  1.2489  0.1457 -0.8573
 8258TIP3   OH248968   2.625   5.386   2.468 -0.5692 -0.3576 -0.1229
 8258TIP3    H148969   2.704   5.367   2.518  1.5962 -0.9331 -3.4414
 8258TIP3    H248970   2.593   5.300   2.440 -1.4028 -0.0228 -0.2476
 8259TIP3   OH248971   7.027   7.130   8.568 -0.3554 -0.1757  0.2413
 8259TIP3    H148972   7.051   7.218   8.598 -2.4456 -0.3010  2.5836
 8259TIP3    H248973   6.978   7.145   8.487 -0.0200  0.7372  0.1910
 8260TIP3   OH248974   1.070   3.010   1.099 -0.6416 -0.2402 -0.1258
 8260TIP3    H148975   1.110   3.022   1.014 -0.7164  2.1388  0.1027
 8260TIP3    H248976   1.122   2.942   1.141  2.2091  1.5577 -0.4585
 8261TIP3   OH248977   0.172   0.634   2.781 -0.0216  0.0956  0.3361
 8261TIP3    H148978   0.093   0.594   2.745 -0.6038  1.1543  0.3731
 8261TIP3    H248979   0.239   0.622   2.714 -0.6317  0.5309 -0.3600
 8262TIP3   OH248980   4.802   1.089   0.028  0.1302  0.0830  0.3403
 8262TIP3    H148981   4.878   1.036   0.004 -0.6462 -0.2320 -1.6206
 8262TIP3    H248982   4.781   1.138  -0.052 -1.4088  0.5506  0.9912
 8263TIP3   OH248983   1.224   3.500   1.633  0.4437  0.0025  0.2485
 8263TIP3    H148984   1.198   3.437   1.567  0.4713  0.1449  0.0988
 8263TIP3    H248985   1.308   3.534   1.602 -0.2003  1.0884 -0.3721
 8264TIP3   OH248986   3.131   2.214   7.659 -0.6430  0.0110  0.0544
 8264TIP3    H148987   3.163   2.177   7.577 -1.0489  0.0000 -0.1028
 8264TIP3    H248988   3.036   2.206   7.653 -0.6494 -0.4068  0.7248
 8265TIP3   OH248989   2.040   4.125   2.517 -0.0296  0.0590  0.4717
 8265TIP3    H148990   1.992   4.206   2.538 -0.8742 -0.8321  2.1854
 8265TIP3    H248991   2.001   4.059   2.574  0.2352 -1.7147 -1.3129
 8266TIP3   OH248992   0.006   7.621   0.908  0.0482  0.1983  0.0960
 8266TIP3    H148993  -0.012   7.612   0.815  1.3745 -1.9216 -0.0274
 8266TIP3    H248994   0.012   7.531   0.941  0.3729  0.8781  2.0643
 8267TIP3   OH248995   4.891   5.900   8.180  0.0701 -0.0713 -0.1933
 8267TIP3    H148996   4.938   5.942   8.109 -0.3357  1.1055  0.2127
 8267TIP3    H248997   4.833   5.837   8.137 -0.0439  0.5042 -0.8958
 8268TIP3   OH248998   3.044   1.429   0.867 -0.3679 -0.2660  0.1392
 8268TIP3    H148999   3.056   1.351   0.813 -0.4579 -1.4030  1.7223
 8268TIP3    H249000   2.950   1.447   0.862 -0.2914 -0.0006 -0.5357
 8269TIP3   OH249001   3.100   0.083   0.383  0.2518  0.5148 -0.1015
 8269TIP3    H149002   3.145   0.003   0.412 -0.0466  0.2309 -0.4160
 8269TIP3    H249003   3.133   0.151   0.442 -1.2237 -0.2584  1.7144
 8270TIP3   OH249004   1.479   1.544   9.507  0.0901  0.3482 -0.2669
 8270TIP3    H149005   1.501   1.484   9.436  0.7418 -2.6206  2.2552
 8270TIP3    H249006   1.556   1.601   9.516  1.5902 -1.6811  0.3556
 8271TIP3   OH249007   0.279   4.768   0.719  0.3098  0.0031 -0.0080
 8271TIP3    H149008   0.307   4.852   0.682 -2.5222  1.2004  0.2988
 8271TIP3    H249009   0.282   4.707   0.645 -0.0581  1.0211 -0.8803
 8272TIP3   OH249010   0.941   6.505   8.579 -0.1038  0.2203 -0.5471
 8272TIP3    H149011   0.848   6.482   8.574 -0.3056  0.1232  2.1028
 8272TIP3    H249012   0.943   6.586   8.631  1.3355 -0.2315  0.1536
 8273TIP3   OH249013   0.295   5.708   2.605 -0.2209 -0.2577 -0.2842
 8273TIP3    H149014   0.292   5.674   2.694  0.2319  0.7324  0.1256
 8273TIP3    H249015   0.387   5.705   2.580 -0.4125 -1.0473 -0.9392
 8274TIP3   OH249016   7.305   3.207   7.466  0.7011 -0.3296  0.0047
 8274TIP3    H149017   7.353   3.268   7.411  1.8585 -1.2056  0.0252
 8274TIP3    H249018   7.234   3.260   7.504  0.2141  0.4105 -1.8527
 8275TIP3   OH249019   4.163   0.992   8.810 -0.5711  0.2473 -0.5932
 8275TIP3    H149020   4.230   1.054   8.783  0.2136 -0.7467 -1.0137
 8275TIP3    H249021   4.106   1.041   8.870  0.8034  0.9969  0.1367
 8276TIP3   OH249022   4.236   5.130   7.702 -0.0926 -0.1577  0.6843
 8276TIP3    H149023   4.177   5.174   7.641  0.9493  0.0275 -0.2465
 8276TIP3    H249024   4.193   5.135   7.787 -0.7791  1.1439  0.2767
 8277TIP3   OH249025   7.676   7.129   8.448 -0.4796 -0.1727 -0.3310
 8277TIP3    H149026   7.675   7.115   8.353 -0.0889 -1.0309 -0.2163
 8277TIP3    H249027   7.662   7.042   8.485  0.6243 -0.0487  0.4079
 8278TIP3   OH249028   6.815   4.100   8.304 -0.0362 -0.1252  0.2760
 8278TIP3    H149029   6.822   4.195   8.291  2.6765 -0.4943 -2.0201
 8278TIP3    H249030   6.735   4.075   8.257 -0.3908  0.9260  0.2925
 8279TIP3   OH249031   1.510   4.749   1.899 -0.1926 -0.0687 -0.1123
 8279TIP3    H149032   1.539   4.838   1.878 -2.0335  0.6405  0.2039
 8279TIP3    H249033   1.541   4.696   1.825  0.0167  1.0104 -0.8228
 8280TIP3   OH249034   2.148   3.647   7.421 -0.0880  0.1735  0.5246
 8280TIP3    H149035   2.155   3.662   7.515 -0.0793  0.0914  0.5370
 8280TIP3    H249036   2.054   3.652   7.402 -0.3528 -2.0879  0.9188
 8281TIP3   OH249037   0.956   3.447   7.759 -0.5920 -0.1364 -0.1732
 8281TIP3    H149038   0.954   3.366   7.810 -1.7301 -0.4151 -0.6282
 8281TIP3    H249039   0.995   3.512   7.818  0.2075 -0.9653  0.2438
 8282TIP3   OH249040   2.648   6.839   0.037 -0.3946 -0.1007 -0.5294
 8282TIP3    H149041   2.707   6.768   0.063 -0.7990 -0.2360  0.0255
 8282TIP3    H249042   2.595   6.802  -0.033  1.0138  0.4092 -1.9185
 8283TIP3   OH249043   2.323   2.756   8.615  0.3063  0.5325  0.0122
 8283TIP3    H149044   2.261   2.772   8.686 -0.6123 -0.0497 -0.6283
 8283TIP3    H249045   2.284   2.802   8.540  1.1154  0.9021 -0.1882
 8284TIP3   OH249046   1.678   5.964   9.668  0.1415  0.6504 -0.3775
 8284TIP3    H149047   1.697   6.057   9.681  0.6779  0.2102  3.0995
 8284TIP3    H249048   1.759   5.919   9.694 -0.9852 -0.8269  0.8368
 8285TIP3   OH249049   1.790   6.120   7.394  0.2206 -0.0511 -0.3015
 8285TIP3    H149050   1.766   6.070   7.315  0.4646  0.8832 -0.9769
 8285TIP3    H249051   1.867   6.170   7.368  2.1259 -1.9075  1.4145
 8286TIP3   OH249052   3.749   3.382   3.168  0.4517  0.1359 -0.1599
 8286TIP3    H149053   3.799   3.373   3.087  0.5847  0.3992 -0.1069
 8286TIP3    H249054   3.665   3.340   3.149  0.3741  0.4500 -0.5319
 8287TIP3   OH249055   1.450   1.836   8.321  0.1832 -0.3451  0.1270
 8287TIP3    H149056   1.481   1.760   8.370  0.4696  0.2325  0.8549
 8287TIP3    H249057   1.504   1.836   8.241  0.9548 -0.2713  0.6396
 8288TIP3   OH249058   4.882   7.358   0.590  0.0496  0.1410  0.0528
 8288TIP3    H149059   4.972   7.344   0.560 -0.2115  0.9184 -1.1274
 8288TIP3    H249060   4.844   7.270   0.594  1.3177 -0.3802  2.1445
 8289TIP3   OH249061   6.794   2.280   7.636  0.4435 -0.0558 -0.8716
 8289TIP3    H149062   6.753   2.253   7.718 -1.0857  0.8168 -1.3122
 8289TIP3    H249063   6.759   2.219   7.571 -0.7352  1.1038 -1.3665
 8290TIP3   OH249064   3.206   1.953   1.383  0.1883 -0.1334 -0.3905
 8290TIP3    H149065   3.171   1.923   1.299 -0.0568 -1.9210  0.3074
 8290TIP3    H249066   3.129   1.977   1.434  0.2693 -0.0191 -0.3208
 8291TIP3   OH249067   0.185   2.020   9.927  0.1269 -0.1770  0.4426
 8291TIP3    H149068   0.091   2.007   9.911  0.4475 -0.1040 -1.9269
 8291TIP3    H249069   0.223   1.933   9.917  0.3545 -0.1544  1.0901
 8292TIP3   OH249070   3.504   3.133   3.284  0.2113  0.5290 -0.1899
 8292TIP3    H149071   3.426   3.188   3.285  0.3222  0.6852  0.7717
 8292TIP3    H249072   3.503   3.087   3.368  0.9203  0.2033 -0.3455
 8293TIP3   OH249073   3.811   3.470   2.540 -0.1994  0.5383  0.4694
 8293TIP3    H149074   3.886   3.461   2.480 -1.1395  0.3406 -0.7079
 8293TIP3    H249075   3.796   3.382   2.574 -2.1939 -0.2891 -2.1981
 8294TIP3   OH249076   7.645   4.891   7.584  0.1161 -0.5766 -0.4268
 8294TIP3    H149077   7.649   4.898   7.680  0.9094 -0.3789 -0.4736
 8294TIP3    H249078   7.584   4.960   7.558 -0.9026 -1.2746  0.0046
 8295TIP3   OH249079   6.290   5.175   9.820  0.2735  0.0336 -0.1608
 8295TIP3    H149080   6.312   5.203   9.731 -0.8478 -0.2302 -0.5324
 8295TIP3    H249081   6.374   5.172   9.865  0.8218  0.4921 -1.1166
 8296TIP3   OH249082   5.221   6.180   0.205  0.5529  0.0273  0.2374
 8296TIP3    H149083   5.245   6.115   0.271  2.0680  1.2373  0.9616
 8296TIP3    H249084   5.156   6.235   0.248 -2.2472 -2.0291 -1.0292
 8297TIP3   OH249085   6.372   7.007   2.156  0.1692  0.2196 -0.0800
 8297TIP3    H149086   6.429   6.963   2.093  0.7276  0.1495  0.4727
 8297TIP3    H249087   6.310   7.056   2.101  0.0764 -0.5596 -0.6924
 8298TIP3   OH249088   6.873   4.989   7.523  0.0230  0.0044 -0.4420
 8298TIP3    H149089   6.908   4.953   7.605 -0.0683 -0.8734 -0.7824
 8298TIP3    H249090   6.918   5.073   7.514  0.1787  0.0277  0.4088
 8299TIP3   OH249091   2.881   2.718   2.657 -0.4407 -0.5087 -0.3542
 8299TIP3    H149092   2.825   2.653   2.616 -1.1430  1.2631 -2.3988
 8299TIP3    H249093   2.857   2.801   2.615  0.0922  1.1868  2.4308
 8300TIP3   OH249094   0.487   2.248   0.162  0.0010  0.9393  0.3550
 8300TIP3    H149095   0.567   2.236   0.213  0.5098  1.4067 -0.3120
 8300TIP3    H249096   0.508   2.211   0.076 -0.8266  0.2105  0.4606
 8301TIP3   OH249097   3.252   0.328   9.215 -0.2145 -0.1116 -0.0565
 8301TIP3    H149098   3.304   0.317   9.295  0.7174 -0.7661 -0.7456
 8301TIP3    H249099   3.193   0.401   9.236 -0.5455 -0.7705  1.5108
 8302TIP3   OH249100   2.610   3.166   7.417 -0.2526  0.0506  0.1559
 8302TIP3    H149101   2.539   3.173   7.480  0.2201 -1.6661  0.9346
 8302TIP3    H249102   2.590   3.087   7.367 -0.8234  1.5632 -2.1723
 8303TIP3   OH249103   4.914   2.389   2.739 -0.3152  0.3605  0.2076
 8303TIP3    H149104   4.904   2.372   2.832 -0.0285 -0.1539  0.1461
 8303TIP3    H249105   4.954   2.310   2.703  1.2497  1.2051 -0.0386
 8304TIP3   OH249106   7.106   4.176   8.197  0.2798  1.0329  0.1147
 8304TIP3    H149107   7.036   4.136   8.146  0.1679  0.8952  0.3778
 8304TIP3    H249108   7.061   4.225   8.266  0.4662 -0.5610  1.4388
 8305TIP3   OH249109   4.009   3.361   9.467  0.1209  0.0748  0.3326
 8305TIP3    H149110   4.067   3.433   9.493 -0.4892  0.2319  1.2788
 8305TIP3    H249111   3.924   3.402   9.455 -0.4040 -0.5871  1.6078
 8306TIP3   OH249112   7.110   6.243   2.047  0.5406 -0.5005 -0.1620
 8306TIP3    H149113   7.112   6.177   2.117 -1.4051  0.1568  0.5783
 8306TIP3    H249114   7.185   6.299   2.065  1.3546 -1.6203  0.0783
 8307TIP3   OH249115   6.166   6.669   2.727 -0.0021 -0.1843  0.4724
 8307TIP3    H149116   6.169   6.719   2.809 -0.0372  0.2304  0.2198
 8307TIP3    H249117   6.092   6.609   2.739  0.0563 -0.1997  0.7855
 8308TIP3   OH249118   3.170   3.260   7.499  0.3199  0.1965 -0.4658
 8308TIP3    H149119   3.094   3.275   7.556  0.6481 -0.1695  0.0760
 8308TIP3    H249120   3.134   3.265   7.410 -0.5618 -1.0269 -0.2074
 8309TIP3   OH249121   7.206   7.363   7.736  0.0236 -0.2623  0.1174
 8309TIP3    H149122   7.219   7.269   7.749  0.0476 -0.7768 -2.9896
 8309TIP3    H249123   7.295   7.398   7.726  0.0355  0.2143  1.5564
 8310TIP3   OH249124   4.217   6.718   2.685  0.5112  0.5305  0.0187
 8310TIP3    H149125   4.180   6.644   2.638  3.0023  0.3450 -1.9063
 8310TIP3    H249126   4.142   6.764   2.721 -1.2820 -1.5332 -0.8484
 8311TIP3   OH249127   2.123   7.183   9.657 -0.0673 -0.3044 -0.4251
 8311TIP3    H149128   2.161   7.268   9.632 -0.7880  0.8030  1.8829
 8311TIP3    H249129   2.030   7.192   9.638 -0.0864 -0.7375 -0.5409
 8312TIP3   OH249130   0.633   2.926   0.176  0.1713 -0.9670  0.3470
 8312TIP3    H149131   0.637   2.848   0.231  0.5443 -1.7413 -0.7387
 8312TIP3    H249132   0.551   2.969   0.201 -0.2318 -1.9163  0.6848
 8313TIP3   OH249133   7.148   4.450   7.839 -0.1098  0.0622  0.4652
 8313TIP3    H149134   7.134   4.460   7.933  1.6538  0.4709  0.7111
 8313TIP3    H249135   7.083   4.386   7.812 -1.5190  0.8855  1.7100
 8314TIP3   OH249136   2.560   1.396   0.145 -0.0722 -0.5995  0.1569
 8314TIP3    H149137   2.598   1.427   0.063  2.3134 -0.6319  1.1807
 8314TIP3    H249138   2.475   1.441   0.150  1.6418  3.0499 -0.1906
 8315TIP3   OH249139   7.449   3.017   7.630  0.2753  0.0808  0.0556
 8315TIP3    H149140   7.399   3.089   7.593  1.0626  0.8350  0.4046
 8315TIP3    H249141   7.503   3.058   7.698  0.5197 -0.8885  0.4660
 8316TIP3   OH249142   3.388   3.320   9.355 -0.1074 -0.1798  0.1054
 8316TIP3    H149143   3.381   3.397   9.411  1.0808  0.4445 -0.5567
 8316TIP3    H249144   3.300   3.307   9.322 -0.1724  1.4880 -0.5029
 8317TIP3   OH249145   0.669   5.946   0.921  0.1946 -0.1237  0.5370
 8317TIP3    H149146   0.663   5.965   1.015 -1.3857 -0.3016  0.4910
 8317TIP3    H249147   0.619   5.865   0.909 -1.3622  0.9647 -0.7425
 8318TIP3   OH249148   1.911   4.357   1.435  0.1308  0.5230 -0.4784
 8318TIP3    H149149   1.960   4.365   1.354 -0.4175  0.4462 -0.8182
 8318TIP3    H249150   1.908   4.446   1.471  1.0138  0.4358 -0.1551
 8319TIP3   OH249151   6.566   5.480   7.453  0.1027 -0.7545  0.3641
 8319TIP3    H149152   6.481   5.435   7.459 -0.0250 -0.6100 -0.2685
 8319TIP3    H249153   6.589   5.499   7.543 -1.6393  1.2619  0.4699
 8320TIP3   OH249154   7.107   1.778   1.833  0.0728  0.0057 -0.0794
 8320TIP3    H149155   7.195   1.815   1.840  0.4473 -0.6347 -1.0833
 8320TIP3    H249156   7.074   1.809   1.749 -0.5369 -0.0139  0.1477
 8321TIP3   OH249157   3.803   2.867   8.151 -0.6455  0.4408 -0.0159
 8321TIP3    H149158   3.772   2.777   8.155  0.1511  0.1505 -0.2200
 8321TIP3    H249159   3.733   2.918   8.190 -1.4545 -0.1736 -0.6393
 8322TIP3   OH249160   4.627   3.763   7.671 -0.1068 -0.1117  0.1216
 8322TIP3    H149161   4.544   3.786   7.714 -1.0442 -1.2949 -0.9523
 8322TIP3    H249162   4.657   3.686   7.720  1.1598  1.1542  1.4322
 8323TIP3   OH249163   0.690   5.993   1.185 -0.8365  0.0097  0.2993
 8323TIP3    H149164   0.749   6.008   1.259 -1.2373  0.5683  0.5106
 8323TIP3    H249165   0.631   6.068   1.186 -0.6319  0.2015 -0.7998
 8324TIP3   OH249166   7.340   2.767   7.100  0.0125  0.1568 -0.3701
 8324TIP3    H149167   7.284   2.702   7.143  1.0815 -0.4363  0.1736
 8324TIP3    H249168   7.280   2.833   7.067 -1.0835 -0.9765 -0.7020
 8325TIP3   OH249169   0.735   1.148   0.952 -0.7744  0.1646 -0.1559
 8325TIP3    H149170   0.723   1.056   0.972 -1.4936  0.5049  1.0729
 8325TIP3    H249171   0.812   1.151   0.895 -1.2517 -1.2585 -0.9084
 8326TIP3   OH249172   6.707   2.280   9.583 -0.3042  0.0805  0.1066
 8326TIP3    H149173   6.717   2.237   9.498 -0.8413 -0.1113  0.1369
 8326TIP3    H249174   6.787   2.259   9.630  0.2896  0.7378 -0.5931
 8327TIP3   OH249175   3.332   5.166   7.530  0.5667 -0.1058  0.2066
 8327TIP3    H149176   3.426   5.149   7.523  0.2082 -1.5205 -2.2836
 8327TIP3    H249177   3.319   5.244   7.476  0.0987 -0.9848 -0.9899
 8328TIP3   OH249178   4.572   3.296   9.065  0.0495  0.1273 -0.2499
 8328TIP3    H149179   4.663   3.284   9.040  0.9647 -0.1513  2.7850
 8328TIP3    H249180   4.531   3.335   8.988  2.9181  1.1625 -1.3963
 8329TIP3   OH249181   0.288   0.682   0.418 -0.2240 -0.3360  0.0918
 8329TIP3    H149182   0.285   0.586   0.416  0.5953 -0.3621 -0.0855
 8329TIP3    H249183   0.338   0.702   0.497 -1.7805 -0.0103  1.0365
 8330TIP3   OH249184   6.441   0.922   1.080 -0.5050  0.0337  0.0315
 8330TIP3    H149185   6.532   0.930   1.055  0.0165 -2.4211  0.8268
 8330TIP3    H249186   6.436   0.964   1.166 -0.3849  1.0743 -0.4585
 8331TIP3   OH249187   0.872   3.764   1.839 -0.0377 -0.3077 -0.4974
 8331TIP3    H149188   0.839   3.685   1.883 -1.6490 -0.0514 -1.1450
 8331TIP3    H249189   0.887   3.826   1.910  0.9373 -1.0797 -0.0065
 8332TIP3   OH249190   1.519   5.478   8.833  0.3387  0.7173 -0.0809
 8332TIP3    H149191   1.514   5.386   8.858  2.1674  1.5374  4.2295
 8332TIP3    H249192   1.608   5.489   8.799  0.4605  1.0168  0.3178
 8333TIP3   OH249193   0.039   6.534   9.353  0.2583 -0.4171  0.1298
 8333TIP3    H149194   0.081   6.480   9.286  1.5965 -0.4516  0.9553
 8333TIP3    H249195   0.040   6.480   9.431 -2.5025 -0.9007 -0.0755
 8334TIP3   OH249196   4.510   6.842   9.396  0.0114 -0.0981 -0.1340
 8334TIP3    H149197   4.424   6.801   9.394 -0.0955 -0.1715  2.4199
 8334TIP3    H249198   4.529   6.855   9.489  1.3076  2.9968 -0.6786
 8335TIP3   OH249199   2.518   1.215   8.960  0.1174 -0.1285 -0.0072
 8335TIP3    H149200   2.603   1.197   8.919  0.6568  1.2134  0.4613
 8335TIP3    H249201   2.460   1.147   8.926  1.1105 -0.4288 -1.1809
 8336TIP3   OH249202   4.120   4.016   9.222 -0.1408 -0.0345 -0.3141
 8336TIP3    H149203   4.206   4.024   9.264  0.2544  1.7149 -1.3492
 8336TIP3    H249204   4.128   4.066   9.142 -1.7184 -1.0464 -1.1580
 8337TIP3   OH249205   6.454   0.644   1.500  0.6751  0.1879 -0.4570
 8337TIP3    H149206   6.376   0.611   1.455 -0.0515  2.3737 -0.9078
 8337TIP3    H249207   6.420   0.697   1.572  1.7649  0.4814 -0.1387
 8338TIP3   OH249208   6.848   5.881   8.225  0.0530 -0.2399 -0.3375
 8338TIP3    H149209   6.900   5.805   8.199  1.4145  0.1181  1.1904
 8338TIP3    H249210   6.854   5.883   8.320 -1.0998  1.0151 -0.2574
 8339TIP3   OH249211   3.873   2.118   2.760  0.5797  0.2286  0.0673
 8339TIP3    H149212   3.947   2.157   2.806  0.5794 -0.5767  0.7547
 8339TIP3    H249213   3.913   2.050   2.705  0.3306 -0.3809  0.6329
 8340TIP3   OH249214   7.391   2.925   8.108  0.1473  0.0208  0.5695
 8340TIP3    H149215   7.300   2.952   8.124  0.6550  2.0490  0.3736
 8340TIP3    H249216   7.438   2.955   8.186  0.7700 -0.3014  0.3155
 8341TIP3   OH249217   0.429   0.961   2.728  0.2873 -0.2983 -0.4500
 8341TIP3    H149218   0.374   0.927   2.799  1.8964 -1.6450  0.2294
 8341TIP3    H249219   0.443   1.053   2.750 -0.9908 -0.1380 -0.2143
 8342TIP3   OH249220   3.528   6.480   9.488  0.0477 -0.2420  0.0354
 8342TIP3    H149221   3.539   6.459   9.581 -0.5636 -2.1596 -0.2810
 8342TIP3    H249222   3.600   6.433   9.445 -1.2737 -1.6687 -0.6995
 8343TIP3   OH249223   4.198   4.057   9.716 -0.6503  0.2927  0.8636
 8343TIP3    H149224   4.125   4.108   9.752  0.5983  1.9048  1.2037
 8343TIP3    H249225   4.230   4.110   9.643 -1.6977 -1.8364 -1.3052
 8344TIP3   OH249226   1.636   4.329   7.620  0.2611  0.6223 -0.6698
 8344TIP3    H149227   1.649   4.415   7.580 -0.8894  0.5948 -1.1507
 8344TIP3    H249228   1.555   4.297   7.580 -1.1360  0.6922  1.8897
 8345TIP3   OH249229   0.626   7.679   9.786 -0.0162  0.1785 -0.3515
 8345TIP3    H149230   0.703   7.635   9.751  0.1975 -1.7448  2.1906
 8345TIP3    H249231   0.552   7.627   9.755 -0.0665  0.2892 -0.4181
 8346TIP3   OH249232   3.017   3.491   1.801  0.3545 -0.0514  0.3597
 8346TIP3    H149233   3.027   3.556   1.870 -0.6059 -0.2318  0.6871
 8346TIP3    H249234   2.965   3.421   1.842 -1.2892  0.3901 -0.8851
 8347TIP3   OH249235   3.671   0.641   1.005 -0.0350  0.1442  0.3801
 8347TIP3    H149236   3.613   0.681   0.940  0.1807 -0.7416 -0.3884
 8347TIP3    H249237   3.622   0.564   1.035  0.8596 -0.8286 -0.5539
 8348TIP3   OH249238   1.693   6.812   9.363 -0.3989 -0.4509 -0.2655
 8348TIP3    H149239   1.667   6.863   9.286 -1.7996  1.0758  1.1473
 8348TIP3    H249240   1.612   6.769   9.391 -0.0233 -0.5738  0.6612
 8349TIP3   OH249241   6.492   2.444   7.965  0.2822  0.0230  0.2481
 8349TIP3    H149242   6.537   2.469   7.885  0.8503 -0.5869  0.3681
 8349TIP3    H249243   6.459   2.356   7.948 -2.0674  0.9317 -0.3259
 8350TIP3   OH249244   5.822   2.804   0.126  0.7140 -0.3355 -0.0429
 8350TIP3    H149245   5.873   2.880   0.097 -0.3560 -0.0712 -1.3458
 8350TIP3    H249246   5.738   2.841   0.152  0.7677 -0.8956  0.9838
 8351TIP3   OH249247   7.228   0.591   9.689 -0.2120 -0.3341 -0.0549
 8351TIP3    H149248   7.225   0.667   9.632  0.1164 -0.3119 -0.0452
 8351TIP3    H249249   7.268   0.522   9.635 -0.0243 -0.3500  0.1010
 8352TIP3   OH249250   7.623   1.385   0.584 -0.4472 -0.0607  0.1072
 8352TIP3    H149251   7.577   1.370   0.501 -0.4471  0.2209  0.0532
 8352TIP3    H249252   7.627   1.481   0.591  3.7756  0.1455 -1.9524
 8353TIP3   OH249253   7.537   1.644   1.589 -0.1180 -0.7708  0.5934
 8353TIP3    H149254   7.621   1.679   1.618  0.7847 -3.2337  1.1631
 8353TIP3    H249255   7.481   1.721   1.580  3.5008  1.7810 -4.9041
 8354TIP3   OH249256   0.146   6.578   0.264  0.7435  0.3328  0.2851
 8354TIP3    H149257   0.060   6.546   0.237 -0.7120 -0.3156  4.8445
 8354TIP3    H249258   0.198   6.498   0.276  1.6224  0.6511 -1.1513
 8355TIP3   OH249259   0.799   7.664   9.574 -0.5392 -1.1369 -0.7251
 8355TIP3    H149260   0.716   7.672   9.527 -0.3217  1.1040 -0.8549
 8355TIP3    H249261   0.858   7.621   9.511 -0.8414 -0.1367 -1.7254
 8356TIP3   OH249262   4.270   5.065   9.254  0.7912  0.2385  0.0240
 8356TIP3    H149263   4.226   5.139   9.213  1.6413  0.0668 -1.2688
 8356TIP3    H249264   4.364   5.085   9.247  1.0376 -0.9637 -0.3894
 8357TIP3   OH249265   3.056   4.465   8.840  0.0559  0.1652  0.3474
 8357TIP3    H149266   2.970   4.505   8.846 -0.6176 -1.0612 -0.6664
 8357TIP3    H249267   3.077   4.439   8.930 -1.2459 -0.7200  0.4263
 8358TIP3   OH249268   4.725   7.656   8.794  0.5117  0.2891  0.1130
 8358TIP3    H149269   4.782   7.732   8.802  1.3563 -0.1305 -1.4278
 8358TIP3    H249270   4.735   7.610   8.878  0.5041  1.5005  0.8035
 8359TIP3   OH249271   5.680   2.077   1.373 -0.4886 -0.0023 -0.2732
 8359TIP3    H149272   5.741   2.057   1.445 -2.3847 -2.1352  0.8613
 8359TIP3    H249273   5.620   2.142   1.410 -0.0228  0.7216 -0.7709
 8360TIP3   OH249274   1.015   1.164   8.583 -0.3328  0.1733  0.8674
 8360TIP3    H149275   0.949   1.101   8.611  0.4026 -0.9997  0.0704
 8360TIP3    H249276   0.966   1.235   8.543 -1.1224 -1.8822 -2.1775
 8361TIP3   OH249277   1.818   3.125   2.229  0.3561 -0.3601 -0.3911
 8361TIP3    H149278   1.854   3.211   2.205 -0.5928 -0.4070 -2.0885
 8361TIP3    H249279   1.891   3.080   2.271  1.5603  0.4546 -1.5201
 8362TIP3   OH249280   3.505   5.493   9.584 -0.1258 -0.4111  0.2156
 8362TIP3    H149281   3.527   5.401   9.597 -0.3962 -0.3399  1.3222
 8362TIP3    H249282   3.433   5.492   9.522 -1.8023 -1.1612  2.0563
 8363TIP3   OH249283   1.183   4.266   7.004 -0.0121 -0.3334  0.4139
 8363TIP3    H149284   1.275   4.264   7.027  0.1556 -0.7381 -0.2806
 8363TIP3    H249285   1.148   4.343   7.050  0.6559 -0.2024  0.7018
 8364TIP3   OH249286   7.004   6.218   2.841  0.0338  0.0491  0.3041
 8364TIP3    H149287   7.035   6.132   2.812  0.3384  0.3341 -0.2444
 8364TIP3    H249288   7.033   6.225   2.932 -1.1739 -0.9848  0.8026
 8365TIP3   OH249289   0.480   5.716   0.887  0.3935  0.6774 -0.3920
 8365TIP3    H149290   0.448   5.781   0.825  1.0827  0.0023 -1.5063
 8365TIP3    H249291   0.493   5.637   0.834 -1.2608 -0.6678  1.0795
 8366TIP3   OH249292   0.381   5.134   0.020  0.4912  0.6177  0.3804
 8366TIP3    H149293   0.289   5.152  -0.001  0.1758 -0.7632  0.4506
 8366TIP3    H249294   0.428   5.210  -0.013 -0.6546  1.2722  0.1726
 8367TIP3   OH249295   1.780   4.413   9.487  0.2518 -0.2207 -0.2560
 8367TIP3    H149296   1.840   4.423   9.560 -2.1465 -0.4617  1.9093
 8367TIP3    H249297   1.789   4.321   9.460  0.9364 -0.2168 -0.0408
 8368TIP3   OH249298   5.481   2.357   2.670 -0.0295  0.3026  0.7439
 8368TIP3    H149299   5.568   2.393   2.683  0.3771 -1.0344  2.0367
 8368TIP3    H249300   5.423   2.414   2.719  0.6166 -0.7605  2.8644
 8369TIP3   OH249301   6.130   0.511   9.556 -0.6607  0.2006  0.1544
 8369TIP3    H149302   6.226   0.501   9.560 -0.6149  0.5494  0.0033
 8369TIP3    H249303   6.108   0.559   9.635 -0.4928  1.6514 -0.6320
 8370TIP3   OH249304   2.915   3.271   2.613 -0.0208 -0.5083 -0.0368
 8370TIP3    H149305   2.952   3.214   2.680 -2.1718 -0.1504  1.5937
 8370TIP3    H249306   2.847   3.218   2.571  0.7466 -0.4539 -1.4163
 8371TIP3   OH249307   4.115   7.466   6.816 -0.0685 -0.1614 -0.2564
 8371TIP3    H149308   4.023   7.493   6.806  0.0729  0.3356 -0.2764
 8371TIP3    H249309   4.111   7.378   6.853 -0.5809  0.9974  2.7392
 8372TIP3   OH249310   0.493   2.752   9.989  0.1720  0.0028  0.4244
 8372TIP3    H149311   0.519   2.674   9.940  0.6275 -0.3981  1.2800
 8372TIP3    H249312   0.521   2.734  10.079 -0.0880  0.9831  0.7100
 8373TIP3   OH249313   5.122   6.970   7.294 -0.0790  0.4460  0.1892
 8373TIP3    H149314   5.028   6.982   7.278 -0.2598 -0.3252  0.6451
 8373TIP3    H249315   5.157   7.059   7.297 -1.0399  0.7998  1.5018
 8374TIP3   OH249316   4.935   3.346   7.835 -0.0897  0.1505  0.0332
 8374TIP3    H149317   5.015   3.399   7.827 -0.6627  0.9779 -0.4375
 8374TIP3    H249318   4.950   3.291   7.912  0.3942  1.2688  0.7682
 8375TIP3   OH249319   0.400   0.347   8.983 -0.0355  0.3512  0.8719
 8375TIP3    H149320   0.375   0.440   8.986 -0.0472  0.5212 -1.7437
 8375TIP3    H249321   0.493   0.349   8.959 -0.0001 -0.3266  0.9585
 8376TIP3   OH249322   1.840   5.672   0.805 -0.1324  0.4191 -0.7498
 8376TIP3    H149323   1.908   5.644   0.744  0.0360  1.1714 -0.9197
 8376TIP3    H249324   1.762   5.683   0.750 -0.7112 -1.5117 -0.3816
 8377TIP3   OH249325   2.746   2.975   0.769 -0.1684 -0.2449  0.4335
 8377TIP3    H149326   2.678   2.946   0.708 -1.6936 -1.3615  2.5384
 8377TIP3    H249327   2.707   3.048   0.816 -0.2004 -1.2333  2.0449
 8378TIP3   OH249328   0.578   0.618   6.976 -0.0651 -0.1215  0.1650
 8378TIP3    H149329   0.638   0.543   6.982 -0.8556 -0.7432  0.4897
 8378TIP3    H249330   0.579   0.642   6.883  0.8438  0.0200  0.1967
 8379TIP3   OH249331   0.181   1.275   2.150  0.3805 -0.4122  0.0573
 8379TIP3    H149332   0.152   1.275   2.241  0.3370  1.1600  0.0734
 8379TIP3    H249333   0.102   1.291   2.099  0.5975 -0.0344 -0.1653
 8380TIP3   OH249334   2.344   0.967   8.541 -0.5666  0.3306 -0.5477
 8380TIP3    H149335   2.333   0.880   8.503 -0.3973 -0.3161  0.8081
 8380TIP3    H249336   2.419   1.004   8.496  0.1127 -0.7184 -0.3183
 8381TIP3   OH249337   1.436   4.596   7.243 -0.0411  0.5168 -0.2788
 8381TIP3    H149338   1.431   4.521   7.184  0.2170 -0.4919  0.9440
 8381TIP3    H249339   1.506   4.650   7.206  0.0165 -0.0094 -0.9687
 8382TIP3   OH249340   5.144   2.113   0.016  0.0011 -0.0912 -0.4390
 8382TIP3    H149341   5.238   2.094   0.017  0.0325  0.0669  0.3749
 8382TIP3    H249342   5.114   2.091   0.104 -0.5568  0.6967 -0.4162
 8383TIP3   OH249343   1.615   2.630   9.478 -0.1047  0.0880 -0.1996
 8383TIP3    H149344   1.706   2.600   9.488 -0.5977 -1.1895  0.7298
 8383TIP3    H249345   1.595   2.615   9.385  0.5825  0.2251 -0.3744
 8384TIP3   OH249346   2.747   4.250   2.477 -0.6232  0.0435  0.0262
 8384TIP3    H149347   2.686   4.319   2.454  0.7446  0.5841 -2.2725
 8384TIP3    H249348   2.829   4.295   2.495 -0.2376 -0.8362  0.5818
 8385TIP3   OH249349   0.729   4.071   1.865 -0.1652 -0.0289 -0.6461
 8385TIP3    H149350   0.763   4.067   1.954 -3.6053 -1.9817  0.7624
 8385TIP3    H249351   0.807   4.073   1.810  2.1262 -0.6970  2.3043
 8386TIP3   OH249352   2.645   3.125   8.811 -0.3358 -0.0231  0.1057
 8386TIP3    H149353   2.663   3.202   8.758 -1.7352  0.2849  0.0447
 8386TIP3    H249354   2.642   3.053   8.749  1.9700 -0.3356  0.2789
 8387TIP3   OH249355   0.603   2.684   7.780 -0.2552 -0.0226  0.4949
 8387TIP3    H149356   0.548   2.651   7.852 -1.7618 -0.3822 -0.7469
 8387TIP3    H249357   0.559   2.764   7.751 -1.5869 -1.5259 -2.0368
 8388TIP3   OH249358   0.974   7.225   9.176  0.1535  0.1521  0.1629
 8388TIP3    H149359   0.960   7.166   9.102 -0.7866  1.0034 -0.3579
 8388TIP3    H249360   0.909   7.294   9.165  0.3061  0.5491  1.5342
 8389TIP3   OH249361   4.115   0.890   1.324  0.0154 -0.0462 -0.0118
 8389TIP3    H149362   4.053   0.937   1.380 -1.4422 -1.0586 -0.7288
 8389TIP3    H249363   4.151   0.822   1.380  0.0593  0.1832  0.2419
 8390TIP3   OH249364   5.234   5.146   7.907 -0.1371  0.2933 -0.3371
 8390TIP3    H149365   5.291   5.083   7.950 -0.2342 -0.3069 -1.0707
 8390TIP3    H249366   5.292   5.217   7.881  0.4361 -0.6589 -1.7593
 8391TIP3   OH249367   0.828   1.046   9.120 -0.0440  0.0430 -0.5509
 8391TIP3    H149368   0.859   1.110   9.185 -0.9798 -0.2076  0.1610
 8391TIP3    H249369   0.737   1.071   9.103 -0.8705 -1.8776  0.7642
 8392TIP3   OH249370   1.562   3.347   8.939  0.9445 -0.6242  0.4226
 8392TIP3    H149371   1.575   3.378   9.028 -0.3914 -1.5293  0.9643
 8392TIP3    H249372   1.642   3.372   8.893  1.5824  0.0158  1.8161
 8393TIP3   OH249373   3.798   2.460   9.467 -0.3632 -0.2459 -0.0265
 8393TIP3    H149374   3.765   2.391   9.525 -0.7544 -0.1437 -0.1220
 8393TIP3    H249375   3.820   2.415   9.386  0.6542 -0.4695  0.3597
 8394TIP3   OH249376   5.952   4.124   8.411 -0.2927 -0.1170 -0.0704
 8394TIP3    H149377   5.879   4.186   8.422  0.5654  0.6763  1.5620
 8394TIP3    H249378   5.979   4.135   8.320 -0.4133  1.6449  0.0736
 8395TIP3   OH249379   4.264   1.744   9.745  0.3076 -0.0148  0.0923
 8395TIP3    H149380   4.250   1.806   9.816 -1.8616 -0.7911  0.4325
 8395TIP3    H249381   4.232   1.790   9.667 -2.3043 -0.9796  0.5069
 8396TIP3   OH249382   5.618   1.373   7.401  0.0135  0.0193  0.6555
 8396TIP3    H149383   5.556   1.411   7.464 -3.0152 -3.7925  0.3562
 8396TIP3    H249384   5.672   1.314   7.454 -0.1039 -0.5199  0.1707
 8397TIP3   OH249385   6.097   5.459   9.608  0.4398  0.4024 -0.3249
 8397TIP3    H149386   6.054   5.506   9.537 -0.6469  0.1899  0.1652
 8397TIP3    H249387   6.030   5.398   9.641  1.6957 -1.2860 -0.7325
 8398TIP3   OH249388   5.884   1.950   7.408  0.0461 -0.0675  0.0949
 8398TIP3    H149389   5.884   1.973   7.315  0.5168  1.3931  0.4237
 8398TIP3    H249390   5.798   1.912   7.424  0.5079 -1.7435 -1.2501
 8399TIP3   OH249391   4.159   0.474   9.394  0.0790 -0.2428  0.4358
 8399TIP3    H149392   4.197   0.553   9.358 -0.3699 -0.4621 -0.5613
 8399TIP3    H249393   4.189   0.404   9.335 -0.7250 -0.5992  0.4378
 8400TIP3   OH249394   3.632   3.974   0.018 -0.6622  0.5916  0.1222
 8400TIP3    H149395   3.609   3.893  -0.027  0.5515 -0.8192  1.8703
 8400TIP3    H249396   3.727   3.966   0.034 -0.6533  2.0105  0.9764
 8401TIP3   OH249397   1.486   5.596   1.676 -0.5404  0.2109  0.5367
 8401TIP3    H149398   1.462   5.564   1.763 -2.8425  0.6248  0.1156
 8401TIP3    H249399   1.408   5.581   1.623  1.3364 -1.5849 -1.9473
 8402TIP3   OH249400   7.281   2.065   7.762 -0.3800 -0.0480  0.0068
 8402TIP3    H149401   7.340   2.136   7.787  0.8188 -1.4686  1.5105
 8402TIP3    H249402   7.201   2.108   7.733  1.1299  1.9495 -1.4606
 8403TIP3   OH249403   6.397   1.941   9.844  0.0687  0.0577 -0.7141
 8403TIP3    H149404   6.358   2.028   9.854  0.3295  0.0683  0.4123
 8403TIP3    H249405   6.328   1.888   9.804 -0.3103  0.6296 -0.8278
 8404TIP3   OH249406   2.534   0.924   0.307 -0.2277 -0.0225 -0.4744
 8404TIP3    H149407   2.524   0.862   0.234 -0.7890 -0.7024  0.1687
 8404TIP3    H249408   2.571   0.872   0.377 -2.7114 -0.2142  0.8070
 8405TIP3   OH249409   1.430   5.355   2.526  0.6923 -0.4961  0.2932
 8405TIP3    H149410   1.391   5.340   2.612 -1.1600 -1.1609 -0.6050
 8405TIP3    H249411   1.524   5.341   2.539  0.7255  1.3036  2.5945
 8406TIP3   OH249412   6.624   3.124   0.124 -0.2065  0.1105  0.2389
 8406TIP3    H149413   6.632   3.158   0.213  0.2999 -0.2756  0.3507
 8406TIP3    H249414   6.674   3.185   0.070  2.4887 -1.5062  0.7306
 8407TIP3   OH249415   0.167   5.123   1.084 -0.1115  0.0358 -0.4886
 8407TIP3    H149416   0.251   5.097   1.121 -0.7759 -1.6361 -0.0672
 8407TIP3    H249417   0.156   5.068   1.007 -0.7511  0.3283 -0.6150
 8408TIP3   OH249418   3.819   5.310   7.719  0.6394 -0.6151 -0.0088
 8408TIP3    H149419   3.792   5.272   7.803  0.1539 -0.1457  0.0556
 8408TIP3    H249420   3.736   5.333   7.676  0.9188  0.1884 -0.1263
 8409TIP3   OH249421   0.707   0.684   3.129 -0.0835  0.3516  0.0626
 8409TIP3    H149422   0.738   0.770   3.099  0.6729  0.2856  0.6222
 8409TIP3    H249423   0.612   0.689   3.121 -0.0447  1.2135  0.0032
 8410TIP3   OH249424   1.115   3.829   8.938  0.0855  0.1426  0.0163
 8410TIP3    H149425   1.150   3.766   8.875 -1.8500 -0.7569 -0.2260
 8410TIP3    H249426   1.120   3.913   8.893  1.5173 -0.0048 -0.1503
 8411TIP3   OH249427   7.412   4.054   2.391  0.0242  0.0978 -0.1094
 8411TIP3    H149428   7.320   4.037   2.369 -0.0795 -0.5095  0.7378
 8411TIP3    H249429   7.441   4.117   2.326 -0.4699 -1.0644 -1.5020
 8412TIP3   OH249430   6.095   2.511   1.650 -0.6512  0.4242 -0.5569
 8412TIP3    H149431   6.034   2.481   1.717 -2.1492  1.7285 -1.2928
 8412TIP3    H249432   6.065   2.469   1.569 -0.2102  0.6262 -0.8308
 8413TIP3   OH249433   3.946   5.718   1.015  0.0811  0.0710  0.4239
 8413TIP3    H149434   3.912   5.653   1.077 -0.2019  1.8127  2.1698
 8413TIP3    H249435   4.008   5.770   1.065 -0.7806  2.0919 -0.4772
 8414TIP3   OH249436   4.010   6.706   8.257  0.0595 -1.1337  0.3709
 8414TIP3    H149437   3.942   6.765   8.290 -0.3454 -1.4764  0.1542
 8414TIP3    H249438   4.005   6.715   8.162  0.6294 -0.8174  0.3666
 8415TIP3   OH249439   6.918   7.590   9.476 -0.1339 -0.1243 -0.0647
 8415TIP3    H149440   6.983   7.649   9.437  0.4650 -1.5803 -1.3927
 8415TIP3    H249441   6.835   7.637   9.470  0.3695  0.6874 -0.8164
 8416TIP3   OH249442   5.007   6.937   1.625  0.3494  0.2183  0.2794
 8416TIP3    H149443   5.103   6.930   1.627  0.3477  0.3792  1.6543
 8416TIP3    H249444   4.986   7.001   1.693 -0.8229 -1.0699  1.1858
 8417TIP3   OH249445   1.361   5.720   9.424 -0.5135  0.1296 -0.2433
 8417TIP3    H149446   1.313   5.786   9.375  0.2624 -0.2024 -1.5081
 8417TIP3    H249447   1.453   5.738   9.406 -0.0884  0.9278  2.3568
 8418TIP3   OH249448   0.809   7.542   1.996 -0.2807  0.1887 -0.4496
 8418TIP3    H149449   0.856   7.458   1.991 -2.3487 -1.0095 -1.1965
 8418TIP3    H249450   0.727   7.526   1.950 -2.1209  1.6775  2.0450
 8419TIP3   OH249451   3.158   0.197   1.763  0.2234  0.0032 -0.2897
 8419TIP3    H149452   3.167   0.270   1.824 -0.8963  0.0071 -0.1044
 8419TIP3    H249453   3.213   0.128   1.801  0.0647  0.2324  0.3823
 8420TIP3   OH249454   1.990   4.061   1.896 -0.1614  0.2473 -0.6608
 8420TIP3    H149455   1.972   3.968   1.914 -0.8066  0.4937  0.0295
 8420TIP3    H249456   1.971   4.071   1.803 -1.1861 -0.0720 -0.4967
 8421TIP3   OH249457   7.017   0.523   0.794  0.2507  0.5789  0.0599
 8421TIP3    H149458   7.011   0.428   0.777 -0.6156  0.6542 -0.0705
 8421TIP3    H249459   7.088   0.552   0.736 -0.5150  0.2667 -1.0618
 8422TIP3   OH249460   2.398   3.056   3.411 -0.1105 -0.1877 -0.4768
 8422TIP3    H149461   2.475   3.102   3.377 -0.3911  0.0424 -0.8149
 8422TIP3    H249462   2.397   2.973   3.364  0.2394 -0.4256 -0.0700
 8423TIP3   OH249463   2.696   4.322   1.127 -0.2216 -0.4244  0.0855
 8423TIP3    H149464   2.660   4.256   1.068  1.8585 -1.0312 -0.5964
 8423TIP3    H249465   2.631   4.393   1.127 -1.3242 -1.4001 -1.1300
 8424TIP3   OH249466   2.257   2.866   1.223  0.1666  0.1356 -0.0786
 8424TIP3    H149467   2.280   2.789   1.170 -2.1144  0.6856 -2.0219
 8424TIP3    H249468   2.169   2.847   1.255 -0.0660  1.5635  0.1773
 8425TIP3   OH249469   6.936   7.163   0.785 -0.1876  0.0434  0.7584
 8425TIP3    H149470   6.976   7.136   0.703  2.1958  0.3399  1.7407
 8425TIP3    H249471   6.909   7.254   0.771 -0.6895 -0.2094  0.0330
 8426TIP3   OH249472   5.597   0.614   1.975 -0.0308  0.1716  0.1351
 8426TIP3    H149473   5.606   0.543   2.038  1.0377  0.3909  0.2558
 8426TIP3    H249474   5.623   0.576   1.892  0.4835  0.3947  0.1887
 8427TIP3   OH249475   1.169   2.674   0.795 -0.1282 -0.5465  0.1878
 8427TIP3    H149476   1.144   2.583   0.777 -0.6564 -0.4204  0.2667
 8427TIP3    H249477   1.178   2.678   0.890  0.2019 -0.5903  0.1600
 8428TIP3   OH249478   2.464   6.759   0.960  0.2705  0.0524 -0.0423
 8428TIP3    H149479   2.509   6.724   1.037 -0.3725  0.1859  0.4063
 8428TIP3    H249480   2.389   6.700   0.948  0.0250  0.3920 -0.1858
 8429TIP3   OH249481   6.460   1.759   7.536 -0.5546  0.3154 -0.1141
 8429TIP3    H149482   6.530   1.815   7.502 -0.8409 -0.0757 -1.4388
 8429TIP3    H249483   6.379   1.799   7.503 -0.9174  0.3984  0.8511
 8430TIP3   OH249484   2.482   2.942   9.583 -0.2644 -0.1044 -0.3409
 8430TIP3    H149485   2.435   2.923   9.502 -0.8014 -0.3622  0.0299
 8430TIP3    H249486   2.562   2.889   9.577 -0.2576 -0.0528 -0.7412
 8431TIP3   OH249487   0.948   4.776   1.780 -0.2088 -0.2452 -0.1396
 8431TIP3    H149488   0.856   4.764   1.806 -0.1281  2.1418  1.5827
 8431TIP3    H249489   0.945   4.846   1.715  0.4385  0.0326  0.1312
 8432TIP3   OH249490   2.140   0.807   0.409 -0.0799 -0.2731 -0.4988
 8432TIP3    H149491   2.215   0.764   0.450  1.4290  1.3494 -1.3989
 8432TIP3    H249492   2.169   0.824   0.319 -2.2736 -1.3049 -1.4686
 8433TIP3   OH249493   4.564   0.473   8.422  0.6018 -0.2068 -0.1027
 8433TIP3    H149494   4.615   0.522   8.358  0.6046  0.0896  0.1225
 8433TIP3    H249495   4.487   0.443   8.374 -0.7764  2.2898  0.3691
 8434TIP3   OH249496   4.346   3.428   9.616 -0.5378 -1.2282 -0.1488
 8434TIP3    H149497   4.397   3.459   9.542  0.4290  0.4265  1.1267
 8434TIP3    H249498   4.356   3.333   9.615  2.4654 -1.0043 -0.0911
 8435TIP3   OH249499   4.702   7.105   1.376 -1.0670  0.1294 -0.1802
 8435TIP3    H149500   4.787   7.067   1.352 -0.3796  1.3390  0.2270
 8435TIP3    H249501   4.653   7.108   1.293 -1.0153 -1.2607 -0.2861
 8436TIP3   OH249502   7.215   7.251   7.351  0.3641  0.7121 -0.8054
 8436TIP3    H149503   7.303   7.283   7.330  1.8192 -0.0958  3.1491
 8436TIP3    H249504   7.175   7.321   7.403 -0.8122  0.4838 -1.3630
 8437TIP3   OH249505   5.904   1.953   0.148 -0.0550  0.3740 -0.2244
 8437TIP3    H149506   5.829   2.006   0.123 -0.0695  0.3246 -0.2862
 8437TIP3    H249507   5.952   1.938   0.067  0.1565  0.6149 -0.1443
 8438TIP3   OH249508   2.049   6.217   8.936 -0.0827  0.5282  0.1416
 8438TIP3    H149509   2.090   6.224   9.022  3.1579  2.7373 -1.3717
 8438TIP3    H249510   2.114   6.173   8.882  0.1678  3.4709 -2.2151
 8439TIP3   OH249511   1.375   5.751   8.124 -0.3541 -0.0932  0.2693
 8439TIP3    H149512   1.290   5.769   8.085  0.1317  0.0732 -0.7565
 8439TIP3    H249513   1.375   5.656   8.139 -0.8151 -0.0541  0.5038
 8440TIP3   OH249514   6.557   0.115   0.818 -0.8178  0.5650  0.1646
 8440TIP3    H149515   6.471   0.134   0.781  0.2064  2.5852 -1.3358
 8440TIP3    H249516   6.552   0.022   0.843 -2.7308  0.0319 -1.8789
 8441TIP3   OH249517   1.167   0.721   2.595 -0.3190  0.0019 -0.8858
 8441TIP3    H149518   1.205   0.753   2.678  1.0876 -0.1803 -1.4355
 8441TIP3    H249519   1.091   0.669   2.622 -0.3696  0.6209  0.2409
 8442TIP3   OH249520   3.182   5.819   2.516  0.2313  0.3559 -0.2615
 8442TIP3    H149521   3.230   5.897   2.487  0.5322 -0.0148 -0.7719
 8442TIP3    H249522   3.179   5.827   2.611  1.2613  0.4042 -0.2249
 8443TIP3   OH249523   6.364   1.114   7.322  0.7795 -0.1275  0.2725
 8443TIP3    H149524   6.342   1.065   7.243  1.0045 -1.5582  1.0685
 8443TIP3    H249525   6.433   1.175   7.295  0.9549 -0.7032 -0.6024
 8444TIP3   OH249526   1.964   6.531   9.704  1.0859  0.1684 -0.2123
 8444TIP3    H149527   1.936   6.542   9.613 -0.8925  0.6008  0.3977
 8444TIP3    H249528   1.970   6.436   9.717  0.8720  0.0942 -0.6586
 8445TIP3   OH249529   1.713   7.151   8.670 -0.2484 -0.1301 -0.1570
 8445TIP3    H149530   1.773   7.179   8.739  1.1173 -2.3191 -0.3645
 8445TIP3    H249531   1.744   7.196   8.591  0.3122 -0.2329  0.0006
 8446TIP3   OH249532   0.505   2.936   7.712  0.0063 -0.7149 -0.6128
 8446TIP3    H149533   0.518   2.902   7.623 -0.0523  0.4315 -1.0663
 8446TIP3    H249534   0.424   2.986   7.708  1.3455  1.5894 -0.6154
 8447TIP3   OH249535   0.616   2.615   1.405  0.0841 -0.0408 -0.3888
 8447TIP3    H149536   0.540   2.602   1.461  0.6968  0.8334  0.6730
 8447TIP3    H249537   0.687   2.639   1.465  0.5031  1.9924 -1.6245
 8448TIP3   OH249538   0.662   1.579   8.077  0.1560 -0.5203  0.3271
 8448TIP3    H149539   0.600   1.562   8.006 -0.2040 -0.1531  0.5506
 8448TIP3    H249540   0.675   1.674   8.075 -0.2900 -0.4344  1.1080
 8449TIP3   OH249541   4.870   7.156   0.925 -0.4698  0.0733  0.5274
 8449TIP3    H149542   4.928   7.099   0.875 -0.2288 -0.4342  1.3679
 8449TIP3    H249543   4.919   7.176   1.005 -1.3661 -0.2276  1.1709
 8450TIP3   OH249544   1.644   0.205   9.472  0.3172 -0.1858  0.1769
 8450TIP3    H149545   1.643   0.282   9.528 -0.0755  0.1048 -0.2298
 8450TIP3    H249546   1.555   0.198   9.438 -0.0816 -1.6843  1.3902
 8451TIP3   OH249547   2.360   1.972   8.532 -1.3391  0.2188  0.4196
 8451TIP3    H149548   2.366   2.051   8.587 -2.0847  0.3888  0.2674
 8451TIP3    H249549   2.381   2.003   8.444  0.7158 -0.2151  0.7037
 8452TIP3   OH249550   2.229   6.020   8.828  0.3234  0.5000  0.0369
 8452TIP3    H149551   2.198   5.955   8.891  0.5927 -0.8534 -1.1637
 8452TIP3    H249552   2.298   5.974   8.779  1.2809  2.0642 -0.1330
 8453TIP3   OH249553   6.298   2.653   7.970  0.1803 -0.4481 -0.0816
 8453TIP3    H149554   6.358   2.727   7.980  0.6980 -1.0590  1.6668
 8453TIP3    H249555   6.350   2.577   7.996 -1.1847 -1.0512  0.9777
 8454TIP3   OH249556   2.011   0.203   9.910 -0.5785 -0.0374 -0.0687
 8454TIP3    H149557   2.080   0.242   9.963 -0.4915 -0.7089  0.3248
 8454TIP3    H249558   2.023   0.241   9.823 -0.2252  0.4657  0.1967
 8455TIP3   OH249559   7.587   5.451   8.774  0.2868  0.4294  0.1182
 8455TIP3    H149560   7.518   5.400   8.730  0.6561  0.8520 -0.9889
 8455TIP3    H249561   7.545   5.534   8.795 -0.6798 -0.6827  3.0193
 8456TIP3   OH249562   6.481   6.354   0.826 -0.7986 -0.1236  0.0024
 8456TIP3    H149563   6.401   6.403   0.805  0.5818  2.1797 -0.2871
 8456TIP3    H249564   6.551   6.420   0.824  1.1085 -2.0011  0.4150
 8457TIP3   OH249565   0.868   7.476   9.390  0.0112 -0.0381 -0.1363
 8457TIP3    H149566   0.800   7.434   9.442  0.2859 -0.2421  0.0537
 8457TIP3    H249567   0.849   7.449   9.300 -0.6009  0.5007 -0.1796
 8458TIP3   OH249568   0.488   0.173   0.829 -0.3567  0.1130  0.3844
 8458TIP3    H149569   0.553   0.134   0.887 -1.2498 -4.3018 -1.1823
 8458TIP3    H249570   0.417   0.202   0.887  0.3787 -0.6630  1.6966
 8459TIP3   OH249571   1.787   0.608   8.877 -0.5868 -0.2305 -0.3337
 8459TIP3    H149572   1.787   0.684   8.818 -0.7037 -0.5844 -0.7910
 8459TIP3    H249573   1.753   0.643   8.959 -0.2553  0.3081 -0.4147
 8460TIP3   OH249574   4.964   2.181   2.391  0.4584  0.1161  0.3623
 8460TIP3    H149575   4.905   2.253   2.370 -0.3244 -0.1729  1.4661
 8460TIP3    H249576   5.008   2.209   2.471  0.6305 -0.3458  0.4323
 8461TIP3   OH249577   5.080   7.274   9.120  1.1750  0.4010 -0.2500
 8461TIP3    H149578   5.030   7.355   9.130 -0.6378 -0.6944  0.0456
 8461TIP3    H249579   5.067   7.249   9.028  0.3612 -0.3578  0.0494
 8462TIP3   OH249580   3.557   1.630   8.934 -0.0338 -0.3272 -0.6404
 8462TIP3    H149581   3.539   1.585   9.016  0.1455  0.1282 -0.3497
 8462TIP3    H249582   3.489   1.697   8.929 -1.6250 -1.9443 -2.0987
 8463TIP3   OH249583   0.739   3.074   0.853 -0.1449 -0.2449 -0.0687
 8463TIP3    H149584   0.672   3.075   0.785  0.7397 -1.7496 -1.0082
 8463TIP3    H249585   0.755   3.166   0.873 -1.1482  0.1837 -1.1459
 8464TIP3   OH249586   1.926   5.234   9.737  0.2793  0.0414  0.3860
 8464TIP3    H149587   1.840   5.269   9.758  0.3056  0.6740 -0.5049
 8464TIP3    H249588   1.976   5.242   9.818 -0.7638 -1.2023  1.1869
 8465TIP3   OH249589   5.891   6.576   1.132 -0.2588 -0.2057 -0.4237
 8465TIP3    H149590   5.954   6.646   1.151 -0.4515  0.0302 -0.6457
 8465TIP3    H249591   5.870   6.539   1.218 -0.2305  0.0756 -0.2944
 8466TIP3   OH249592   1.031   0.451   8.186  0.0425 -0.5771 -0.0808
 8466TIP3    H149593   0.937   0.461   8.195  0.0952 -0.3694  0.2427
 8466TIP3    H249594   1.053   0.497   8.105 -0.3552 -1.9773 -1.0210
 8467TIP3   OH249595   2.939   2.592   6.927 -0.2186  0.0357  0.7206
 8467TIP3    H149596   2.944   2.580   6.832  0.4633 -0.9964  0.8739
 8467TIP3    H249597   2.884   2.669   6.938  2.8854  2.7404 -0.6843
 8468TIP3   OH249598   1.943   4.367   2.582  0.4390  0.1253  0.6928
 8468TIP3    H149599   1.999   4.438   2.612  0.2448  0.5598  0.0543
 8468TIP3    H249600   1.854   4.397   2.598  0.2511  1.0398 -1.6361
 8469TIP3   OH249601   6.805   6.218   0.449 -0.1446  0.0172 -0.1012
 8469TIP3    H149602   6.734   6.255   0.501  0.9741  0.2346  1.3499
 8469TIP3    H249603   6.863   6.292   0.432 -0.9506  0.1687 -2.5736
 8470TIP3   OH249604   0.416   1.727   9.568 -0.2728  0.3001 -0.9610
 8470TIP3    H149605   0.428   1.632   9.570  0.8064  0.4233  1.0184
 8470TIP3    H249606   0.364   1.746   9.646  1.4892  1.5173 -0.0233
 8471TIP3   OH249607   1.159   5.926   2.339 -0.4289 -0.1930  0.0228
 8471TIP3    H149608   1.239   5.928   2.286  0.0065 -0.2803  0.6730
 8471TIP3    H249609   1.188   5.945   2.428 -1.3146  1.1404  0.0575
 8472TIP3   OH249610   3.830   7.108   1.237  0.3385  0.0938  0.1126
 8472TIP3    H149611   3.777   7.188   1.235 -0.2502 -0.2965 -0.2324
 8472TIP3    H249612   3.847   7.087   1.146  0.3777 -0.2412  0.1926
 8473TIP3   OH249613   3.746   0.512   9.690  0.3477 -0.5344 -0.2862
 8473TIP3    H149614   3.818   0.475   9.639  0.6569 -0.1619 -0.1144
 8473TIP3    H249615   3.726   0.444   9.755  1.2821 -0.1878  0.3823
 8474TIP3   OH249616   0.703   7.363   9.589 -0.3107  0.1895  0.3470
 8474TIP3    H149617   0.615   7.391   9.616 -0.3438 -1.5036  2.2449
 8474TIP3    H249618   0.758   7.378   9.665  0.2363 -2.1179  0.4875
 8475TIP3   OH249619   4.718   1.189   9.250 -0.2426 -0.6003  0.5754
 8475TIP3    H149620   4.801   1.143   9.267 -0.0940  0.1615  1.9904
 8475TIP3    H249621   4.745   1.271   9.209 -0.4497 -1.2245 -0.8957
 8476TIP3   OH249622   0.563   2.369   1.714 -0.5190 -0.0178  0.2104
 8476TIP3    H149623   0.572   2.462   1.693  2.2966 -0.5402 -1.3311
 8476TIP3    H249624   0.595   2.362   1.804 -0.0456  0.4252  0.0819
 8477TIP3   OH249625   2.349   6.595   2.877  0.1489 -0.2813  0.3383
 8477TIP3    H149626   2.414   6.647   2.924  0.2786  0.0759 -0.2337
 8477TIP3    H249627   2.267   6.643   2.887  0.8382  1.8394 -2.9158
 8478TIP3   OH249628   2.379   5.455   2.572  0.2716  0.0839 -0.3059
 8478TIP3    H149629   2.364   5.502   2.654 -0.4709  1.8921 -1.3929
 8478TIP3    H249630   2.474   5.449   2.565  0.3726  0.9021  0.1780
 8479TIP3   OH249631   1.447   6.050   9.815 -0.3262  0.2810 -0.2643
 8479TIP3    H149632   1.470   6.134   9.856  0.2803  0.3381 -0.7091
 8479TIP3    H249633   1.524   5.995   9.829  0.2526  0.5653 -2.0315
 8480TIP3   OH249634   0.673   0.973   1.428 -0.2291  0.4098 -0.2479
 8480TIP3    H149635   0.591   0.951   1.383 -0.5502  1.6388 -0.3017
 8480TIP3    H249636   0.700   1.056   1.389  0.2005  0.8138  0.8670
 8481TIP3   OH249637   2.728   7.574   1.005 -0.4397 -0.3476  0.4797
 8481TIP3    H149638   2.815   7.560   0.967  0.0731  0.0154  1.4678
 8481TIP3    H249639   2.716   7.500   1.064 -0.4889 -0.0259  0.8772
 8482TIP3   OH249640   5.485   7.088   9.704 -0.0013  0.8708 -0.4076
 8482TIP3    H149641   5.451   7.156   9.645 -2.2457  2.1270  2.0717
 8482TIP3    H249642   5.448   7.006   9.670 -2.3334  1.7243 -0.1220
 8483TIP3   OH249643   4.241   4.879   7.624 -0.4256  0.2312 -0.3140
 8483TIP3    H149644   4.186   4.847   7.695 -1.6525  1.5219 -0.6345
 8483TIP3    H249645   4.241   4.975   7.634  1.6772  0.2998 -0.4078
 8484TIP3   OH249646   0.577   5.738   2.644 -0.0800  0.5643 -0.1369
 8484TIP3    H149647   0.617   5.663   2.602 -0.7887  0.7767 -1.2333
 8484TIP3    H249648   0.582   5.808   2.579  1.0308  1.6452  1.0432
 8485TIP3   OH249649   1.642   0.973   2.299 -0.5558  0.2242  0.2768
 8485TIP3    H149650   1.570   0.957   2.360 -0.5011  0.3877  0.3866
 8485TIP3    H249651   1.623   1.059   2.261 -0.4142  0.2728  0.3142
 8486TIP3   OH249652   5.993   0.525   8.935 -0.0650 -0.1392  0.7890
 8486TIP3    H149653   5.910   0.495   8.899 -0.0437  2.5781 -1.9969
 8486TIP3    H249654   5.968   0.583   9.008 -0.6812  0.6299 -0.0042
 8487TIP3   OH249655   0.545   6.937   7.960  0.7427 -0.3474 -0.2197
 8487TIP3    H149656   0.493   6.859   7.938 -0.1480 -0.7758  3.0028
 8487TIP3    H249657   0.612   6.905   8.020  1.4146  1.1348 -0.1387
 8488TIP3   OH249658   7.186   2.236   6.959 -0.2961 -0.9081  0.6260
 8488TIP3    H149659   7.270   2.200   6.931  0.3145 -0.1163  1.3761
 8488TIP3    H249660   7.172   2.198   7.046  0.3240  0.5368  1.3976
 8489TIP3   OH249661   4.487   5.955   8.172  0.4013 -0.1814  0.2409
 8489TIP3    H149662   4.445   5.870   8.183  0.3228 -0.1624  0.0968
 8489TIP3    H249663   4.427   6.004   8.115 -0.2174  0.4414  1.4018
 8490TIP3   OH249664   4.454   6.674   9.104  0.3208  0.2645 -0.0195
 8490TIP3    H149665   4.365   6.704   9.124  0.8007  1.0675  0.9919
 8490TIP3    H249666   4.466   6.695   9.011 -0.5492  0.1305 -0.1686
 8491TIP3   OH249667   1.138   4.095   9.239  0.4595  0.1158 -0.2884
 8491TIP3    H149668   1.172   4.008   9.217  0.0190 -0.8370  2.4175
 8491TIP3    H249669   1.197   4.156   9.194  1.0433 -1.5534 -1.8952
 8492TIP3   OH249670   2.180   6.338   0.659 -0.3361 -0.6002 -0.9468
 8492TIP3    H149671   2.206   6.271   0.596  0.1548 -0.6642 -0.6781
 8492TIP3    H249672   2.125   6.398   0.608 -0.6732 -1.1358 -1.2178
 8493TIP3   OH249673   7.602   4.316   9.745  0.1773  0.7515 -0.2872
 8493TIP3    H149674   7.658   4.284   9.675  2.1259 -1.1962  1.9807
 8493TIP3    H249675   7.652   4.386   9.787 -0.6894  1.4641 -0.3960
 8494TIP3   OH249676   2.952   0.794   7.958 -0.3640  0.4429  0.0540
 8494TIP3    H149677   2.993   0.710   7.934 -3.5704 -1.6667  1.3170
 8494TIP3    H249678   3.006   0.828   8.029  1.6777  0.1364 -1.2633
 8495TIP3   OH249679   3.546   3.583   2.749  0.1599  0.1566  0.6256
 8495TIP3    H149680   3.559   3.619   2.836  1.6643 -0.5194  0.7015
 8495TIP3    H249681   3.589   3.498   2.751  0.0674  0.0509 -0.7242
 8496TIP3   OH249682   6.394   1.398   8.881 -0.2948  0.4180  0.1799
 8496TIP3    H149683   6.464   1.440   8.931  0.1779 -1.3499  1.0815
 8496TIP3    H249684   6.416   1.416   8.790  2.9967 -2.3295  0.2242
 8497TIP3   OH249685   0.347   5.214   0.276 -0.2489  0.3593 -0.3990
 8497TIP3    H149686   0.260   5.176   0.278  0.8383 -2.2801  1.1603
 8497TIP3    H249687   0.384   5.185   0.192  0.0354 -0.7943  0.1121
 8498TIP3   OH249688   0.163   6.880   8.519  0.2270 -0.1076  0.1297
 8498TIP3    H149689   0.133   6.809   8.576  0.6265  0.3558  0.9300
 8498TIP3    H249690   0.143   6.960   8.568  1.9858  0.2415  0.3370
 8499TIP3   OH249691   3.517   2.786   2.349  0.1531  0.3270 -0.4047
 8499TIP3    H149692   3.479   2.856   2.296  0.1584  0.2285 -0.5395
 8499TIP3    H249693   3.609   2.812   2.361  0.5960 -0.4558 -1.8439
 8500TIP3   OH249694   4.975   6.332   0.293 -0.6031  0.2602  0.8236
 8500TIP3    H149695   4.972   6.416   0.247  0.5587  0.2652  0.7359
 8500TIP3    H249696   4.963   6.354   0.385  0.6427  0.6445  0.9128
 8501TIP3   OH249697   3.093   1.430   8.584 -0.1470 -0.0360  0.2070
 8501TIP3    H149698   3.119   1.466   8.499 -0.0290 -0.1924  0.1752
 8501TIP3    H249699   3.063   1.505   8.634  0.7189  0.2128  0.3728
 8502TIP3   OH249700   5.148   2.456   3.007  0.2510  0.7429  0.3361
 8502TIP3    H149701   5.068   2.406   3.019  0.4912  0.3174  0.1650
 8502TIP3    H249702   5.211   2.416   3.067  0.6027  0.4882 -0.2001
 8503TIP3   OH249703   7.338   1.859   2.499  0.1912 -0.2674 -0.5092
 8503TIP3    H149704   7.331   1.830   2.590  0.9037 -1.2747 -0.7512
 8503TIP3    H249705   7.366   1.950   2.504  1.1280 -0.5912  0.2712
 8504TIP3   OH249706   0.827   3.995   0.449 -0.6241 -0.0008 -0.9452
 8504TIP3    H149707   0.832   3.923   0.387 -1.7201  0.6204 -1.7904
 8504TIP3    H249708   0.876   3.965   0.526  0.9318 -0.6989 -2.1686
 8505TIP3   OH249709   4.461   0.647   6.790  0.3689  0.5237 -0.2168
 8505TIP3    H149710   4.544   0.650   6.837  1.1813 -0.8463 -1.5030
 8505TIP3    H249711   4.475   0.585   6.719 -1.6042  0.6384 -0.7743
 8506TIP3   OH249712   5.827   0.395   0.099  0.4951 -0.2058  0.1088
 8506TIP3    H149713   5.764   0.463   0.122 -0.6456 -1.1826 -0.0541
 8506TIP3    H249714   5.906   0.417   0.150 -0.3247  0.4260  1.1402
 8507TIP3   OH249715   1.249   7.191   1.397 -0.1453 -0.2412  0.1952
 8507TIP3    H149716   1.311   7.163   1.330  0.4768  0.1344  0.6104
 8507TIP3    H249717   1.218   7.109   1.437  0.6983 -0.3973  0.5410
 8508TIP3   OH249718   6.342   2.674   8.323 -0.3590 -0.4006 -0.2746
 8508TIP3    H149719   6.389   2.598   8.291 -0.7113 -1.6260  1.9034
 8508TIP3    H249720   6.262   2.677   8.270  0.2443 -0.7789 -1.2202
 8509TIP3   OH249721   2.401   5.481   1.185  0.1284  0.4836 -0.3012
 8509TIP3    H149722   2.321   5.533   1.185  1.2258  2.2438  0.4497
 8509TIP3    H249723   2.380   5.406   1.241 -0.2331  2.2017  1.9832
 8510TIP3   OH249724   2.370   2.354   9.466  0.2186 -0.2852  0.8474
 8510TIP3    H149725   2.358   2.410   9.543 -0.2702 -0.6633  1.0577
 8510TIP3    H249726   2.280   2.330   9.440  0.4027 -0.6025  0.4944
 8511TIP3   OH249727   2.884   3.552   2.640  0.0932 -0.4772 -0.2700
 8511TIP3    H149728   2.856   3.467   2.605  1.0791 -1.7517  1.8238
 8511TIP3    H249729   2.980   3.551   2.629  0.2296 -0.1546  0.7839
 8512TIP3   OH249730   2.579   6.281   8.423  0.3199  0.6015 -0.2305
 8512TIP3    H149731   2.548   6.191   8.433 -1.1136  1.1463  0.6103
 8512TIP3    H249732   2.669   6.280   8.454  0.2173 -0.4828  0.0479
 8513TIP3   OH249733   7.045   1.206   2.108 -0.3693 -0.0929  0.1991
 8513TIP3    H149734   7.057   1.289   2.153 -0.6825  0.3355 -0.5018
 8513TIP3    H249735   6.965   1.169   2.145 -0.7874  0.3972 -0.2131
 8514TIP3   OH249736   1.698   0.366   2.218 -0.2106  0.6440 -0.3374
 8514TIP3    H149737   1.770   0.409   2.264 -0.4402  0.0010  0.6716
 8514TIP3    H249738   1.724   0.367   2.126  0.7561  1.0471 -0.0770
 8515TIP3   OH249739   6.717   2.920   7.894  0.0318 -0.5519  0.1539
 8515TIP3    H149740   6.752   2.830   7.898  1.1743 -0.1136  0.5856
 8515TIP3    H249741   6.684   2.929   7.805 -0.4629 -1.5297  0.2223
 8516TIP3   OH249742   4.090   2.836   7.399 -0.6680  0.2208 -0.2006
 8516TIP3    H149743   4.009   2.886   7.401 -0.2833  0.8230  1.1416
 8516TIP3    H249744   4.065   2.751   7.361 -2.5534 -0.6408  2.6240
 8517TIP3   OH249745   0.196   7.467   0.281  0.4049  0.1948  0.1212
 8517TIP3    H149746   0.196   7.559   0.310 -0.6670  0.8194 -1.6688
 8517TIP3    H249747   0.288   7.445   0.272  0.7074  0.6646  1.8246
 8518TIP3   OH249748   3.609   7.104   7.232  0.3367 -0.3639 -0.2594
 8518TIP3    H149749   3.577   7.185   7.192 -1.5229 -0.2295  1.3219
 8518TIP3    H249750   3.702   7.120   7.247 -0.1579  1.8771  0.8107
 8519TIP3   OH249751   0.462   6.182   9.030 -0.1281  0.0037  0.9538
 8519TIP3    H149752   0.510   6.208   8.951 -0.9206  1.0196  0.7860
 8519TIP3    H249753   0.389   6.131   8.998 -0.0269 -0.2311  1.0946
 8520TIP3   OH249754   0.343   2.469   9.667  0.2509 -0.2599 -0.1071
 8520TIP3    H149755   0.300   2.529   9.727  1.0381 -0.8908  1.1223
 8520TIP3    H249756   0.356   2.389   9.717 -0.1847 -1.2548 -1.5120
 8521TIP3   OH249757   2.950   7.543   8.726 -0.0354  0.3305 -0.1298
 8521TIP3    H149758   2.976   7.579   8.641  0.1841  0.3450 -0.0578
 8521TIP3    H249759   2.996   7.597   8.790  0.8308 -0.4895 -0.0388
 8522TIP3   OH249760   1.319   5.645   7.836 -0.4263  0.1441  0.3985
 8522TIP3    H149761   1.380   5.717   7.856 -0.7819  0.2994  0.9752
 8522TIP3    H249762   1.300   5.654   7.743  0.3503  0.1578  0.2404
 8523TIP3   OH249763   2.509   6.714   9.839  0.2398 -0.0438  0.4338
 8523TIP3    H149764   2.505   6.633   9.789  0.3823  2.2265 -3.6284
 8523TIP3    H249765   2.420   6.749   9.837  0.4763  0.6267  0.8626
 8524TIP3   OH249766   5.617   2.648   1.571 -0.4045 -0.0980 -0.5933
 8524TIP3    H149767   5.658   2.645   1.485  1.3861 -1.1648  0.2190
 8524TIP3    H249768   5.528   2.617   1.557  0.0724 -0.9612 -1.9659
 8525TIP3   OH249769   3.824   4.669   0.125  0.0951 -0.5836 -0.4573
 8525TIP3    H149770   3.877   4.714   0.192 -0.0978  0.2778 -0.8667
 8525TIP3    H249771   3.777   4.602   0.174  0.1323 -0.1238  0.2401
 8526TIP3   OH249772   0.187   1.907   2.795 -0.2036  0.1729  0.3765
 8526TIP3    H149773   0.127   1.907   2.720 -0.2595 -0.0578  0.4194
 8526TIP3    H249774   0.134   1.874   2.868 -0.4117  1.2823  0.7363
 8527TIP3   OH249775   1.048   4.577   2.698  0.0085 -0.0196 -0.5956
 8527TIP3    H149776   1.047   4.648   2.762  1.9783 -3.0777  3.2684
 8527TIP3    H249777   0.971   4.524   2.719  1.9162 -2.3507  1.1756
 8528TIP3   OH249778   6.491   1.780   8.729  0.2640 -0.0962 -0.1195
 8528TIP3    H149779   6.470   1.870   8.756  0.1973  0.5082 -2.0622
 8528TIP3    H249780   6.408   1.733   8.736  0.6075 -0.4655  2.3997
 8529TIP3   OH249781   0.524   0.232   2.280  0.0508 -0.3169  0.2413
 8529TIP3    H149782   0.443   0.188   2.255 -0.3350 -1.1363  2.6244
 8529TIP3    H249783   0.510   0.258   2.371  1.6339  1.5977  0.0147
 8530TIP3   OH249784   4.469   6.412   0.237  0.0270 -0.1426 -0.2169
 8530TIP3    H149785   4.541   6.436   0.178 -0.0603  1.9569  0.4362
 8530TIP3    H249786   4.448   6.493   0.283 -1.1366 -1.2787  1.3884
 8531TIP3   OH249787   7.538   6.731   9.331  0.3039 -0.2292  0.6607
 8531TIP3    H149788   7.610   6.670   9.350  0.6501 -0.1163 -0.2331
 8531TIP3    H249789   7.464   6.697   9.381  0.8606 -0.5922  1.2602
 8532TIP3   OH249790   4.036   0.172   1.890  0.8774 -0.5788  0.1805
 8532TIP3    H149791   4.103   0.183   1.957  0.2372 -0.7590  0.8613
 8532TIP3    H249792   4.011   0.261   1.865 -0.5271 -0.4601  1.8630
 8533TIP3   OH249793   0.904   5.512   9.029 -0.9567  0.5193 -0.0086
 8533TIP3    H149794   0.838   5.444   9.026 -0.5723  0.1415  0.0136
 8533TIP3    H249795   0.881   5.565   9.106 -0.3534 -0.5192  0.9147
 8534TIP3   OH249796   1.782   6.177   8.805 -0.9235  0.0665  0.3563
 8534TIP3    H149797   1.850   6.195   8.871 -1.1643  1.3381  0.2835
 8534TIP3    H249798   1.826   6.123   8.740  0.4906  2.0271 -0.4183
 8535TIP3   OH249799   3.950   4.454   7.790  0.2804 -0.1277  0.0889
 8535TIP3    H149800   4.045   4.459   7.802  0.3448 -1.1566  0.1249
 8535TIP3    H249801   3.933   4.501   7.708  1.3610 -3.2636 -2.1365
 8536TIP3   OH249802   0.811   3.104   9.262 -0.7663  0.4016 -0.0615
 8536TIP3    H149803   0.846   3.037   9.204 -2.7023 -0.5475 -0.2344
 8536TIP3    H249804   0.837   3.187   9.222  1.4894 -0.2033  0.0419
 8537TIP3   OH249805   4.855   6.332   0.898 -0.1472 -0.0688 -0.2809
 8537TIP3    H149806   4.947   6.352   0.883  0.1316 -0.2475  1.0600
 8537TIP3    H249807   4.829   6.279   0.823  0.2692  1.6914 -1.7343
 8538TIP3   OH249808   3.714   4.026   9.414 -0.0862 -0.7426 -0.3084
 8538TIP3    H149809   3.790   4.084   9.411 -0.8014  0.2151 -2.3218
 8538TIP3    H249810   3.693   4.018   9.507  0.7804  1.2736  0.1178
 8539TIP3   OH249811   1.577   3.496   9.907  0.0080 -0.0921 -0.0323
 8539TIP3    H149812   1.645   3.534   9.964 -0.1640  1.1581 -0.6369
 8539TIP3    H249813   1.552   3.568   9.849  1.1881 -1.6694 -2.6856
 8540TIP3   OH249814   6.516   6.098   0.724 -0.0346  0.3286  0.3766
 8540TIP3    H149815   6.506   6.184   0.765  0.8972  0.0541  1.2319
 8540TIP3    H249816   6.572   6.049   0.785 -1.8625 -1.4407  0.7177
 8541TIP3   OH249817   2.448   6.197   9.352 -0.3906  0.2536 -0.2450
 8541TIP3    H149818   2.466   6.220   9.444  1.3212  0.7907 -0.6793
 8541TIP3    H249819   2.510   6.250   9.302 -2.0705  0.8373 -1.8127
 8542TIP3   OH249820   5.661   6.236   8.282 -0.0571 -0.2628  0.1899
 8542TIP3    H149821   5.657   6.251   8.187 -0.1880 -1.3960 -0.0073
 8542TIP3    H249822   5.571   6.244   8.311  0.2149  1.9762  0.5717
 8543TIP3   OH249823   1.357   6.108   3.136  0.3205 -0.0890  0.0938
 8543TIP3    H149824   1.288   6.045   3.113 -2.2048  2.4704 -0.0109
 8543TIP3    H249825   1.350   6.115   3.231 -0.2861  0.8735 -0.0087
 8544TIP3   OH249826   0.403   1.851   1.190 -0.2218 -0.3666 -0.6618
 8544TIP3    H149827   0.463   1.916   1.227  0.1093  0.4041 -2.4458
 8544TIP3    H249828   0.458   1.797   1.133 -1.2256  0.7295 -2.8131
 8545TIP3   OH249829   0.897   6.889   1.395  0.3135 -0.1127  0.2472
 8545TIP3    H149830   0.863   6.859   1.311  0.0754  0.5043  0.1161
 8545TIP3    H249831   0.950   6.816   1.427 -0.2776 -0.6784 -0.0394
 8546TIP3   OH249832   5.907   2.136   0.397  0.0913  0.0399  0.2121
 8546TIP3    H149833   5.886   2.055   0.352  0.1923  0.2908 -0.2899
 8546TIP3    H249834   5.835   2.195   0.377  0.2168  0.2061  0.2412
 8547TIP3   OH249835   2.805   4.812   9.250 -0.4313 -0.2911  0.5486
 8547TIP3    H149836   2.877   4.871   9.270 -0.4297  1.2650 -3.2413
 8547TIP3    H249837   2.751   4.811   9.330  1.7864  1.4347  2.1779
 8548TIP3   OH249838   1.791   2.193   0.894 -0.4200  0.0392 -0.1481
 8548TIP3    H149839   1.778   2.149   0.810  0.1459 -0.0990 -0.1682
 8548TIP3    H249840   1.815   2.283   0.870 -0.6663  0.1128 -0.1234
 8549TIP3   OH249841   1.914   0.889   7.887 -0.2641 -0.5945  0.0028
 8549TIP3    H149842   1.935   0.955   7.954 -0.8885 -0.2179 -0.1649
 8549TIP3    H249843   1.999   0.852   7.863  0.1377  0.3999 -0.1539
 8550TIP3   OH249844   0.163   5.428   8.873  0.2370  0.2218  0.2374
 8550TIP3    H149845   0.071   5.436   8.845 -0.6676 -1.9568  2.2075
 8550TIP3    H249846   0.158   5.417   8.968  2.4641 -0.9087  0.2878
 8551TIP3   OH249847   4.078   4.985   6.937 -0.4397 -0.0234 -0.0306
 8551TIP3    H149848   4.018   4.935   6.992  0.3762 -1.9375 -0.7913
 8551TIP3    H249849   4.165   4.962   6.970 -0.0150  2.6806  1.0509
 8552TIP3   OH249850   2.293   0.361   7.155  0.3564  0.2111 -0.4495
 8552TIP3    H149851   2.274   0.298   7.085  0.5441 -0.4739  0.0997
 8552TIP3    H249852   2.335   0.308   7.223  2.2557  1.2587 -0.7390
 8553TIP3   OH249853   5.315   1.211   1.971  0.0554  0.7074 -0.2409
 8553TIP3    H149854   5.341   1.302   1.961 -1.0636  1.1753  0.7888
 8553TIP3    H249855   5.246   1.213   2.038 -0.7786 -0.7563 -1.0010
 8554TIP3   OH249856   0.152   2.932   9.930 -0.0826 -0.0777 -0.0319
 8554TIP3    H149857   0.166   2.868   9.861 -1.3760  0.4713 -0.8373
 8554TIP3    H249858   0.105   3.004   9.888 -0.6149  0.4214  1.3359
 8555TIP3   OH249859   5.664   2.768   7.701  0.3187  0.3008  0.2776
 8555TIP3    H149860   5.721   2.727   7.637  0.0820 -3.1806  2.0838
 8555TIP3    H249861   5.575   2.749   7.669  0.2061 -0.9824  1.2848
 8556TIP3   OH249862   2.968   0.718   8.545  0.5997 -0.4262  0.5103
 8556TIP3    H149863   2.973   0.661   8.469  0.3682 -0.9709  0.8894
 8556TIP3    H249864   3.013   0.798   8.519  0.8402 -0.7446 -0.0695
 8557TIP3   OH249865   5.761   7.588   8.421 -0.4015 -0.0224  0.2491
 8557TIP3    H149866   5.780   7.508   8.470 -0.0779 -1.1703 -1.6500
 8557TIP3    H249867   5.685   7.567   8.367  0.3568  0.5500 -1.0989
 8558TIP3   OH249868   3.685   0.394   7.833  0.8182  0.3126 -0.0447
 8558TIP3    H149869   3.765   0.423   7.876  0.5487  0.0499  0.6487
 8558TIP3    H249870   3.663   0.464   7.772  1.5079  0.4372 -0.1526
 8559TIP3   OH249871   3.035   3.540   9.651 -0.1929 -0.0827 -0.1166
 8559TIP3    H149872   3.026   3.470   9.716 -0.9035  0.2814  0.1904
 8559TIP3    H249873   2.994   3.504   9.572  1.0450 -0.6891 -0.5231
 8560TIP3   OH249874   1.700   0.112   8.275  0.1849 -0.0658  0.1528
 8560TIP3    H149875   1.742   0.181   8.224  2.1168 -1.2662  0.0358
 8560TIP3    H249876   1.709   0.140   8.366 -0.2952  0.4816  0.0380
 8561TIP3   OH249877   7.578   7.002   8.193 -0.2311  0.1177  0.6776
 8561TIP3    H149878   7.640   7.062   8.151  1.3662 -2.1460 -0.3730
 8561TIP3    H249879   7.496   7.016   8.145 -0.3540  2.4476  1.4450
 8562TIP3   OH249880   1.881   3.361   7.197  0.2251  0.0503 -0.0640
 8562TIP3    H149881   1.870   3.351   7.103  0.7607  2.5590 -0.4609
 8562TIP3    H249882   1.868   3.273   7.232 -3.1926 -0.4580 -2.1355
 8563TIP3   OH249883   1.233   2.289   2.042 -0.3361 -0.3019 -0.5196
 8563TIP3    H149884   1.310   2.345   2.051  0.5558 -1.1957 -2.1180
 8563TIP3    H249885   1.240   2.225   2.112  1.1607 -1.2186 -1.4574
 8564TIP3   OH249886   3.737   2.320   0.839 -0.2665 -0.4046  0.2180
 8564TIP3    H149887   3.677   2.248   0.862 -0.9944  0.2609  0.4434
 8564TIP3    H249888   3.718   2.338   0.747  0.3009 -0.8556  0.0080
 8565TIP3   OH249889   6.080   4.952   8.802 -0.3048  0.0055  0.5035
 8565TIP3    H149890   5.998   4.999   8.790 -0.6524 -0.5610  0.6491
 8565TIP3    H249891   6.054   4.863   8.823  0.3537 -0.2969  0.0471
 8566TIP3   OH249892   0.471   3.971   0.955 -0.8937  0.0153 -0.1539
 8566TIP3    H149893   0.550   4.000   0.908 -1.3853  0.2411 -0.8530
 8566TIP3    H249894   0.502   3.954   1.044 -0.3999  1.8744  0.0843
 8567TIP3   OH249895   7.387   6.222   8.555 -0.0036 -0.3319 -0.0003
 8567TIP3    H149896   7.332   6.290   8.593 -0.5340 -0.7672  0.0257
 8567TIP3    H249897   7.354   6.212   8.466  0.9575  0.3872 -0.4532
 8568TIP3   OH249898   0.926   2.046   2.023  0.4079 -0.5632 -0.4760
 8568TIP3    H149899   0.969   2.070   1.941  0.9069  0.7007  0.1350
 8568TIP3    H249900   0.958   1.957   2.041 -0.4613 -1.2566 -2.1149
 8569TIP3   OH249901   3.805   3.547   9.372  0.4314 -0.4690 -0.3416
 8569TIP3    H149902   3.823   3.639   9.350 -0.1828 -0.4940 -0.9999
 8569TIP3    H249903   3.713   3.547   9.400  1.2489 -0.4050  2.5817
 8570TIP3   OH249904   4.522   0.267   1.055 -0.3691  0.1664 -0.5985
 8570TIP3    H149905   4.540   0.260   0.961  0.4569  1.8438 -0.6096
 8570TIP3    H249906   4.601   0.307   1.091  0.4142 -2.8017  1.2786
 8571TIP3   OH249907   2.158   5.099   1.938 -0.1734 -0.5123 -0.2861
 8571TIP3    H149908   2.195   5.186   1.948  0.3351 -0.9653  2.4761
 8571TIP3    H249909   2.230   5.039   1.957 -0.6189 -1.5700 -1.7306
 8572TIP3   OH249910   2.374   6.331   1.569  0.4122 -0.1612  0.1041
 8572TIP3    H149911   2.390   6.309   1.477  1.2808 -0.4681  0.3177
 8572TIP3    H249912   2.381   6.247   1.614 -0.3966 -0.0690  0.4050
 8573TIP3   OH249913   0.298   1.534   1.546 -0.2312  0.0079 -0.5229
 8573TIP3    H149914   0.304   1.439   1.554  1.9942  0.0334 -1.2308
 8573TIP3    H249915   0.387   1.565   1.561 -0.1364  1.6855 -3.6924
 8574TIP3   OH249916   0.272   0.794   7.107 -0.3352  0.0789 -0.2331
 8574TIP3    H149917   0.328   0.784   7.184  0.1111  1.1207 -0.4067
 8574TIP3    H249918   0.189   0.755   7.133 -0.1609  0.3197  0.7479
 8575TIP3   OH249919   6.693   2.426   2.062  0.0270 -0.5401 -0.3618
 8575TIP3    H149920   6.611   2.439   2.110  1.7455  1.5170  2.3804
 8575TIP3    H249921   6.674   2.455   1.973 -2.1718 -0.0078  0.2150
 8576TIP3   OH249922   1.897   4.385   2.283  0.2776 -0.1807 -0.4622
 8576TIP3    H149923   1.830   4.318   2.270 -0.6261  0.4646  0.7142
 8576TIP3    H249924   1.933   4.365   2.370 -1.2730  1.8770  0.7459
 8577TIP3   OH249925   3.936   4.183   9.428  0.0498 -0.2806  0.4358
 8577TIP3    H149926   3.902   4.272   9.418 -0.3956 -0.4123  0.7266
 8577TIP3    H249927   4.009   4.177   9.367  0.5910  0.5458  0.9868
 8578TIP3   OH249928   2.564   4.319   1.480 -0.2205  0.3471  0.0153
 8578TIP3    H149929   2.566   4.375   1.403 -1.9749  1.5389  0.7600
 8578TIP3    H249930   2.526   4.236   1.449  0.7227  0.1888 -0.7316
 8579TIP3   OH249931   1.904   1.796   0.187  0.0146 -0.0282  0.0284
 8579TIP3    H149932   1.905   1.714   0.236  0.6754  1.0406  1.8936
 8579TIP3    H249933   1.812   1.820   0.181  0.0000  0.6331  2.2345
 8580TIP3   OH249934   5.838   1.085   9.777  0.1055  0.6277 -0.2199
 8580TIP3    H149935   5.835   1.154   9.711 -1.5050  0.5036 -0.3330
 8580TIP3    H249936   5.814   1.005   9.729 -1.4941  0.6022  0.5421
 8581TIP3   OH249937   1.013   3.853   1.629 -0.0129 -0.0557  0.0306
 8581TIP3    H149938   0.956   3.832   1.555 -0.4245  0.8519  0.0795
 8581TIP3    H249939   0.967   3.819   1.705  0.4835 -1.1292 -0.1299
 8582TIP3   OH249940   0.348   1.137   1.258 -0.5729  0.4421  0.0692
 8582TIP3    H149941   0.393   1.222   1.252 -1.5961  0.9625 -0.4581
 8582TIP3    H249942   0.256   1.157   1.241 -1.0177 -0.6066  1.0731
 8583TIP3   OH249943   4.052   6.351   2.156 -0.1525  0.3740  0.1679
 8583TIP3    H149944   4.057   6.432   2.104 -0.3057 -0.0694 -0.5501
 8583TIP3    H249945   4.135   6.349   2.204 -0.6611  1.5762  1.1526
 8584TIP3   OH249946   3.437   2.027   1.116  0.1687  0.3131 -0.4203
 8584TIP3    H149947   3.432   2.085   1.192  0.1469  1.7316 -1.4732
 8584TIP3    H249948   3.442   1.939   1.154 -2.0345  0.7954  1.2008
 8585TIP3   OH249949   1.556   4.054   7.116  0.4228 -0.2364 -0.0508
 8585TIP3    H149950   1.596   4.140   7.129  0.7044 -0.3742 -0.0159
 8585TIP3    H249951   1.505   4.064   7.036  2.0535 -0.6105 -1.1820
 8586TIP3   OH249952   5.864   4.052   7.603  0.3431  0.0877 -0.4655
 8586TIP3    H149953   5.777   4.020   7.580  0.1218  0.5517 -0.2727
 8586TIP3    H249954   5.884   4.118   7.537  0.5086  0.0482 -0.4551
 8587TIP3   OH249955   3.990   5.282   9.617  0.9647 -0.0573 -0.1634
 8587TIP3    H149956   4.070   5.336   9.616  0.4930  0.6516 -0.3997
 8587TIP3    H249957   3.993   5.234   9.534  0.4512  1.0267 -0.8292
 8588TIP3   OH249958   2.391   6.237   1.294 -0.0821  0.1334 -0.1948
 8588TIP3    H149959   2.421   6.304   1.233 -2.1774  0.7558 -0.6248
 8588TIP3    H249960   2.336   6.179   1.241  0.5119 -1.1086  0.4871
 8589TIP3   OH249961   1.615   4.437   0.468 -0.0259  0.2447 -0.3258
 8589TIP3    H149962   1.654   4.524   0.461 -0.7275  0.5615 -0.4600
 8589TIP3    H249963   1.620   4.416   0.561  0.6808  0.1702 -0.3759
 8590TIP3   OH249964   1.689   1.929   8.170 -0.6294  0.1946 -0.6341
 8590TIP3    H149965   1.783   1.917   8.183 -0.4796  0.9647 -0.9167
 8590TIP3    H249966   1.656   1.842   8.148  0.1089  0.0220 -1.0835
 8591TIP3   OH249967   3.395   5.951   0.170  0.0917  0.0207  0.2285
 8591TIP3    H149968   3.421   6.043   0.184 -0.1672  0.4058 -1.5439
 8591TIP3    H249969   3.475   5.901   0.188  1.1063  0.8772 -1.5957
 8592TIP3   OH249970   3.200   3.065   3.393 -0.2103 -0.1850  0.8104
 8592TIP3    H149971   3.124   3.122   3.379  1.0469  1.4690  0.4181
 8592TIP3    H249972   3.197   3.003   3.320 -1.2784 -0.2967  0.9211
 8593TIP3   OH249973   3.482   3.978   0.962  0.0205 -0.1604 -0.3572
 8593TIP3    H149974   3.410   3.996   0.902 -1.0829 -2.0735  0.3044
 8593TIP3    H249975   3.545   3.928   0.910  1.3679  2.2692 -1.1854
 8594TIP3   OH249976   6.232   1.016   1.572  0.0119  0.1246 -0.6862
 8594TIP3    H149977   6.176   0.952   1.528 -0.1448  1.2128 -2.1791
 8594TIP3    H249978   6.207   1.100   1.532 -0.4118  1.2758  1.7881
 8595TIP3   OH249979   0.088   0.034   1.910  0.3471  0.7767  0.5741
 8595TIP3    H149980   0.010   0.088   1.924  0.7303  0.8676  2.7708
 8595TIP3    H249981   0.060  -0.055   1.933  0.4041  0.4423 -0.5603
 8596TIP3   OH249982   3.963   2.404   7.819  0.1030 -0.3339  0.1922
 8596TIP3    H149983   3.964   2.354   7.901 -0.5457 -0.9978 -0.1909
 8596TIP3    H249984   4.031   2.470   7.830  1.2605 -1.5548  0.5589
 8597TIP3   OH249985   3.323   3.692   1.104 -0.6773  0.3562  0.2512
 8597TIP3    H149986   3.362   3.778   1.088  2.0855 -0.8904 -0.2801
 8597TIP3    H249987   3.361   3.635   1.037 -0.9538 -1.6811  1.7185
 8598TIP3   OH249988   2.477   6.369   7.710 -0.1864 -0.2661  0.7928
 8598TIP3    H149989   2.394   6.403   7.745  0.0072 -0.9768  1.9872
 8598TIP3    H249990   2.544   6.426   7.748  0.1400 -1.8457  2.7858
 8599TIP3   OH249991   3.012   3.402   1.041 -0.4587 -0.3944  0.0754
 8599TIP3    H149992   2.974   3.435   0.960 -1.7409 -1.1006  0.3541
 8599TIP3    H249993   2.963   3.322   1.059  0.7362 -0.9798  0.8328
 8600TIP3   OH249994   0.165   4.016   8.761  0.0168 -0.0651  0.5900
 8600TIP3    H149995   0.144   4.103   8.726  0.8228 -0.7158 -1.6373
 8600TIP3    H249996   0.112   3.956   8.708  1.2961 -1.0979  0.4567
 8601TIP3   OH249997   0.900   0.511   2.960  0.2202  0.0942 -0.1856
 8601TIP3    H149998   0.976   0.483   3.011 -0.0195 -0.6662 -0.2283
 8601TIP3    H249999   0.829   0.520   3.025 -0.4273 -2.1433 -0.5112
 8602TIP3   OH250000   4.503   0.274   2.197  0.4980  0.0242 -0.1995
 8602TIP3    H150001   4.513   0.337   2.269 -0.5939 -1.8360  1.6733
 8602TIP3    H250002   4.558   0.200   2.223 -1.4436 -1.4968 -0.2461
 8603TIP3   OH250003   7.232   0.704   1.384 -0.4293  0.0266  0.2384
 8603TIP3    H150004   7.305   0.649   1.358 -0.1012  0.4420  0.2727
 8603TIP3    H250005   7.169   0.644   1.423  0.2939 -0.2199  1.0649
 8604TIP3   OH250006   7.665   6.251   8.381 -0.2094 -0.2159 -0.3810
 8604TIP3    H150007   7.666   6.346   8.395 -1.9338 -0.5637  3.2147
 8604TIP3    H250008   7.576   6.232   8.351 -0.1724 -0.8116 -0.1140
 8605TIP3   OH250009   2.130   4.750   9.903 -0.2503 -0.5092  0.1258
 8605TIP3    H150010   2.066   4.819   9.920  1.1396  1.0759 -0.7870
 8605TIP3    H250011   2.156   4.763   9.812  1.9856 -0.5302  0.6929
 8606TIP3   OH250012   3.524   0.211   3.028 -0.0138  0.0720 -0.0425
 8606TIP3    H150013   3.596   0.274   3.018 -0.6887  0.6367 -1.5613
 8606TIP3    H250014   3.447   0.265   3.046 -0.2010 -0.4930  0.9316
 8607TIP3   OH250015   1.661   1.570   1.327 -0.1001  0.0215 -0.2745
 8607TIP3    H150016   1.577   1.612   1.312  0.1984  0.4766 -0.6740
 8607TIP3    H250017   1.649   1.481   1.294 -0.2346  0.2661 -0.9043
 8608TIP3   OH250018   6.669   1.160   7.429  0.5667  0.0350 -0.1743
 8608TIP3    H150019   6.755   1.159   7.389  0.0374 -0.1350 -1.3423
 8608TIP3    H250020   6.618   1.220   7.375  0.2143  0.8938  1.0807
 8609TIP3   OH250021   3.706   6.083   0.722  0.2369 -0.1328 -0.4232
 8609TIP3    H150022   3.658   6.001   0.726 -1.6567  0.9046 -0.8454
 8609TIP3    H250023   3.792   6.062   0.760 -0.7831 -1.8559  1.1070
 8610TIP3   OH250024   1.200   1.468   0.789 -0.4985 -0.0566 -0.4892
 8610TIP3    H150025   1.251   1.417   0.726 -1.4294 -0.9778 -0.5215
 8610TIP3    H250026   1.262   1.486   0.860 -0.3677 -2.0537 -0.0350
 8611TIP3   OH250027   6.419   1.387   6.698  0.1846 -0.8136 -0.3809
 8611TIP3    H150028   6.340   1.419   6.742  0.1213 -1.1148 -0.2723
 8611TIP3    H250029   6.402   1.294   6.684  1.5928 -1.5108  2.0268
 8612TIP3   OH250030   6.944   2.298   2.956  0.4067  0.3700  0.4913
 8612TIP3    H150031   7.006   2.287   3.028 -1.0712 -0.0681  1.7431
 8612TIP3    H250032   6.868   2.340   2.996 -0.1167  0.9136 -1.0151
 8613TIP3   OH250033   0.610   6.801   9.655  0.0601 -0.4332 -0.5698
 8613TIP3    H150034   0.695   6.836   9.682 -0.3895 -0.6302  1.2303
 8613TIP3    H250035   0.565   6.875   9.615 -0.6374  1.0269  2.6067
 8614TIP3   OH250036   3.842   1.684   8.975 -0.2618 -0.4991 -0.0809
 8614TIP3    H150037   3.747   1.687   8.985 -0.3425 -1.3549 -0.5542
 8614TIP3    H250038   3.867   1.598   9.008  0.5025  0.2018  1.2322
 8615TIP3   OH250039   4.035   1.678   9.276  0.1382 -0.3232 -0.2029
 8615TIP3    H150040   4.076   1.638   9.199 -0.0529  0.7802 -0.9188
 8615TIP3    H250041   4.092   1.752   9.297 -0.1965 -0.1969  0.2751
 8616TIP3   OH250042   2.006   0.457   8.822 -0.3123  0.2886 -0.2050
 8616TIP3    H150043   2.049   0.453   8.908  0.9750  0.4796 -0.8108
 8616TIP3    H250044   1.919   0.493   8.841 -0.8055 -1.5036  1.2618
 8617TIP3   OH250045   0.065   1.985   1.340  0.4350  0.4058 -0.3347
 8617TIP3    H150046   0.113   1.906   1.363  0.1756  0.4177  0.2545
 8617TIP3    H250047   0.132   2.054   1.339  0.6002  0.2451 -0.5042
 8618TIP3   OH250048   2.516   6.144   7.959  0.6189  0.2456  0.1988
 8618TIP3    H150049   2.442   6.204   7.955  0.1362 -0.3933 -0.9019
 8618TIP3    H250050   2.490   6.077   8.023 -0.4920 -0.8848 -1.3630
 8619TIP3   OH250051   0.790   5.063   1.073 -0.4339  0.1609  0.4276
 8619TIP3    H150052   0.744   4.985   1.105  0.1364 -0.3287  0.0752
 8619TIP3    H250053   0.796   5.120   1.150  0.7701 -0.9293  1.1896
 8620TIP3   OH250054   2.942   0.177   2.700  0.0346 -0.6897 -0.5905
 8620TIP3    H150055   2.892   0.225   2.766  0.3147 -0.2699 -0.6800
 8620TIP3    H250056   2.980   0.244   2.644  1.9076 -0.8838  0.3402
 8621TIP3   OH250057   1.100   4.151   2.766 -0.0676  0.8282  0.4463
 8621TIP3    H150058   1.050   4.222   2.724  0.7792  1.4211  0.4258
 8621TIP3    H250059   1.035   4.105   2.818 -1.5576 -0.9196 -2.6797
 8622TIP3   OH250060   5.882   3.563   7.785  0.2242  0.2494  0.2863
 8622TIP3    H150061   5.803   3.578   7.837  0.7483  1.6721  0.7269
 8622TIP3    H250062   5.876   3.625   7.712  1.7725  1.7427  1.3397
 8623TIP3   OH250063   7.083   1.459   1.259 -0.2870 -0.1928  0.1557
 8623TIP3    H150064   7.077   1.528   1.325 -1.7538 -1.6165  1.6083
 8623TIP3    H250065   7.121   1.384   1.305 -0.1215 -0.8194 -0.9574
 8624TIP3   OH250066   6.309   5.231   9.222 -0.5783  0.0298  0.4586
 8624TIP3    H150067   6.331   5.143   9.251 -0.2959 -0.1313 -0.2304
 8624TIP3    H250068   6.248   5.218   9.150  1.7621  0.2442 -1.7166
 8625TIP3   OH250069   6.511   0.416   3.339 -0.1394 -0.5289 -0.2418
 8625TIP3    H150070   6.488   0.340   3.287 -1.4242 -0.0231 -0.4639
 8625TIP3    H250071   6.462   0.404   3.421 -0.2354 -0.0239 -0.2222
 8626TIP3   OH250072   1.039   6.860   9.578 -0.1388 -0.5299  0.4762
 8626TIP3    H150073   0.964   6.892   9.628 -0.0813  0.8472 -0.2796
 8626TIP3    H250074   1.033   6.903   9.493  0.2112 -2.2106 -0.4634
 8627TIP3   OH250075   3.935   4.525   8.358  0.8949 -0.5668 -0.3545
 8627TIP3    H150076   3.933   4.617   8.384  1.8884 -0.1400 -1.6978
 8627TIP3    H250077   4.017   4.515   8.310  0.2099 -1.8595 -1.3192
 8628TIP3   OH250078   3.015   2.127   8.419  0.1662 -0.0672  0.3826
 8628TIP3    H150079   3.033   2.059   8.355  0.0265 -1.2925  1.5948
 8628TIP3    H250080   3.098   2.173   8.431  1.1732 -2.1396  1.9103
 8629TIP3   OH250081   3.908   3.966   0.047 -0.0572 -0.1967 -0.5576
 8629TIP3    H150082   3.980   4.007   0.094  1.2500  0.4194 -2.9561
 8629TIP3    H250083   3.934   3.874   0.038 -1.0848 -0.7293  1.2245
 8630TIP3   OH250084   5.137   1.640   9.759  0.1207 -0.0353 -0.1965
 8630TIP3    H150085   5.068   1.706   9.771  0.1595  0.3044 -1.7386
 8630TIP3    H250086   5.143   1.598   9.845 -0.2282  1.6489  0.7085
 8631TIP3   OH250087   1.149   0.447   2.149 -0.3070  0.1646 -0.0825
 8631TIP3    H150088   1.135   0.357   2.179  0.3228  0.2602  0.5044
 8631TIP3    H250089   1.107   0.501   2.215 -0.2615  0.3233 -0.1837
 8632TIP3   OH250090   7.672   0.628   2.433  0.1296  0.1132 -0.2334
 8632TIP3    H150091   7.642   0.636   2.524  0.4113 -1.2593  0.0112
 8632TIP3    H250092   7.599   0.660   2.381 -2.2116 -3.6465  0.3212
 8633TIP3   OH250093   4.906   0.638   9.320  0.6472  0.1142  0.0164
 8633TIP3    H150094   4.942   0.637   9.232  1.0863 -2.0742  0.1743
 8633TIP3    H250095   4.952   0.568   9.366  1.6349  2.2502  2.5171
 8634TIP3   OH250096   0.390   0.073   8.956 -0.4518  0.5189 -0.4871
 8634TIP3    H150097   0.362   0.161   8.983 -1.1953  0.3252 -0.5930
 8634TIP3    H250098   0.350   0.061   8.870 -0.5684 -0.0224 -0.3569
 8635TIP3   OH250099   0.567   5.752   7.980  0.1060 -0.1112 -0.7177
 8635TIP3    H150100   0.615   5.762   8.062 -0.5397  1.1817 -0.4673
 8635TIP3    H250101   0.520   5.669   7.989  0.0471  0.0189  0.2265
 8636TIP3   OH250102   4.544   6.287   9.812  0.1594  0.2105 -0.1654
 8636TIP3    H150103   4.581   6.200   9.822  1.4102  0.8083  0.6453
 8636TIP3    H250104   4.555   6.308   9.719  1.0722  0.0313 -0.1013
 8637TIP3   OH250105   1.006   5.706   7.315 -0.2487  0.6753  0.9587
 8637TIP3    H150106   0.911   5.716   7.326 -0.4792 -1.7494  1.7303
 8637TIP3    H250107   1.029   5.634   7.372  2.0397  0.9589  0.4799
 8638TIP3   OH250108   4.487   4.912   8.184  0.1180  0.4992  0.7710
 8638TIP3    H150109   4.419   4.962   8.229 -0.2243 -0.7823  1.7084
 8638TIP3    H250110   4.443   4.877   8.106  0.0873  0.8075  0.6473
 8639TIP3   OH250111   2.295   2.047   1.927  0.1162  0.6759 -0.5466
 8639TIP3    H150112   2.257   1.961   1.943  0.8138  0.0839 -1.9494
 8639TIP3    H250113   2.284   2.094   2.010  1.8079 -1.5266  1.0382
 8640TIP3   OH250114   1.065   3.773   7.548  0.7840 -0.1145  0.2096
 8640TIP3    H150115   1.031   3.849   7.595 -0.2213 -0.9419  0.8800
 8640TIP3    H250116   1.098   3.715   7.616  0.6006 -0.7206 -0.2058
 8641TIP3   OH250117   5.923   2.189   8.078  0.2018 -0.0582  0.5473
 8641TIP3    H150118   5.937   2.263   8.137  0.4903 -0.0324  0.4455
 8641TIP3    H250119   5.917   2.228   7.991 -0.8194 -0.0357  0.6190
 8642TIP3   OH250120   1.628   0.537   0.952 -0.0494 -0.8616  0.2011
 8642TIP3    H150121   1.675   0.525   1.035  1.1875  0.8047 -0.2015
 8642TIP3    H250122   1.535   0.534   0.977  0.2844 -1.5412  1.4501
 8643TIP3   OH250123   4.112   6.385   7.987 -0.1185  0.1031 -0.3690
 8643TIP3    H150124   4.024   6.379   8.023  0.1116  0.6348  0.3146
 8643TIP3    H250125   4.153   6.457   8.035  0.6491 -0.0528 -0.7626
 8644TIP3   OH250126   0.878   2.154   9.136  0.2032 -0.3684  0.0244
 8644TIP3    H150127   0.805   2.186   9.083  0.6569  1.3990  0.4044
 8644TIP3    H250128   0.917   2.233   9.173  0.9868 -1.4287  1.5635
 8645TIP3   OH250129   3.457   5.322   8.978  0.3194 -0.0706 -0.2098
 8645TIP3    H150130   3.434   5.369   9.057 -0.3362 -0.6330 -0.0517
 8645TIP3    H250131   3.384   5.261   8.964  1.6307 -1.8235  0.2146
 8646TIP3   OH250132   1.146   2.698   7.437  0.7506 -0.1759 -0.1649
 8646TIP3    H150133   1.183   2.779   7.401 -1.0506  0.5587 -0.4807
 8646TIP3    H250134   1.153   2.708   7.532  1.2340  0.0069 -0.2178
 8647TIP3   OH250135   6.582   7.593   2.976 -0.2772  0.5378  0.0022
 8647TIP3    H150136   6.607   7.592   3.069 -0.4800 -3.6051  0.2107
 8647TIP3    H250137   6.510   7.655   2.971  0.5730  1.8464  2.3393
 8648TIP3   OH250138   2.240   4.029   8.134  0.1029 -0.1761  0.4088
 8648TIP3    H150139   2.173   4.045   8.067 -0.1557  0.3381  0.7815
 8648TIP3    H250140   2.225   3.939   8.162 -0.0792 -0.2428  0.1045
 8649TIP3   OH250141   6.914   2.914   1.320  0.2205  0.0505  0.1619
 8649TIP3    H150142   6.933   2.844   1.257  0.4066  0.1552  0.1015
 8649TIP3    H250143   6.999   2.952   1.340 -0.0579  1.4165 -1.1337
 8650TIP3   OH250144   2.165   4.083   7.533  0.0096  0.3226  0.5275
 8650TIP3    H150145   2.244   4.037   7.561  0.1269  0.2428  0.0735
 8650TIP3    H250146   2.098   4.055   7.596 -0.5346 -2.3826 -1.0658
 8651TIP3   OH250147   1.261   0.576   7.548  0.3726 -0.1034 -0.8160
 8651TIP3    H150148   1.228   0.557   7.637  0.5877 -1.2043 -0.9595
 8651TIP3    H250149   1.310   0.658   7.558  1.2541 -0.7384  0.2993
 8652TIP3   OH250150   1.966   6.615   1.008 -0.3062 -0.0961  0.3924
 8652TIP3    H150151   2.019   6.556   1.062 -1.0553 -0.8979  0.2656
 8652TIP3    H250152   1.884   6.626   1.057 -1.8802 -2.5400 -1.4825
 8653TIP3   OH250153   0.813   1.677   7.391 -0.1629 -0.1227  0.5639
 8653TIP3    H150154   0.907   1.691   7.377 -0.6947  2.4875 -1.1873
 8653TIP3    H250155   0.798   1.587   7.363  1.7271 -0.3554  0.1666
 8654TIP3   OH250156   0.597   2.034   1.269 -0.2036 -0.1293  0.0985
 8654TIP3    H150157   0.682   1.994   1.285 -0.0274 -0.0101 -0.5236
 8654TIP3    H250158   0.613   2.128   1.272 -0.2903 -0.1064 -0.1314
 8655TIP3   OH250159   1.338   1.414   2.520  0.2097  0.2508  0.1499
 8655TIP3    H150160   1.338   1.472   2.596 -0.1515  0.7645 -0.2324
 8655TIP3    H250161   1.428   1.416   2.488  0.3342  0.1284  0.4880
 8656TIP3   OH250162   2.998   4.881   1.113  0.1556 -0.1192  0.0772
 8656TIP3    H150163   3.077   4.828   1.125 -1.6164 -2.4560  2.3926
 8656TIP3    H250164   3.010   4.955   1.172  0.0433 -1.2164  1.5167
 8657TIP3   OH250165   2.310   1.493   0.149 -0.4519 -0.3055  0.0146
 8657TIP3    H150166   2.235   1.486   0.209 -1.5781  2.2641 -0.9112
 8657TIP3    H250167   2.271   1.483   0.062  0.1894  1.2346 -0.4873
 8658TIP3   OH250168   6.403   5.618   7.861 -0.0158  0.4934  0.1063
 8658TIP3    H150169   6.397   5.671   7.941 -0.7512  2.1104 -0.9863
 8658TIP3    H250170   6.395   5.680   7.790 -2.9532 -1.2810 -1.2809
 8659TIP3   OH250171   2.103   1.159   0.430 -0.1871  0.0141 -0.1581
 8659TIP3    H150172   2.106   1.100   0.355  2.6492 -0.1808 -0.0082
 8659TIP3    H250173   2.194   1.183   0.445 -0.7770  0.9294  2.5439
 8660TIP3   OH250174   7.108   1.136   0.923 -0.5154 -0.0433 -0.0809
 8660TIP3    H150175   7.143   1.205   0.866  0.5176 -0.2200  0.3195
 8660TIP3    H250176   7.145   1.155   1.009 -0.8611 -0.6371  0.2052
 8661TIP3   OH250177   2.451   0.124   0.370  0.2819 -0.4022 -0.3397
 8661TIP3    H150178   2.383   0.060   0.346 -0.9204  0.3208  0.9460
 8661TIP3    H250179   2.403   0.193   0.416  1.7620  0.6924 -0.3659
 8662TIP3   OH250180   0.438   4.267   0.771 -0.5070 -0.7983 -0.4991
 8662TIP3    H150181   0.483   4.185   0.751 -1.0489 -1.3733  0.5516
 8662TIP3    H250182   0.471   4.292   0.857 -1.1134 -0.4683 -0.3579
 8663TIP3   OH250183   2.119   4.645   2.331  0.0432  0.2704  0.5227
 8663TIP3    H150184   2.067   4.623   2.254  0.1969 -0.3939  0.6000
 8663TIP3    H250185   2.160   4.729   2.310 -0.4126  0.3995  0.1398
 8664TIP3   OH250186   7.376   6.712   7.057  0.1112  0.9149 -0.0963
 8664TIP3    H150187   7.431   6.675   6.988  0.4041 -0.9131  1.0699
 8664TIP3    H250188   7.289   6.714   7.019  0.6301  2.0705 -1.2978
 8665TIP3   OH250189   1.825   0.853   3.247  0.2482 -0.0639 -0.4037
 8665TIP3    H150190   1.896   0.916   3.234 -1.0651  1.4181 -0.7597
 8665TIP3    H250191   1.750   0.892   3.202 -1.4995 -0.2447  2.1079
 8666TIP3   OH250192   6.594   1.447   9.252  0.0231 -0.7507 -0.6131
 8666TIP3    H150193   6.650   1.432   9.327 -0.2238 -1.6611 -0.6031
 8666TIP3    H250194   6.559   1.361   9.229 -0.1561 -0.4437 -1.5719
 8667TIP3   OH250195   5.838   2.673   8.024  0.3845 -0.1398  0.7673
 8667TIP3    H150196   5.874   2.744   7.970  0.1783 -2.4035 -2.6883
 8667TIP3    H250197   5.750   2.702   8.046  0.6153  1.0561  0.2080
 8668TIP3   OH250198   7.246   5.569   0.865 -0.3446 -0.2244  0.3821
 8668TIP3    H150199   7.218   5.660   0.875  0.5953  0.0910  0.2238
 8668TIP3    H250200   7.338   5.568   0.892  0.0515 -0.8427 -0.8645
 8669TIP3   OH250201   3.113   7.536   8.072 -0.2460  0.3314 -0.7407
 8669TIP3    H150202   3.115   7.505   7.982  0.1805  1.6065 -1.1754
 8669TIP3    H250203   3.021   7.525   8.099 -0.0926 -1.4631 -0.7917
 8670TIP3   OH250204   4.995   6.611   1.822 -0.6039  0.3776  0.4587
 8670TIP3    H150205   4.976   6.559   1.900  0.9935  0.0855  0.6822
 8670TIP3    H250206   5.022   6.696   1.857 -3.5386  1.6037  0.0976
 8671TIP3   OH250207   7.237   2.842   7.575 -0.3120  0.0085  0.1312
 8671TIP3    H150208   7.165   2.893   7.611 -0.1172  0.7715 -0.5381
 8671TIP3    H250209   7.316   2.889   7.603 -0.1275  0.0032 -0.3765
 8672TIP3   OH250210   7.279   3.634   1.372 -0.4273  0.1490 -0.3483
 8672TIP3    H150211   7.235   3.564   1.421 -0.7390 -0.5277 -1.5591
 8672TIP3    H250212   7.329   3.588   1.305  0.4681  1.0297 -0.3036
 8673TIP3   OH250213   5.707   6.155   0.135 -0.0919 -0.0239  0.1522
 8673TIP3    H150214   5.746   6.080   0.089 -0.5160 -1.5939  2.1790
 8673TIP3    H250215   5.613   6.145   0.121 -0.0691  2.2825 -2.5565
 8674TIP3   OH250216   3.398   0.776   1.776 -0.0427 -0.1814 -0.3542
 8674TIP3    H150217   3.450   0.824   1.840 -1.1199  0.2672  0.2176
 8674TIP3    H250218   3.451   0.777   1.696  0.6642  0.5570  0.1065
 8675TIP3   OH250219   5.386   5.067   9.281 -0.1705  1.3157 -0.0764
 8675TIP3    H150220   5.393   5.139   9.218 -1.9212  1.6407  0.0418
 8675TIP3    H250221   5.467   5.072   9.332  1.6951  0.5491 -2.7315
 8676TIP3   OH250222   6.912   1.704   9.910  0.1231  0.3049 -0.1729
 8676TIP3    H150223   6.833   1.717   9.857  1.1718  0.6019 -1.7017
 8676TIP3    H250224   6.885   1.728   9.999 -1.5623  0.1841 -0.6227
 8677TIP3   OH250225   5.285   7.320   2.240 -0.2836  0.2046  0.2560
 8677TIP3    H150226   5.235   7.321   2.158 -0.5305  0.1129  0.4034
 8677TIP3    H250227   5.236   7.260   2.296  0.6939 -0.8906 -0.0343
 8678TIP3   OH250228   1.707   2.142   0.346 -0.2813 -0.2666 -0.3318
 8678TIP3    H150229   1.758   2.146   0.265  0.2920  1.1254  0.0639
 8678TIP3    H250230   1.729   2.058   0.385  1.7077  0.2769 -0.2022
 8679TIP3   OH250231   7.629   5.191   7.756  0.2495 -0.0878  0.2336
 8679TIP3    H150232   7.641   5.122   7.822  1.9471  0.2037  0.2705
 8679TIP3    H250233   7.717   5.224   7.740 -0.0849 -0.2828 -2.3585
 8680TIP3   OH250234   4.100   0.451   7.208 -0.0393  0.2689 -0.0130
 8680TIP3    H150235   4.033   0.492   7.262 -1.0325 -0.5180 -0.6111
 8680TIP3    H250236   4.053   0.421   7.130  1.0482 -0.1344 -0.5387
 8681TIP3   OH250237   4.095   6.830   8.705 -0.1844  0.5782 -0.7177
 8681TIP3    H150238   4.167   6.893   8.710 -0.8374  1.3430 -0.8017
 8681TIP3    H250239   4.138   6.745   8.699  0.7761  1.1288 -2.5846
 8682TIP3   OH250240   1.406   6.581   1.092  0.3888  0.2465  0.4719
 8682TIP3    H150241   1.478   6.565   1.031 -0.6655 -1.6337 -0.3792
 8682TIP3    H250242   1.356   6.653   1.053  0.9712  0.5656  0.3032
 8683TIP3   OH250243   2.810   2.486   3.287 -0.6506 -0.5881  0.3361
 8683TIP3    H150244   2.892   2.474   3.335 -0.7504 -0.3789  0.5618
 8683TIP3    H250245   2.834   2.475   3.195 -0.5321 -1.4022  0.4517
 8684TIP3   OH250246   4.926   2.456   7.630 -0.6084 -0.1494  0.2231
 8684TIP3    H150247   5.006   2.415   7.662  0.6061  1.9779  0.0779
 8684TIP3    H250248   4.903   2.406   7.552  2.1388  0.7815 -1.3041
 8685TIP3   OH250249   6.119   2.518   9.105  0.2942 -0.2561  0.0758
 8685TIP3    H150250   6.201   2.499   9.150  0.0530  0.7964  1.0179
 8685TIP3    H250251   6.068   2.568   9.168 -1.1059 -0.9263 -0.4773
 8686TIP3   OH250252   4.921   7.657   0.571 -0.1039 -0.4822  0.7445
 8686TIP3    H150253   4.852   7.717   0.544 -0.1623  0.3923  2.6776
 8686TIP3    H250254   4.902   7.575   0.525 -1.8122  0.0597  0.4463
 8687TIP3   OH250255   2.695   2.749   1.963 -0.4870  0.2215 -0.2719
 8687TIP3    H150256   2.753   2.825   1.951 -0.7122  0.1795 -1.8698
 8687TIP3    H250257   2.654   2.764   2.048  1.5212  0.4685  0.7039
 8688TIP3   OH250258   6.896   5.979   1.137 -0.5931  0.0868 -0.1277
 8688TIP3    H150259   6.946   6.048   1.180 -0.8392  0.1434  0.0658
 8688TIP3    H250260   6.953   5.902   1.142 -0.5505  0.1348  0.1511
 8689TIP3   OH250261   2.732   4.041   8.615 -0.5484 -0.0259 -0.1917
 8689TIP3    H150262   2.702   4.067   8.702  2.9788 -0.2525  1.2950
 8689TIP3    H250263   2.742   3.946   8.620  0.7424  0.0794 -0.4233
 8690TIP3   OH250264   5.755   1.136   7.251 -0.0843  0.0303 -0.2238
 8690TIP3    H150265   5.667   1.119   7.218  0.2723  0.4951 -1.4990
 8690TIP3    H250266   5.812   1.080   7.198  0.6079  1.4993 -1.0847
 8691TIP3   OH250267   6.597   2.862   8.176 -0.3401  0.4297  0.1454
 8691TIP3    H150268   6.624   2.863   8.084  0.0113 -1.1979  0.2010
 8691TIP3    H250269   6.636   2.782   8.212 -3.0249 -0.6739  0.9026
 8692TIP3   OH250270   0.522   6.569   0.902  0.1383  0.3093  0.3897
 8692TIP3    H150271   0.490   6.542   0.989 -0.4234  0.2439  0.1680
 8692TIP3    H250272   0.609   6.528   0.895 -0.4975 -1.0904  0.2456
 8693TIP3   OH250273   0.880   3.347   9.717 -0.2719 -0.1732  0.2383
 8693TIP3    H150274   0.828   3.286   9.664  0.8500 -0.3508 -0.6792
 8693TIP3    H250275   0.908   3.295   9.793 -1.7079  0.0253  0.9423
 8694TIP3   OH250276   4.577   7.184   9.790  0.7811  0.0540  0.0395
 8694TIP3    H150277   4.540   7.199   9.703  1.4873 -0.6912 -0.4111
 8694TIP3    H250278   4.672   7.188   9.776  0.9367 -1.3526  0.5130
 8695TIP3   OH250279   0.282   4.417   9.801 -0.7814 -0.3047 -0.0287
 8695TIP3    H150280   0.344   4.345   9.812 -1.1341 -0.4603  1.1438
 8695TIP3    H250281   0.318   4.470   9.730  0.0161 -1.0863 -0.2183
 8696TIP3   OH250282   6.552   1.243   2.258 -0.0014  0.1962  0.4505
 8696TIP3    H150283   6.622   1.270   2.318  2.0772 -0.2886 -1.6205
 8696TIP3    H250284   6.508   1.324   2.234  0.6525  0.6774  0.8391
 8697TIP3   OH250285   2.254   0.335   0.993 -0.2838 -0.6827  0.5605
 8697TIP3    H150286   2.331   0.364   1.042 -0.4344  1.5643 -0.4036
 8697TIP3    H250287   2.181   0.383   1.033 -0.5340  0.4918 -1.1804
 8698TIP3   OH250288   6.690   5.775   9.213 -0.1302  0.2597  0.2540
 8698TIP3    H150289   6.776   5.795   9.250 -0.9051  1.8494  1.3207
 8698TIP3    H250290   6.639   5.741   9.286 -0.7332  0.3918 -0.0917
 8699TIP3   OH250291   3.604   0.182   0.420  0.6222  0.0616  0.2359
 8699TIP3    H150292   3.672   0.238   0.380 -1.5776  1.3948 -1.8990
 8699TIP3    H250293   3.556   0.241   0.478 -0.7460  0.0279 -0.8237
 8700TIP3   OH250294   2.773   6.219   3.244  0.2836 -0.5877 -0.2184
 8700TIP3    H150295   2.790   6.125   3.252 -0.4979 -0.5802  2.5627
 8700TIP3    H250296   2.854   6.260   3.275 -0.4120 -0.4420  1.5398
 8701TIP3   OH250297   3.848   6.110   8.592 -0.3517  0.1041 -0.6881
 8701TIP3    H150298   3.880   6.173   8.658  1.2849 -0.5678 -0.7863
 8701TIP3    H250299   3.775   6.065   8.635 -0.2219  0.6569  0.1425
 8702TIP3   OH250300   6.526   1.476   9.936 -0.4106 -0.0084  0.5341
 8702TIP3    H150301   6.567   1.554   9.972 -1.0890  0.5328  0.1740
 8702TIP3    H250302   6.522   1.414  10.009 -0.1422  0.4055  0.9031
 8703TIP3   OH250303   5.059   4.962   8.869  0.0645  0.0437 -0.2385
 8703TIP3    H150304   5.143   4.917   8.879  0.6090  0.8029 -1.1962
 8703TIP3    H250305   5.076   5.031   8.805 -1.0222  0.9059  0.3526
 8704TIP3   OH250306   1.977   3.072   7.309  0.2096  0.1244  0.8301
 8704TIP3    H150307   2.017   3.025   7.236 -1.5273 -0.7141  0.3544
 8704TIP3    H250308   2.049   3.120   7.349  1.3518 -0.0014 -0.9547
 8705TIP3   OH250309   1.749   5.249   0.945  0.3280  0.3146 -0.4989
 8705TIP3    H150310   1.741   5.260   1.040 -2.5829  0.3239 -0.6575
 8705TIP3    H250311   1.704   5.325   0.908  0.1538 -0.4206 -1.8510
 8706TIP3   OH250312   6.131   3.000   9.936 -0.3719  0.4344  0.3980
 8706TIP3    H150313   6.167   2.958  10.014  0.6757 -0.8572 -0.7280
 8706TIP3    H250314   6.204   3.003   9.874 -0.9195  2.2921 -0.2251
 8707TIP3   OH250315   0.518   0.723   8.762  0.5238 -0.1364 -0.5603
 8707TIP3    H150316   0.443   0.703   8.707 -0.8090  3.9224 -0.4964
 8707TIP3    H250317   0.481   0.729   8.851  0.8927  1.6887 -0.4991
 8708TIP3   OH250318   2.445   2.644   2.618  0.6070 -0.0659 -0.3531
 8708TIP3    H150319   2.523   2.674   2.570  0.1781  0.6762 -0.6005
 8708TIP3    H250320   2.422   2.718   2.674  0.6367 -0.6355  0.4293
 8709TIP3   OH250321   2.818   3.453   9.384  0.1911  0.1819  0.6456
 8709TIP3    H150322   2.767   3.441   9.304  2.9334 -0.4581 -1.1500
 8709TIP3    H250323   2.828   3.364   9.419  1.5120  0.0465 -0.0238
 8710TIP3   OH250324   1.364   2.437   7.040 -0.4761 -0.2166 -0.2608
 8710TIP3    H150325   1.404   2.350   7.050  0.3517  0.3367  1.5790
 8710TIP3    H250326   1.414   2.478   6.970  0.0366 -0.7149 -0.1970
 8711TIP3   OH250327   1.256   5.802   7.390 -0.3745 -0.0304  0.0946
 8711TIP3    H150328   1.269   5.896   7.402  0.0796  0.2653 -2.2823
 8711TIP3    H250329   1.162   5.792   7.379 -0.3231  0.2941 -0.6624
 8712TIP3   OH250330   5.483   7.185   8.089  0.4720  0.1107 -0.1247
 8712TIP3    H150331   5.439   7.127   8.152  0.9220 -2.1465 -1.7441
 8712TIP3    H250332   5.571   7.196   8.124  0.3075  0.0487  0.3251
 8713TIP3   OH250333   6.064   6.232   7.282  0.2009 -0.0596 -0.6076
 8713TIP3    H150334   6.029   6.216   7.195 -2.6532  1.4957  0.1319
 8713TIP3    H250335   6.115   6.154   7.303 -1.6030 -1.8304 -2.4591
 8714TIP3   OH250336   0.638   6.461   1.907  0.9921  0.2824 -0.0842
 8714TIP3    H150337   0.609   6.551   1.921  0.3183  0.1027 -0.2889
 8714TIP3    H250338   0.629   6.420   1.993 -0.5663 -0.0945 -0.3797
 8715TIP3   OH250339   6.812   5.836   7.895 -0.0749  0.1459  0.9787
 8715TIP3    H150340   6.747   5.772   7.923 -0.3220  0.3646  0.9120
 8715TIP3    H250341   6.771   5.882   7.822  0.8012 -0.8625 -0.2085
 8716TIP3   OH250342   7.125   5.839   7.993  0.8853  0.2244  0.3045
 8716TIP3    H150343   7.033   5.853   8.018  0.4835 -1.1678 -0.2696
 8716TIP3    H250344   7.167   5.923   8.008 -0.3504  0.7185  1.1938
 8717TIP3   OH250345   3.910   4.793   9.058 -0.3341 -0.2590  0.2365
 8717TIP3    H150346   4.003   4.789   9.080  0.0384  1.2627 -0.9204
 8717TIP3    H250347   3.902   4.868   8.999 -2.2965 -0.3832  0.2773
 8718TIP3   OH250348   3.481   3.706   7.025 -1.0482  0.0998  0.0529
 8718TIP3    H150349   3.409   3.762   7.052 -0.1754  1.6753 -0.7027
 8718TIP3    H250350   3.444   3.649   6.957 -1.5337  1.0934 -0.5360
 8719TIP3   OH250351   1.534   0.659   7.061 -0.7243 -0.2976  0.3198
 8719TIP3    H150352   1.463   0.610   7.019 -0.2661  0.8773 -2.0130
 8719TIP3    H250353   1.597   0.675   6.990  0.9792  0.3009  1.8999
 8720TIP3   OH250354   1.149   3.217   0.807 -0.1947 -0.0508 -0.6012
 8720TIP3    H150355   1.072   3.272   0.795 -0.0008  0.7379  1.4110
 8720TIP3    H250356   1.217   3.259   0.755 -0.5505  0.4976 -0.6267
 8721TIP3   OH250357   1.184   0.801   9.212 -0.1021 -0.2492  0.4262
 8721TIP3    H150358   1.261   0.784   9.266 -0.7427  0.2487  1.5261
 8721TIP3    H250359   1.110   0.779   9.269 -0.7892  0.0469 -0.3403
 8722TIP3   OH250360   2.382   5.451   7.505 -0.0468 -0.0344  0.0824
 8722TIP3    H150361   2.343   5.379   7.555  0.7944 -0.8174 -0.3470
 8722TIP3    H250362   2.435   5.407   7.438  0.3944  0.9925 -0.2636
 8723TIP3   OH250363   2.912   1.061   9.888  0.1788 -0.7722  0.1425
 8723TIP3    H150364   2.860   1.092   9.962 -1.9401  1.7121 -2.1450
 8723TIP3    H250365   2.908   0.966   9.893 -2.7068 -0.6737  1.3968
 8724TIP3   OH250366   3.048   3.610   7.352 -0.6754 -0.2291  0.5369
 8724TIP3    H150367   3.120   3.639   7.408 -0.4437 -1.8851  1.1611
 8724TIP3    H250368   2.971   3.653   7.389 -0.1567  0.8054  0.4515
 8725TIP3   OH250369   0.554   7.537   8.566 -0.1724  0.3286 -0.5872
 8725TIP3    H150370   0.650   7.529   8.561 -0.1496 -0.3256  0.5431
 8725TIP3    H250371   0.538   7.628   8.590  0.2450  0.0988  0.6257
 8726TIP3   OH250372   6.720   1.754   1.803 -0.5587 -0.2883 -0.0573
 8726TIP3    H150373   6.707   1.694   1.730 -0.4404 -0.0500 -0.2785
 8726TIP3    H250374   6.810   1.739   1.831 -0.4220  0.0134 -0.3258
 8727TIP3   OH250375   4.467   0.878   2.125 -0.8986  0.0202 -0.5291
 8727TIP3    H150376   4.457   0.966   2.161  0.5568 -0.2977  0.7629
 8727TIP3    H250377   4.379   0.840   2.130 -1.0499  0.5102  1.4369
 8728TIP3   OH250378   1.893   0.174   2.592 -0.4383 -0.5515  1.0424
 8728TIP3    H150379   1.832   0.142   2.658  1.2363 -1.0433  2.4305
 8728TIP3    H250380   1.844   0.241   2.544 -2.6653 -2.2562  0.7953
 8729TIP3   OH250381   0.903   5.663   0.580 -0.4123 -0.3091 -0.1455
 8729TIP3    H150382   0.948   5.679   0.497  4.0378 -2.0148  1.6114
 8729TIP3    H250383   0.919   5.741   0.632 -0.2287 -0.6064  0.2437
 8730TIP3   OH250384   1.270   4.360   9.480  0.0096  0.7796  0.5751
 8730TIP3    H150385   1.271   4.267   9.500 -0.0138  0.5779 -0.3253
 8730TIP3    H250386   1.361   4.381   9.458  0.2538  1.2407  1.9099
 8731TIP3   OH250387   1.362   2.707   7.852  0.1766 -0.1345  0.6002
 8731TIP3    H150388   1.284   2.748   7.816  1.0196 -0.3770 -1.6758
 8731TIP3    H250389   1.407   2.778   7.899 -0.0391  0.7251 -0.4477
 8732TIP3   OH250390   0.541   2.619   9.523 -0.5415 -0.2081  0.3181
 8732TIP3    H150391   0.593   2.676   9.579 -0.9754 -0.0540  0.5732
 8732TIP3    H250392   0.506   2.552   9.583 -1.5748  0.3574  0.3656
 8733TIP3   OH250393   0.855   3.699   7.347 -0.4043  0.3464  0.1012
 8733TIP3    H150394   0.927   3.724   7.405  0.2956 -1.8811  0.2832
 8733TIP3    H250395   0.895   3.692   7.261 -1.0034  1.6471 -0.3053
 8734TIP3   OH250396   4.816   4.309   9.016  0.2278  0.1946  0.0032
 8734TIP3    H150397   4.869   4.236   9.048 -0.8254 -1.6741 -2.2058
 8734TIP3    H250398   4.866   4.344   8.942  0.2450  1.0931  0.4234
 8735TIP3   OH250399   0.471   3.740   2.398 -0.4026 -0.5099  0.7515
 8735TIP3    H150400   0.423   3.674   2.449 -1.7315 -0.3939 -0.2746
 8735TIP3    H250401   0.449   3.823   2.440 -2.1138 -0.3338 -0.3834
 8736TIP3   OH250402   6.921   1.384   9.835 -0.2367  0.0900  0.3302
 8736TIP3    H150403   6.851   1.445   9.810 -2.4808 -2.2159  0.5988
 8736TIP3    H250404   6.917   1.381   9.930  0.2462 -0.0759  0.3489
 8737TIP3   OH250405   7.140   0.664   9.318 -0.1671 -0.6796  0.4951
 8737TIP3    H150406   7.081   0.740   9.316  0.7755  0.0711  0.3863
 8737TIP3    H250407   7.224   0.700   9.348  0.2244 -1.7345  0.6945
 8738TIP3   OH250408   3.794   6.915   7.471  0.1112  0.1523 -0.2627
 8738TIP3    H150409   3.753   6.942   7.552  0.0768 -0.6442 -0.0043
 8738TIP3    H250410   3.862   6.980   7.455  1.1575 -0.5338  1.2307
 8739TIP3   OH250411   6.646   1.524   6.634 -0.2685 -0.0684 -0.0689
 8739TIP3    H150412   6.556   1.500   6.656 -0.9430  0.6537 -1.8239
 8739TIP3    H250413   6.642   1.547   6.542  1.7466 -0.0357 -0.1825
 8740TIP3   OH250414   6.681   3.148   9.169 -0.0317  0.2826 -0.3515
 8740TIP3    H150415   6.608   3.099   9.207 -0.8778  0.6314 -1.4757
 8740TIP3    H250416   6.725   3.085   9.112  1.0141 -0.1337  0.8597
 8741TIP3   OH250417   5.500   7.401   1.357 -0.0617 -0.0979  0.3107
 8741TIP3    H150418   5.507   7.450   1.275 -0.1077  0.4659  0.6311
 8741TIP3    H250419   5.589   7.401   1.393  0.0665 -0.8091  0.0068
 8742TIP3   OH250420   1.898   1.549   1.090 -0.2670  0.2466  0.1047
 8742TIP3    H150421   1.882   1.641   1.111 -0.7088  0.2727 -0.3283
 8742TIP3    H250422   1.886   1.544   0.995 -0.9713 -0.3967  0.2152
 8743TIP3   OH250423   4.718   7.620   2.088  0.8897 -0.2242  0.6277
 8743TIP3    H150424   4.786   7.676   2.051  1.3795  0.5166  2.5203
 8743TIP3    H250425   4.640   7.637   2.035  1.6891  0.3581 -0.3787
 8744TIP3   OH250426   4.067   3.643   7.345 -0.2004  0.1831 -0.4332
 8744TIP3    H150427   4.006   3.717   7.341 -0.9302 -0.4245 -0.5964
 8744TIP3    H250428   4.096   3.642   7.437 -0.8345  0.1577 -0.2273
 8745TIP3   OH250429   2.842   4.885   2.694 -0.4627  0.3108 -0.2322
 8745TIP3    H150430   2.926   4.839   2.690  0.8064  2.0911  2.8952
 8745TIP3    H250431   2.846   4.948   2.622  0.3302 -0.4761 -0.8936
 8746TIP3   OH250432   2.447   3.983   3.050  1.0057 -0.0967  0.6782
 8746TIP3    H150433   2.404   4.068   3.044  0.2745 -0.4429  0.8907
 8746TIP3    H250434   2.540   4.002   3.036  0.7025  0.5672 -0.6214
 8747TIP3   OH250435   1.646   0.274   3.029 -0.6943  0.1855 -0.7512
 8747TIP3    H150436   1.643   0.318   2.944 -1.7709 -1.8936 -1.8799
 8747TIP3    H250437   1.563   0.296   3.071  0.1840  1.8857  0.1786
 8748TIP3   OH250438   3.208   5.029   7.756 -0.0785 -0.0754  0.1888
 8748TIP3    H150439   3.234   5.051   7.666 -1.4510  1.4702  0.1365
 8748TIP3    H250440   3.279   5.064   7.810  0.6224 -0.7717 -0.2603
 8749TIP3   OH250441   7.217   3.348   9.020  0.3618 -0.2236  0.4955
 8749TIP3    H150442   7.191   3.424   8.968  2.6263 -0.2138 -0.7328
 8749TIP3    H250443   7.176   3.274   8.976 -0.5340  0.0977  0.7569
 8750TIP3   OH250444   7.379   1.053   1.867 -0.1697 -0.0672  0.1541
 8750TIP3    H150445   7.310   1.006   1.915  0.4007 -0.5593  0.4990
 8750TIP3    H250446   7.371   1.144   1.897  1.4604 -0.6812  2.7814
 8751TIP3   OH250447   1.625   6.206   6.917 -0.1026  0.7336  0.3772
 8751TIP3    H150448   1.622   6.286   6.865 -2.5677  0.6234  0.2181
 8751TIP3    H250449   1.717   6.180   6.916  0.1588  1.2838 -3.0746
 8752TIP3   OH250450   4.007   4.656   9.788  0.0994  0.0187  0.1791
 8752TIP3    H150451   3.952   4.618   9.719  0.5577  1.2329 -0.8838
 8752TIP3    H250452   4.095   4.626   9.768  0.7802  2.9331 -1.7371
 8753TIP3   OH250453   3.738   0.088   9.738  0.3437 -0.4141  0.4583
 8753TIP3    H150454   3.832   0.098   9.755  0.4387 -1.7077  0.7847
 8753TIP3    H250455   3.733   0.059   9.647  0.3303 -1.3093  0.7376
 8754TIP3   OH250456   6.017   1.324   1.952  0.7899  0.4798  0.2025
 8754TIP3    H150457   6.064   1.353   2.030  2.6445 -2.2075  0.2185
 8754TIP3    H250458   5.992   1.405   1.908 -0.5030  2.1267  3.5860
 8755TIP3   OH250459   0.683   2.944   1.326  0.5588 -0.0107  0.0469
 8755TIP3    H150460   0.721   2.953   1.238  1.4390  0.1030  0.4287
 8755TIP3    H250461   0.708   2.855   1.353 -1.5563 -0.8717 -0.6624
 8756TIP3   OH250462   4.830   3.172   0.342 -0.8735 -0.3142  0.3381
 8756TIP3    H150463   4.831   3.148   0.434 -0.3543 -0.8509  0.2014
 8756TIP3    H250464   4.788   3.258   0.339 -0.6180 -0.1622  1.1045
 8757TIP3   OH250465   5.283   6.697   7.966 -0.3433 -0.3256 -0.7976
 8757TIP3    H150466   5.320   6.664   8.048  0.6400 -1.5880 -1.7164
 8757TIP3    H250467   5.188   6.695   7.979 -0.1985  1.3375  0.9883
 8758TIP3   OH250468   7.006   7.295   2.353 -0.3197  0.5575 -0.4757
 8758TIP3    H150469   7.002   7.230   2.283 -0.2635  1.9937 -1.8491
 8758TIP3    H250470   7.090   7.339   2.341 -1.0767  2.0218 -0.6410
 8759TIP3   OH250471   4.503   1.512   1.278  0.0107  0.1390  0.5489
 8759TIP3    H150472   4.426   1.543   1.325 -0.4401  2.0389 -1.2884
 8759TIP3    H250473   4.486   1.535   1.187  2.6108  0.3597  0.0422
 8760TIP3   OH250474   2.250   5.883   1.518 -0.6653  0.3433  0.0813
 8760TIP3    H150475   2.204   5.838   1.447  2.3176 -0.4961 -1.5101
 8760TIP3    H250476   2.210   5.970   1.521 -1.1273  0.2951 -2.4384
 8761TIP3   OH250477   3.983   2.351   7.539  0.3155 -0.2089 -0.0952
 8761TIP3    H150478   3.961   2.344   7.632 -0.8826  1.8582 -0.1537
 8761TIP3    H250479   3.912   2.305   7.494  0.5756 -0.6971 -0.0075
 8762TIP3   OH250480   2.030   5.595   8.723 -0.2299 -0.1003 -0.0497
 8762TIP3    H150481   2.011   5.682   8.760  1.5399  0.4089 -0.2253
 8762TIP3    H250482   2.115   5.572   8.760 -1.7235 -2.9220  1.9342
 8763TIP3   OH250483   4.401   2.475   8.486  0.1489 -0.0421 -0.2445
 8763TIP3    H150484   4.325   2.463   8.429 -0.9779  1.1992  0.9173
 8763TIP3    H250485   4.364   2.500   8.571  1.8563  0.9577  0.2621
 8764TIP3   OH250486   4.610   7.609   1.449 -0.1930  0.3296  0.2171
 8764TIP3    H150487   4.626   7.697   1.485 -0.3061  1.1579 -1.6539
 8764TIP3    H250488   4.681   7.594   1.388 -0.2092 -0.8865  0.4629
 8765TIP3   OH250489   1.216   4.394   2.445 -0.0660  0.4061 -0.0102
 8765TIP3    H150490   1.274   4.451   2.495 -1.0997  0.1257  1.5581
 8765TIP3    H250491   1.248   4.306   2.463 -0.7442  0.2740  0.5824
 8766TIP3   OH250492   2.801   7.134   2.713 -0.0641  0.1304  0.3127
 8766TIP3    H150493   2.761   7.208   2.758 -1.0162 -0.4675  0.4979
 8766TIP3    H250494   2.730   7.099   2.659  0.7421  0.1404 -0.7703
 8767TIP3   OH250495   2.699   2.316   1.425  0.0043  0.5321  0.2422
 8767TIP3    H150496   2.698   2.411   1.427 -1.2090  0.5560 -0.3696
 8767TIP3    H250497   2.657   2.293   1.342 -1.4153 -0.5305  1.1926
 8768TIP3   OH250498   5.572   0.248   7.760 -0.4295 -0.6567  0.4081
 8768TIP3    H150499   5.482   0.242   7.727  0.1633 -1.2700 -1.1812
 8768TIP3    H250500   5.564   0.298   7.842 -2.3075 -1.3992  0.7324
 8769TIP3   OH250501   5.440   1.730   0.825 -0.1400 -0.7985 -0.4511
 8769TIP3    H150502   5.346   1.739   0.837 -0.3132 -1.6822 -1.1100
 8769TIP3    H250503   5.458   1.774   0.742  0.3748  1.2415  0.6633
 8770TIP3   OH250504   4.411   3.611   8.074  0.2967 -0.4866 -0.2361
 8770TIP3    H150505   4.369   3.535   8.034  0.2201 -0.7865  0.3904
 8770TIP3    H250506   4.338   3.666   8.103  0.3376  0.7448 -2.3286
 8771TIP3   OH250507   3.239   6.660   0.222 -0.1645 -0.6422  0.0464
 8771TIP3    H150508   3.289   6.706   0.155 -1.9205 -1.3437 -1.8654
 8771TIP3    H250509   3.187   6.727   0.265  0.4179 -0.2952  0.2239
 8772TIP3   OH250510   0.797   2.275   0.578 -0.0739  0.8009 -0.0147
 8772TIP3    H150511   0.848   2.354   0.559 -0.2451  1.3655  1.7540
 8772TIP3    H250512   0.745   2.297   0.655  0.2397 -1.2019  0.8322
 8773TIP3   OH250513   5.847   3.351   9.268  0.0607 -0.6330  0.3956
 8773TIP3    H150514   5.854   3.371   9.361  1.3495 -2.2763  0.6987
 8773TIP3    H250515   5.931   3.380   9.231 -1.3853  2.4301 -0.8304
 8774TIP3   OH250516   2.351   2.946   0.948 -0.0038  0.1653  0.2040
 8774TIP3    H150517   2.322   2.856   0.960 -0.2321  0.4721  2.3437
 8774TIP3    H250518   2.322   2.991   1.028  2.3752  1.5386  0.3761
 8775TIP3   OH250519   5.291   0.732   2.554 -0.0478  0.1049  0.0117
 8775TIP3    H150520   5.381   0.762   2.544 -0.5166  1.7944  0.4352
 8775TIP3    H250521   5.263   0.766   2.640 -0.3024 -2.6100  1.0958
 8776TIP3   OH250522   4.234   0.178   8.326  0.3524 -0.0207  0.5932
 8776TIP3    H150523   4.145   0.168   8.293  0.8145  1.5160 -1.3143
 8776TIP3    H250524   4.263   0.089   8.345 -0.6781 -0.8368 -1.3525
 8777TIP3   OH250525   6.856   0.412   9.427  0.3490  0.2618  0.1091
 8777TIP3    H150526   6.764   0.430   9.409  0.9685  2.2100 -1.5531
 8777TIP3    H250527   6.875   0.459   9.508  0.3117  1.6013 -0.6206
 8778TIP3   OH250528   1.780   6.845   8.575  0.0446  0.2379  0.0958
 8778TIP3    H150529   1.727   6.767   8.558 -0.8359  0.9078 -0.3532
 8778TIP3    H250530   1.784   6.850   8.671 -2.2504  1.1229  0.2242
 8779TIP3   OH250531   1.354   2.338   0.621 -0.0312  0.1285 -0.5700
 8779TIP3    H150532   1.409   2.347   0.699 -1.9253 -0.2172  0.8862
 8779TIP3    H250533   1.358   2.423   0.578 -1.8772  1.7044  2.0243
 8780TIP3   OH250534   2.613   5.428   1.814 -0.0888 -0.3471  0.1010
 8780TIP3    H150535   2.611   5.337   1.844 -0.1065 -0.1583  0.6877
 8780TIP3    H250536   2.533   5.437   1.762  0.3370 -0.8937 -0.6534
 8781TIP3   OH250537   6.468   1.551   1.923  0.0217 -0.4307 -0.1822
 8781TIP3    H150538   6.521   1.516   1.994  0.9154  2.9716  0.9951
 8781TIP3    H250539   6.385   1.577   1.963 -0.0780  0.0874 -0.6963
 8782TIP3   OH250540   2.678   2.591   1.439 -0.4940 -0.2959  0.6431
 8782TIP3    H150541   2.732   2.623   1.511 -0.2827 -0.5670  0.6087
 8782TIP3    H250542   2.621   2.664   1.416  1.0470  0.6150 -0.4913
 8783TIP3   OH250543   1.367   7.015   1.062 -0.0683  0.0453  0.0717
 8783TIP3    H150544   1.279   7.051   1.058 -0.5029 -0.9462  0.4154
 8783TIP3    H250545   1.418   7.069   1.002 -0.5777  1.5171  0.9169
 8784TIP3   OH250546   3.971   4.433   7.140 -0.9918  0.2288 -0.1415
 8784TIP3    H150547   3.887   4.400   7.108 -1.5353  1.4781 -0.0753
 8784TIP3    H250548   4.037   4.379   7.096 -1.8226 -0.6309 -0.3484
 8785TIP3   OH250549   7.271   3.848   1.222  0.3109 -0.1510  0.1953
 8785TIP3    H150550   7.263   3.773   1.281 -2.9270 -0.1344 -0.0551
 8785TIP3    H250551   7.294   3.921   1.279 -0.6414 -0.5504  1.1259
 8786TIP3   OH250552   3.544   5.527   1.418 -0.2930  0.2050  0.1646
 8786TIP3    H150553   3.482   5.459   1.445 -2.7511  1.8163 -1.0434
 8786TIP3    H250554   3.554   5.515   1.324 -0.8484  1.5215 -0.0851
 8787TIP3   OH250555   6.129   6.992   1.002 -0.5994  0.1597  0.3649
 8787TIP3    H150556   6.133   7.088   1.004 -1.1394  0.1854  1.6904
 8787TIP3    H250557   6.162   6.968   0.916  1.9632  1.4182  0.8918
 8788TIP3   OH250558   0.185   0.180   8.045  0.3868  0.0733  0.2046
 8788TIP3    H150559   0.176   0.273   8.022 -0.9961 -0.3578 -1.1765
 8788TIP3    H250560   0.279   0.162   8.037  0.4281  0.8747 -1.6181
 8789TIP3   OH250561   5.749   1.274   0.796 -0.3914 -0.0910 -0.5033
 8789TIP3    H150562   5.733   1.288   0.890 -0.6499 -1.2550 -0.3451
 8789TIP3    H250563   5.773   1.181   0.791 -1.9480 -0.4748 -1.7550
 8790TIP3   OH250564   6.628   1.044   7.674 -0.5769  0.2398 -0.1886
 8790TIP3    H150565   6.692   0.972   7.679 -0.5816  0.2218 -0.3961
 8790TIP3    H250566   6.638   1.079   7.585 -2.7249 -1.4842 -1.1931
 8791TIP3   OH250567   2.376   0.167   7.341 -0.2791 -0.0951  0.0789
 8791TIP3    H150568   2.466   0.142   7.364  0.1238  0.3227 -0.9733
 8791TIP3    H250569   2.330   0.170   7.425  0.7419 -0.0961  0.6594
 8792TIP3   OH250570   5.484   1.958   0.999 -0.1981  0.1784  0.3397
 8792TIP3    H150571   5.575   1.975   0.972 -0.2781  2.5840  1.3080
 8792TIP3    H250572   5.457   1.883   0.946  2.3129 -0.5551 -0.0520
 8793TIP3   OH250573   5.483   1.346   7.978 -0.7748 -0.1241  0.0863
 8793TIP3    H150574   5.441   1.263   7.953 -1.2671  0.4327 -1.0199
 8793TIP3    H250575   5.470   1.403   7.902  0.6932  0.5570  0.3107
 8794TIP3   OH250576   4.830   5.001   9.034  0.3153  0.1198  0.3698
 8794TIP3    H150577   4.914   5.014   8.990 -0.8729  0.7945 -1.8725
 8794TIP3    H250578   4.775   5.072   9.000 -1.9569 -1.8792 -0.3946
 8795TIP3   OH250579   1.612   1.246   2.867 -0.2342 -0.2967 -0.0116
 8795TIP3    H150580   1.533   1.217   2.912  0.1394  1.1384  1.7026
 8795TIP3    H250581   1.683   1.197   2.909  0.1291  1.1414  1.1582
 8796TIP3   OH250582   5.084   1.185   9.925 -0.2571 -0.0831 -0.3984
 8796TIP3    H150583   5.150   1.254   9.931 -0.9352  0.6095 -0.8058
 8796TIP3    H250584   5.053   1.173  10.014  0.1689 -0.1768 -0.2582
 8797TIP3   OH250585   4.720   4.266   8.375 -0.6981  0.1667  0.3138
 8797TIP3    H150586   4.765   4.293   8.295 -1.1350  1.4585  0.4871
 8797TIP3    H250587   4.697   4.174   8.359  0.9420 -0.1854 -0.2332
 8798TIP3   OH250588   5.059   5.211   9.149 -0.3326 -0.2777  0.1494
 8798TIP3    H150589   5.044   5.262   9.069  0.2128 -1.3433 -0.6541
 8798TIP3    H250590   5.142   5.244   9.183 -0.5088  0.0983  0.2209
 8799TIP3   OH250591   4.815   0.763   8.000 -0.0224  0.2175 -0.0089
 8799TIP3    H150592   4.743   0.705   7.975  3.0125 -3.8411 -0.4310
 8799TIP3    H250593   4.816   0.759   8.096  0.1554 -0.4902 -0.0331
 8800TIP3   OH250594   4.857   3.749   9.424  0.2499 -0.4997 -0.2923
 8800TIP3    H150595   4.810   3.671   9.395  0.5598 -0.3471 -1.2331
 8800TIP3    H250596   4.948   3.733   9.400  0.5227 -0.3494  0.5884
 8801TIP3   OH250597   5.488   5.631   8.552  0.1243 -0.0921  0.3841
 8801TIP3    H150598   5.522   5.638   8.463  0.1024 -0.6041  0.3304
 8801TIP3    H250599   5.516   5.712   8.595 -0.6851  0.6010 -0.3570
 8802TIP3   OH250600   0.844   1.414   1.291 -0.4699  0.1447 -0.5316
 8802TIP3    H150601   0.912   1.469   1.330  0.4498  0.2405 -2.1560
 8802TIP3    H250602   0.783   1.475   1.250 -0.9896  0.0212  0.0370
 8803TIP3   OH250603   1.174   2.470   7.982 -0.1620  0.1870 -0.0300
 8803TIP3    H150604   1.151   2.514   8.064 -0.9589 -1.0921  0.4502
 8803TIP3    H250605   1.268   2.456   7.988 -0.4803 -1.6485  1.5735
 8804TIP3   OH250606   3.311   3.908   2.387  0.0874  0.0930  0.4562
 8804TIP3    H150607   3.342   3.841   2.449 -0.1506  1.0610  1.6804
 8804TIP3    H250608   3.221   3.884   2.368 -0.2366  0.4373  1.4728
 8805TIP3   OH250609   1.419   0.158   9.326  0.0313 -0.7959  0.4871
 8805TIP3    H150610   1.335   0.162   9.374 -0.0645  0.5760  0.2698
 8805TIP3    H250611   1.396   0.186   9.237  0.4310 -2.1184 -0.0445
 8806TIP3   OH250612   5.758   0.593   7.490  0.7883  0.5766  0.1308
 8806TIP3    H150613   5.845   0.553   7.498  0.7406  0.2469 -0.8169
 8806TIP3    H250614   5.747   0.606   7.396  0.6367  2.4961  0.3828
 8807TIP3   OH250615   6.060   6.165   9.950 -0.2595  0.8864 -0.7469
 8807TIP3    H150616   6.069   6.080   9.994 -1.2126  0.6762 -0.9456
 8807TIP3    H250617   6.149   6.185   9.920  0.2125  0.5352  0.3397
 8808TIP3   OH250618   5.465   1.796   1.768  0.6207 -0.1067  0.1838
 8808TIP3    H150619   5.502   1.841   1.692  0.2867 -1.3143 -0.7299
 8808TIP3    H250620   5.451   1.706   1.738 -0.7893 -0.2776  1.2525
 8809TIP3   OH250621   7.670   6.834   0.693  0.0751 -0.3052  0.1219
 8809TIP3    H150622   7.748   6.888   0.709  0.3043 -0.5199 -0.2480
 8809TIP3    H250623   7.704   6.745   0.683 -0.2323 -0.4192  0.0820
 8810TIP3   OH250624   1.277   7.155   0.226  0.2925  0.1202  0.0476
 8810TIP3    H150625   1.346   7.092   0.249  0.8961  1.0041  0.7223
 8810TIP3    H250626   1.247   7.126   0.140 -1.7565 -3.0724  1.6353
 8811TIP3   OH250627   2.349   0.362   0.448  0.0353 -0.3963 -0.2824
 8811TIP3    H150628   2.301   0.420   0.390  0.6428  0.2677 -0.1296
 8811TIP3    H250629   2.319   0.384   0.536  1.5636  0.9623 -0.0651
 8812TIP3   OH250630   5.008   5.464   7.184 -0.1557  0.1155  0.1339
 8812TIP3    H150631   5.066   5.487   7.112 -1.8051  2.0617 -0.6620
 8812TIP3    H250632   4.951   5.396   7.149  0.0000  0.0044  0.0954
 8813TIP3   OH250633   5.873   1.115   1.779  0.4643  0.1292  0.2148
 8813TIP3    H150634   5.931   1.039   1.785  0.8984  0.4859  0.5826
 8813TIP3    H250635   5.918   1.183   1.829  0.1496  0.6752 -0.2432
 8814TIP3   OH250636   2.730   0.799   2.845  0.1522 -0.3179 -0.1685
 8814TIP3    H150637   2.692   0.834   2.925  0.5524  0.2108 -0.2081
 8814TIP3    H250638   2.722   0.704   2.854 -0.7148 -0.2350  0.0466
 8815TIP3   OH250639   2.026   6.960   8.509 -0.3706  0.5435  0.3413
 8815TIP3    H150640   1.947   6.906   8.518 -0.3002  0.3283 -0.2676
 8815TIP3    H250641   2.001   7.028   8.447  0.4662 -0.6402 -1.3812
 8816TIP3   OH250642   2.832   1.412   1.787 -0.3815  0.0019  0.1133
 8816TIP3    H150643   2.782   1.491   1.804  0.7373  0.8791 -0.5331
 8816TIP3    H250644   2.823   1.397   1.693  1.1426  0.6101 -0.1597
 8817TIP3   OH250645   2.870   3.290   1.899 -0.2730  0.1255  0.0851
 8817TIP3    H150646   2.838   3.254   1.816  1.1918 -0.1902 -0.3875
 8817TIP3    H250647   2.801   3.269   1.962 -0.1524 -2.3007 -0.4624
 8818TIP3   OH250648   7.198   5.174   0.939 -0.2147 -0.4059 -0.4927
 8818TIP3    H150649   7.210   5.214   1.025 -1.2083 -1.2570  0.0574
 8818TIP3    H250650   7.153   5.242   0.888  0.2910  0.0672 -0.3123
 8819TIP3   OH250651   1.396   5.721   6.961  0.0311  0.0276  0.0942
 8819TIP3    H150652   1.312   5.709   7.006 -1.4878 -0.5068 -2.6812
 8819TIP3    H250653   1.423   5.633   6.936  1.7885  0.1317  1.4628
 8820TIP3   OH250654   6.060   1.263   9.890 -0.2881  0.5024 -0.0247
 8820TIP3    H150655   6.112   1.341   9.868 -0.9052  0.0904 -3.6463
 8820TIP3    H250656   5.977   1.298   9.923  0.5658  1.2695  1.3612
 8821TIP3   OH250657   3.837   3.028   1.590  0.1729  0.1014  0.5250
 8821TIP3    H150658   3.768   2.982   1.542 -2.1609  2.4450  1.3691
 8821TIP3    H250659   3.825   3.001   1.681 -0.2803  1.2067  0.8093
 8822TIP3   OH250660   1.193   0.986   1.407  0.0931 -0.0237  0.0543
 8822TIP3    H150661   1.229   1.073   1.388  0.7124  0.0711  1.5155
 8822TIP3    H250662   1.242   0.927   1.350  1.2552  0.3451  0.6303
 8823TIP3   OH250663   0.677   4.308   7.874  0.4143  0.0635 -0.5553
 8823TIP3    H150664   0.765   4.314   7.837  1.2769 -1.6921  1.0176
 8823TIP3    H250665   0.691   4.272   7.961 -1.8930 -0.2819 -0.2786
 8824TIP3   OH250666   0.413   5.043   1.174 -0.3638  0.0978 -0.3573
 8824TIP3    H150667   0.497   5.065   1.213 -0.4569  2.3206 -1.2719
 8824TIP3    H250668   0.354   5.027   1.248  0.2719  0.9380  0.3429
 8825TIP3   OH250669   5.585   3.870   9.359  0.0751  0.0816  0.1472
 8825TIP3    H150670   5.538   3.794   9.394 -1.6736  0.6293 -0.8770
 8825TIP3    H250671   5.610   3.921   9.437 -0.6609 -0.4664  0.7587
 8826TIP3   OH250672   5.166   0.323   8.702  0.3229 -0.0732  0.2949
 8826TIP3    H150673   5.254   0.326   8.740 -0.0316 -0.3873  1.1727
 8826TIP3    H250674   5.172   0.261   8.630  0.9184  0.2249  0.0837
 8827TIP3   OH250675   2.067   4.589   9.278 -0.3240 -0.6905  0.5819
 8827TIP3    H150676   2.111   4.660   9.326  1.2093 -0.7634 -0.6411
 8827TIP3    H250677   2.014   4.634   9.212  1.5188 -0.6432 -0.9313
 8828TIP3   OH250678   2.585   1.616   1.463 -0.0279  0.0299  0.6579
 8828TIP3    H150679   2.558   1.603   1.554 -1.9145 -0.1229  0.1185
 8828TIP3    H250680   2.504   1.609   1.413  0.9197  0.4949 -1.0100
 8829TIP3   OH250681   3.490   7.427   8.767  0.1346  0.5681  0.1493
 8829TIP3    H150682   3.550   7.496   8.796  1.4099  0.8985 -2.8164
 8829TIP3    H250683   3.468   7.451   8.677  0.9038 -2.9966 -1.1674
 8830TIP3   OH250684   0.898   3.924   1.082  0.3958  0.0042 -0.2872
 8830TIP3    H150685   0.913   3.996   1.021 -3.3579  2.3276  1.1871
 8830TIP3    H250686   0.932   3.956   1.166 -0.4961 -0.2700  0.1936
 8831TIP3   OH250687   5.183   6.939   0.388  0.5483  0.2065 -0.1007
 8831TIP3    H150688   5.124   7.014   0.393  0.2063  0.0255 -1.1255
 8831TIP3    H250689   5.266   6.975   0.358  0.7867  0.3627  0.7125
 8832TIP3   OH250690   5.457   0.618   1.248  0.4894  0.0195  0.3677
 8832TIP3    H150691   5.521   0.594   1.182  0.7753 -2.8471  1.5210
 8832TIP3    H250692   5.509   0.646   1.323  0.4626 -1.7748  1.1099
 8833TIP3   OH250693   7.560   1.159   1.075 -0.1293  0.4584 -0.2994
 8833TIP3    H150694   7.568   1.164   0.979  0.4482  1.5269 -0.2217
 8833TIP3    H250695   7.499   1.087   1.091 -1.3294  1.1487 -1.5316
 8834TIP3   OH250696   7.294   2.851   9.085  0.6357 -0.2127  0.1491
 8834TIP3    H150697   7.345   2.931   9.079  2.1236 -0.6897  3.8243
 8834TIP3    H250698   7.334   2.792   9.022  3.2504  0.2100  1.2715
 8835TIP3   OH250699   2.590   6.921   0.288  0.0564 -0.6041 -0.4456
 8835TIP3    H150700   2.616   6.892   0.201  0.9785 -0.1720 -0.3225
 8835TIP3    H250701   2.664   6.973   0.319 -0.9900  0.7952 -0.1511
 8836TIP3   OH250702   3.663   1.687   7.802 -0.2702  0.1970  0.7352
 8836TIP3    H150703   3.682   1.593   7.812 -0.3318  0.1114  0.0982
 8836TIP3    H250704   3.709   1.713   7.723 -0.2619  0.7080  0.9043
 8837TIP3   OH250705   2.985   5.573   0.955 -0.3894 -0.7216  0.1529
 8837TIP3    H150706   2.991   5.507   0.886 -0.3254 -0.9404  0.3672
 8837TIP3    H250707   2.894   5.604   0.951 -0.3400 -0.6061 -0.1443
 8838TIP3   OH250708   1.263   6.498   7.528 -0.5013 -0.1318 -0.0606
 8838TIP3    H150709   1.262   6.403   7.514  1.3273 -0.1159 -0.5837
 8838TIP3    H250710   1.171   6.524   7.522 -0.8915 -1.6412 -1.5868
 8839TIP3   OH250711   4.883   1.885   0.382  0.4674  0.2820 -0.5946
 8839TIP3    H150712   4.903   1.822   0.313  0.6124  0.7699 -1.0078
 8839TIP3    H250713   4.794   1.915   0.362 -0.8534 -2.0096  1.3355
 8840TIP3   OH250714   6.302   0.347   1.583  0.1708  0.2606 -0.0136
 8840TIP3    H150715   6.394   0.324   1.578  0.2935  0.8146 -0.4419
 8840TIP3    H250716   6.257   0.280   1.532  0.0111 -1.6011  2.3834
 8841TIP3   OH250717   4.805   7.191   8.499 -0.1296 -0.7721 -0.2154
 8841TIP3    H150718   4.737   7.256   8.481  3.0429  2.1908 -2.9772
 8841TIP3    H250719   4.852   7.226   8.575  0.6735 -0.6447 -0.7634
 8842TIP3   OH250720   3.928   4.997   8.139 -0.0258  0.0849  0.2223
 8842TIP3    H150721   3.843   4.973   8.175  0.2515 -2.4947 -0.6511
 8842TIP3    H250722   3.987   4.995   8.213 -0.1330 -1.5056  0.2890
 8843TIP3   OH250723   5.167   4.173   9.156  0.0507 -0.1459 -0.1693
 8843TIP3    H150724   5.205   4.234   9.219 -0.3232 -0.3162  0.2259
 8843TIP3    H250725   5.088   4.140   9.198  0.6293 -1.4684 -0.0588
 8844TIP3   OH250726   6.471   6.358   1.126  0.4424 -0.0943 -0.4267
 8844TIP3    H150727   6.516   6.333   1.046 -0.2076 -0.5630 -0.6584
 8844TIP3    H250728   6.389   6.397   1.096 -0.4066 -1.4588  0.0173
 8845TIP3   OH250729   7.354   2.649   0.893  0.1361 -1.1553  0.1488
 8845TIP3    H150730   7.431   2.623   0.842 -0.8351 -1.3488 -1.2569
 8845TIP3    H250731   7.363   2.744   0.904  1.7499 -1.4460  2.0555
 8846TIP3   OH250732   4.760   6.766   1.151 -0.0754 -0.4932 -0.1161
 8846TIP3    H150733   4.845   6.810   1.144  0.1443 -1.0409 -1.0739
 8846TIP3    H250734   4.735   6.777   1.243  1.6429 -1.4288  0.5055
 8847TIP3   OH250735   6.685   6.741   1.210  0.1714  0.2822  0.2555
 8847TIP3    H150736   6.768   6.771   1.174 -0.1932 -0.9282 -1.7726
 8847TIP3    H250737   6.620   6.801   1.173 -0.1516 -0.6244 -0.6803
 8848TIP3   OH250738   3.576   3.759   0.347  0.4868  0.1284  0.2532
 8848TIP3    H150739   3.508   3.781   0.283 -0.3193  0.9922  1.3560
 8848TIP3    H250740   3.590   3.840   0.397  0.0502 -0.8508  2.0774
 8849TIP3   OH250741   1.878   6.658   1.755  0.1053 -1.0354  0.6101
 8849TIP3    H150742   1.871   6.751   1.777 -2.6154 -1.2568  0.9458
 8849TIP3    H250743   1.859   6.613   1.837 -0.9892 -1.8825 -0.1008
 8850TIP3   OH250744   1.915   3.190   9.727  0.5839  0.0703  0.4012
 8850TIP3    H150745   1.927   3.114   9.783 -1.6802 -0.8435 -0.2378
 8850TIP3    H250746   1.968   3.171   9.649 -0.2248 -1.0682  0.0984
 8851TIP3   OH250747   4.371   7.067   0.453  0.7501  0.4857 -0.5894
 8851TIP3    H150748   4.292   7.023   0.422  0.5649 -0.0395  0.5850
 8851TIP3    H250749   4.443   7.016   0.414  0.5448 -1.0931  0.9598
 8852TIP3   OH250750   3.855   0.992   7.563  0.1388  0.1912 -0.1159
 8852TIP3    H150751   3.813   1.064   7.608  0.5740  1.4329 -1.5807
 8852TIP3    H250752   3.889   1.031   7.482 -0.8248 -1.9266 -1.6574
 8853TIP3   OH250753   4.566   7.291   9.215 -0.4461 -0.1064  0.2854
 8853TIP3    H150754   4.624   7.233   9.266  0.6982  1.5887  1.0068
 8853TIP3    H250755   4.623   7.363   9.187 -2.2392  1.8535  1.3612
 8854TIP3   OH250756   7.232   4.968   7.592 -0.1199  0.1231  0.4660
 8854TIP3    H150757   7.156   5.026   7.595  0.1398  0.4269  1.6751
 8854TIP3    H250758   7.217   4.913   7.514 -1.2861  0.5600  0.3593
 8855TIP3   OH250759   0.951   4.362   1.046  0.6347 -0.2624 -0.3462
 8855TIP3    H150760   1.016   4.408   1.099 -0.3020 -1.1274  1.6694
 8855TIP3    H250761   0.983   4.272   1.042 -0.5896 -0.7926  1.0163
 8856TIP3   OH250762   1.219   3.952   7.848 -0.2783 -0.4805 -0.4770
 8856TIP3    H150763   1.300   3.901   7.841 -0.6684 -1.0760 -0.6491
 8856TIP3    H250764   1.225   4.015   7.777  0.8665  0.6815  0.5794
 8857TIP3   OH250765   1.236   3.127   8.769  0.1734 -0.0141  0.3080
 8857TIP3    H150766   1.184   3.071   8.826 -0.3772 -0.5212 -0.6620
 8857TIP3    H250767   1.232   3.084   8.683 -1.4922  2.1964 -0.8528
 8858TIP3   OH250768   3.434   1.843   1.484 -0.0971 -0.1692  0.0225
 8858TIP3    H150769   3.459   1.899   1.558 -2.1984 -0.5825  1.1467
 8858TIP3    H250770   3.361   1.890   1.443 -1.2051 -1.5151  0.3540
 8859TIP3   OH250771   0.516   0.739   9.856  0.6762  0.8631  0.0170
 8859TIP3    H150772   0.433   0.770   9.819 -0.5575 -0.4856  1.5100
 8859TIP3    H250773   0.493   0.708   9.944  2.4945 -0.8476 -0.0490
 8860TIP3   OH250774   3.538   0.502   8.654  0.0988 -0.2500 -0.3061
 8860TIP3    H150775   3.584   0.580   8.685 -0.1428  0.1083 -0.8435
 8860TIP3    H250776   3.446   0.516   8.679  0.5394 -2.0257  2.9491
 8861TIP3   OH250777   7.639   5.595   6.837  0.3958 -0.2006 -0.5227
 8861TIP3    H150778   7.681   5.680   6.823  0.5106 -0.1555  0.0695
 8861TIP3    H250779   7.583   5.583   6.760 -0.9247  1.1946  0.1562
 8862TIP3   OH250780   3.198   3.226   8.459 -0.2643 -0.3579  0.5337
 8862TIP3    H150781   3.172   3.276   8.381 -0.4911 -0.8945  0.2562
 8862TIP3    H250782   3.223   3.293   8.523  0.7501  0.0791 -0.2774
 8863TIP3   OH250783   1.848   3.529   1.307 -0.4409  0.1207  0.4549
 8863TIP3    H150784   1.930   3.508   1.262 -1.5723 -2.2007 -0.6997
 8863TIP3    H250785   1.839   3.460   1.373 -2.4175 -0.9250 -0.8136
 8864TIP3   OH250786   3.737   5.215   8.357  0.2491 -0.0781  0.3391
 8864TIP3    H150787   3.796   5.180   8.424  0.9278  1.4585  0.5853
 8864TIP3    H250788   3.788   5.283   8.313 -0.6181 -0.1922 -0.9077
 8865TIP3   OH250789   0.411   2.364   8.947 -0.1625  0.3220  0.3802
 8865TIP3    H150790   0.354   2.351   8.871 -0.6990 -1.6511  1.0638
 8865TIP3    H250791   0.383   2.448   8.984  1.0620  2.0885 -2.3279
 8866TIP3   OH250792   4.537   5.260   8.164  0.0729 -0.2273  0.1592
 8866TIP3    H150793   4.490   5.305   8.094 -0.3127  0.7537  1.0265
 8866TIP3    H250794   4.559   5.174   8.127 -0.7244  0.0152 -0.9157
 8867TIP3   OH250795   1.340   7.564   8.383 -0.0627 -0.0038  0.2329
 8867TIP3    H150796   1.356   7.630   8.315 -0.4672  0.5367  0.6492
 8867TIP3    H250797   1.252   7.532   8.366  0.5105 -1.1813 -0.5733
 8868TIP3   OH250798   6.479   5.582   0.200 -0.5032  0.8984 -0.1002
 8868TIP3    H150799   6.555   5.538   0.237 -1.9028 -0.6839  1.0167
 8868TIP3    H250800   6.492   5.675   0.222 -0.3400  0.2723  2.7864
 8869TIP3   OH250801   6.140   1.302   7.345  0.2157  0.5545 -0.0268
 8869TIP3    H150802   6.123   1.286   7.253  1.4264  2.5721 -0.6630
 8869TIP3    H250803   6.225   1.262   7.361  0.3311  0.8281  0.0380
 8870TIP3   OH250804   1.903   6.702   8.133  0.3654 -0.4414  0.8173
 8870TIP3    H150805   1.869   6.789   8.113  0.5449 -0.7382 -0.9712
 8870TIP3    H250806   1.887   6.652   8.053  0.6086 -1.9511  1.6825
 8871TIP3   OH250807   4.320   3.901   7.137  0.4993 -0.5254  0.3460
 8871TIP3    H150808   4.237   3.895   7.091  0.7999 -1.7031 -0.0908
 8871TIP3    H250809   4.386   3.900   7.067  0.8832  0.6847  0.6692
 8872TIP3   OH250810   3.649   6.263   8.936  0.5003  0.1997  0.1190
 8872TIP3    H150811   3.728   6.301   8.897  0.9090 -0.5479  0.1944
 8872TIP3    H250812   3.638   6.179   8.890  0.6611 -0.4322  1.2113
 8873TIP3   OH250813   5.617   6.225   9.778  0.3093  0.3369 -0.3509
 8873TIP3    H150814   5.546   6.164   9.801  1.0559  0.3328  2.2146
 8873TIP3    H250815   5.697   6.174   9.788  0.8038  0.9861 -0.9239
 8874TIP3   OH250816   7.197   6.395   9.977  0.5561  0.1427 -0.2289
 8874TIP3    H150817   7.289   6.420   9.980  0.1735  1.6412 -0.2397
 8874TIP3    H250818   7.149   6.478   9.971 -0.7649 -0.6260 -0.9692
 8875TIP3   OH250819   0.994   4.414   2.280 -0.1356  0.2702 -0.7096
 8875TIP3    H150820   1.066   4.412   2.342 -0.4256 -2.4059 -0.3384
 8875TIP3    H250821   0.999   4.330   2.234 -0.6722  1.6316 -3.4903
 8876TIP3   OH250822   0.252   6.950   0.762 -0.5788  0.1216 -0.5009
 8876TIP3    H150823   0.317   6.881   0.749 -0.2288  0.2189  0.6491
 8876TIP3    H250824   0.236   6.952   0.856 -1.5173  0.7727 -0.6551
 8877TIP3   OH250825   5.980   2.439   2.877  0.6672  0.0591 -0.0623
 8877TIP3    H150826   5.914   2.478   2.934  0.2511  0.2162 -0.6398
 8877TIP3    H250827   5.998   2.354   2.916  0.6252  0.2947  0.4813
 8878TIP3   OH250828   0.803   0.314   9.515 -0.3157 -0.4828  0.8812
 8878TIP3    H150829   0.806   0.221   9.535  1.9415  0.0642  3.6933
 8878TIP3    H250830   0.739   0.350   9.577 -0.3265 -0.0098  0.6032
 8879TIP3   OH250831   5.967   0.732   9.448 -0.0800  0.1299  0.0263
 8879TIP3    H150832   6.027   0.803   9.426  1.4679 -0.6214  1.6055
 8879TIP3    H250833   5.991   0.706   9.537 -0.8183 -2.1383 -0.3634
 8880TIP3   OH250834   5.686   6.158   0.841  0.2622  0.8057 -0.3073
 8880TIP3    H150835   5.737   6.227   0.885 -0.2242  1.0919 -0.1842
 8880TIP3    H250836   5.750   6.112   0.786  0.8441  0.5754  0.5331
 8881TIP3   OH250837   3.516   3.380   7.015  0.2334 -0.0363 -0.1682
 8881TIP3    H150838   3.467   3.342   7.088 -1.0174  3.1346  0.8605
 8881TIP3    H250839   3.448   3.408   6.953  0.9688  1.0247 -0.5335
 8882TIP3   OH250840   2.434   1.675   0.593 -0.1402  0.4917 -0.1231
 8882TIP3    H150841   2.415   1.625   0.671  1.4709 -2.3418 -1.4068
 8882TIP3    H250842   2.351   1.678   0.544 -0.2840 -0.9058  0.0172
 8883TIP3   OH250843   4.436   4.867   0.104  0.1849  0.0311 -0.0108
 8883TIP3    H150844   4.528   4.887   0.088  0.1568  0.5280  0.3926
 8883TIP3    H250845   4.392   4.884   0.021 -0.0267  2.9213  0.6047
 8884TIP3   OH250846   1.508   5.419   9.269 -0.4674 -0.0267  0.0561
 8884TIP3    H150847   1.574   5.487   9.258 -0.7499 -0.1107 -2.7650
 8884TIP3    H250848   1.425   5.461   9.246 -1.1532 -0.4679  1.5730
 8885TIP3   OH250849   3.561   7.103   0.819 -0.4693 -0.3089 -0.3565
 8885TIP3    H150850   3.605   7.018   0.823 -0.3676 -0.2529 -0.2778
 8885TIP3    H250851   3.601   7.147   0.744  2.1872  1.1567  1.7389
 8886TIP3   OH250852   0.051   3.460   8.016  0.4059 -0.0208 -0.0689
 8886TIP3    H150853   0.048   3.487   7.924 -0.4887 -0.2682 -0.1225
 8886TIP3    H250854  -0.016   3.392   8.023  0.1287  0.3352  0.8707
 8887TIP3   OH250855   3.460   2.395   1.219  0.3517 -0.3855 -0.3686
 8887TIP3    H150856   3.402   2.434   1.154  0.8895  0.1476 -0.5449
 8887TIP3    H250857   3.407   2.330   1.265  0.2031 -1.3819 -1.9039
 8888TIP3   OH250858   4.834   4.871   7.972 -1.0151  0.0326 -0.0641
 8888TIP3    H150859   4.861   4.808   7.905  0.4690  0.0104  0.5185
 8888TIP3    H250860   4.837   4.822   8.054  0.9419  0.9978  0.5070
 8889TIP3   OH250861   3.341   4.231   8.330 -0.3850  0.0244 -0.0961
 8889TIP3    H150862   3.342   4.326   8.341 -1.9540 -0.1238  2.0196
 8889TIP3    H250863   3.249   4.206   8.343 -0.1598 -1.7337 -1.4320
 8890TIP3   OH250864   1.054   5.457   7.462 -0.0719 -0.0660 -0.3855
 8890TIP3    H150865   1.140   5.419   7.480 -0.1350 -0.5022 -0.9819
 8890TIP3    H250866   1.015   5.468   7.549  0.9653  1.0812 -0.0448
 8891TIP3   OH250867   7.639   4.231   0.229 -0.5915 -0.8464  0.0187
 8891TIP3    H150868   7.666   4.224   0.320 -1.5742 -1.2078  0.2989
 8891TIP3    H250869   7.630   4.326   0.214  0.8914 -0.7086 -0.1276
 8892TIP3   OH250870   1.971   2.326   2.811 -0.0410  0.0601 -0.3090
 8892TIP3    H150871   2.047   2.311   2.868 -0.3306  0.6113  0.2254
 8892TIP3    H250872   1.926   2.241   2.809  0.6771 -0.3214 -0.7718
 8893TIP3   OH250873   6.830   0.169   8.087  0.3487 -0.1743 -0.5520
 8893TIP3    H150874   6.774   0.121   8.148  0.1772 -1.1862 -1.4721
 8893TIP3    H250875   6.796   0.259   8.089 -0.8345 -0.6003 -0.5289
 8894TIP3   OH250876   4.747   4.395   7.032 -0.5256  0.5173  0.1715
 8894TIP3    H150877   4.693   4.431   7.102 -0.2952  0.7074  0.2539
 8894TIP3    H250878   4.821   4.456   7.025  0.1938 -0.2742  0.7364
 8895TIP3   OH250879   1.385   7.574   6.880 -0.4953 -0.2073 -0.4495
 8895TIP3    H150880   1.425   7.519   6.813 -0.8048 -1.5849  0.4525
 8895TIP3    H250881   1.305   7.606   6.839 -0.4730 -0.6922 -0.8933
 8896TIP3   OH250882   3.202   0.266   7.278 -0.1763  0.3304 -1.0025
 8896TIP3    H150883   3.119   0.253   7.323  0.1088 -0.5236 -0.6931
 8896TIP3    H250884   3.224   0.357   7.295  0.1598 -0.0713  1.0711
 8897TIP3   OH250885   2.739   6.022   9.295 -0.3041  0.0972 -0.4124
 8897TIP3    H150886   2.747   6.118   9.296  1.3748 -0.0075 -0.8777
 8897TIP3    H250887   2.685   6.004   9.218 -0.3112  0.6627 -0.5483
 8898TIP3   OH250888   7.578   6.784   8.355  0.0370  0.1370  0.2774
 8898TIP3    H150889   7.573   6.845   8.281 -2.1789 -2.6908 -2.1523
 8898TIP3    H250890   7.555   6.838   8.432 -1.7580  2.4096 -1.6917
 8899TIP3   OH250891   3.291   4.513   8.052 -0.0527  0.3022 -0.6029
 8899TIP3    H150892   3.335   4.575   8.110 -0.2711  1.7437 -1.9242
 8899TIP3    H250893   3.199   4.515   8.080  0.2130 -0.6700  0.3974
 8900TIP3   OH250894   6.179   3.367   7.114  0.0946  0.2595  0.3082
 8900TIP3    H150895   6.227   3.298   7.160 -2.8638 -1.0952  1.6240
 8900TIP3    H250896   6.211   3.363   7.024  1.1034 -1.8267  0.7078
 8901TIP3   OH250897   6.900   6.557   8.272 -0.9416 -0.2522 -0.1326
 8901TIP3    H150898   6.959   6.632   8.262 -1.1387 -0.2962 -1.9587
 8901TIP3    H250899   6.867   6.565   8.361  2.0344 -0.4126  1.1047
 8902TIP3   OH250900   1.106   6.304   0.471 -0.5357  0.0253 -0.0220
 8902TIP3    H150901   1.188   6.285   0.516 -0.8038 -0.9947  0.0668
 8902TIP3    H250902   1.127   6.376   0.411  0.8123 -1.2061 -1.1022
 8903TIP3   OH250903   1.841   4.667   8.521  0.5000  0.0055  0.0301
 8903TIP3    H150904   1.903   4.595   8.534  0.5026 -0.3477 -1.7336
 8903TIP3    H250905   1.768   4.628   8.475  0.5951  1.1603 -1.1513
 8904TIP3   OH250906   0.857   6.661   1.721 -0.3281  0.4788 -0.5147
 8904TIP3    H150907   0.767   6.688   1.740 -0.2139 -0.1036  0.9699
 8904TIP3    H250908   0.910   6.705   1.786  0.0990 -1.5119  0.5751
 8905TIP3   OH250909   5.252   6.548   2.444  0.2068  0.4439 -0.4181
 8905TIP3    H150910   5.268   6.635   2.480  1.6090 -1.2103  3.5765
 8905TIP3    H250911   5.194   6.506   2.508 -0.4129 -1.5914 -2.1792
 8906TIP3   OH250912   6.770   2.601   8.217  0.1071 -0.9385 -0.1990
 8906TIP3    H150913   6.702   2.553   8.265 -1.3407  1.0105 -0.1678
 8906TIP3    H250914   6.844   2.604   8.278 -1.1627  0.1876  1.3880
 8907TIP3   OH250915   1.407   0.195   1.060  0.2457 -0.0135 -0.3624
 8907TIP3    H150916   1.342   0.263   1.073  1.4433  1.0128  0.5309
 8907TIP3    H250917   1.456   0.222   0.982 -1.0251 -1.3361 -1.6756
 8908TIP3   OH250918   5.751   0.158   9.424 -0.1494  0.1324  0.6263
 8908TIP3    H150919   5.668   0.179   9.468  0.1750 -1.5267  2.1049
 8908TIP3    H250920   5.745   0.064   9.406 -0.0622  0.6267 -2.5573
 8909TIP3   OH250921   2.705   5.854   7.640 -0.4236  0.1288  0.3228
 8909TIP3    H150922   2.707   5.889   7.729 -1.1502  0.9036  0.0544
 8909TIP3    H250923   2.761   5.914   7.590  0.9627 -0.9947  0.4679
 8910TIP3   OH250924   7.253   0.657   0.623 -0.0270 -0.2576 -0.2163
 8910TIP3    H150925   7.328   0.642   0.566 -0.3886 -0.4157 -0.6615
 8910TIP3    H250926   7.264   0.747   0.655  0.0548 -0.0787 -0.7350
 8911TIP3   OH250927   3.793   6.428   9.972 -0.4075 -0.1822 -0.1950
 8911TIP3    H150928   3.881   6.393   9.967  0.4868  1.7694  0.6061
 8911TIP3    H250929   3.786   6.486   9.896 -0.8375 -0.0107 -0.0293
 8912TIP3   OH250930   6.473   1.874   1.878  0.4404  0.5285 -0.7031
 8912TIP3    H150931   6.399   1.827   1.840  0.1991 -1.1004  1.6343
 8912TIP3    H250932   6.548   1.817   1.864  0.4745  0.2423  0.6143
 8913TIP3   OH250933   2.580   0.236   8.463 -0.0931  0.7116  0.4353
 8913TIP3    H150934   2.616   0.298   8.400  1.1405  1.5557  1.8978
 8913TIP3    H250935   2.633   0.249   8.542 -1.0817 -0.8409  1.4028
 8914TIP3   OH250936   7.098   4.839   8.229  0.3700 -0.4096 -0.0063
 8914TIP3    H150937   7.183   4.803   8.254  0.8323 -0.1170 -1.0846
 8914TIP3    H250938   7.089   4.919   8.280  0.4611 -0.7463  0.5529
 8915TIP3   OH250939   3.276   5.770   0.810 -0.0130 -0.1463  0.2659
 8915TIP3    H150940   3.278   5.720   0.729  0.9311  0.0561  0.1464
 8915TIP3    H250941   3.242   5.856   0.785  0.2639 -0.0881  0.0840
 8916TIP3   OH250942   4.798   5.352   9.812  0.4227  0.3551 -0.5470
 8916TIP3    H150943   4.747   5.322   9.888 -0.6048  2.3920 -0.3549
 8916TIP3    H250944   4.814   5.273   9.762  2.8562 -1.4574  2.7049
 8917TIP3   OH250945   0.168   5.516   0.362  0.1174 -0.0823 -0.4670
 8917TIP3    H150946   0.082   5.485   0.334  0.3754 -2.0133  0.6722
 8917TIP3    H250947   0.175   5.487   0.453  1.8094  0.3816 -0.4163
 8918TIP3   OH250948   3.421   4.753   7.873  0.0337  0.3370 -0.2819
 8918TIP3    H150949   3.340   4.714   7.905 -0.8620  2.5081  0.2770
 8918TIP3    H250950   3.416   4.744   7.777 -0.2489 -0.6420 -0.1870
 8919TIP3   OH250951   7.125   2.745   9.359  0.0092 -0.2723  0.0285
 8919TIP3    H150952   7.150   2.746   9.266  0.5467  1.1507  0.1667
 8919TIP3    H250953   7.205   2.769   9.406 -0.6953  0.7791  0.7309
 8920TIP3   OH250954   4.935   2.730   7.255 -0.0239 -0.2398 -0.5896
 8920TIP3    H150955   4.884   2.725   7.173 -1.1577  1.4770 -0.0455
 8920TIP3    H250956   4.978   2.815   7.251  2.0794 -1.2358 -0.5536
 8921TIP3   OH250957   1.683   7.089   9.585 -0.4790 -0.4465  0.5183
 8921TIP3    H150958   1.769   7.129   9.593 -0.2719 -1.2657  3.9106
 8921TIP3    H250959   1.622   7.157   9.614 -0.5267 -1.0529  1.9642
 8922TIP3   OH250960   6.946   1.751   0.961  0.8851 -0.2393  0.2256
 8922TIP3    H150961   6.984   1.829   1.000  0.0758  1.9869 -3.0556
 8922TIP3    H250962   6.860   1.743   1.003  1.4719 -0.2121  1.4925
 8923TIP3   OH250963   2.597   3.607   2.859 -0.2242  0.2398  0.0422
 8923TIP3    H150964   2.624   3.545   2.791  0.2103  1.0259 -0.5189
 8923TIP3    H250965   2.503   3.619   2.844 -0.5522 -1.0804  0.8333
 8924TIP3   OH250966   1.292   0.450   0.754 -0.4183  0.2572  0.4946
 8924TIP3    H150967   1.363   0.390   0.779 -0.6670 -0.3680 -0.2526
 8924TIP3    H250968   1.212   0.405   0.784 -0.8040 -0.9034 -2.0051
 8925TIP3   OH250969   1.334   5.588   2.786  0.3438  0.1042 -0.0279
 8925TIP3    H150970   1.259   5.589   2.845  0.2502 -0.6428 -0.1216
 8925TIP3    H250971   1.362   5.497   2.784  2.1014  0.5821  1.0371
 8926TIP3   OH250972   1.180   6.354   9.638  0.3747 -0.9047 -0.4870
 8926TIP3    H150973   1.114   6.294   9.673 -0.0278  0.3024  0.9511
 8926TIP3    H250974   1.137   6.440   9.638  1.0589 -0.5266 -2.1270
 8927TIP3   OH250975   1.982   5.051   8.807 -0.2663  0.1500 -0.4431
 8927TIP3    H150976   1.977   4.955   8.808  1.1570  0.0602 -0.5739
 8927TIP3    H250977   2.021   5.073   8.723  3.8198  0.5406  1.3529
 8928TIP3   OH250978   1.715   1.847   7.194  0.0424  0.3526  0.7797
 8928TIP3    H150979   1.671   1.904   7.131  0.4726  1.0941  1.1452
 8928TIP3    H250980   1.739   1.904   7.266 -0.8638 -0.5690  1.8507
 8929TIP3   OH250981   0.731   3.737   2.321  0.3006 -0.1895  0.5879
 8929TIP3    H150982   0.636   3.736   2.336  0.3259  0.0827  0.7858
 8929TIP3    H250983   0.762   3.655   2.357  0.1343 -0.2996  0.4844
 8930TIP3   OH250984   0.641   4.131   9.367  0.0988 -0.5059  0.3881
 8930TIP3    H150985   0.656   4.037   9.356  0.5475 -0.3845 -0.1251
 8930TIP3    H250986   0.728   4.170   9.356 -0.0967 -0.0221  0.5202
 8931TIP3   OH250987   4.232   4.090   7.654 -0.4209  1.2414 -0.0150
 8931TIP3    H150988   4.173   4.103   7.729 -0.3915  0.7606  0.0911
 8931TIP3    H250989   4.178   4.049   7.587 -0.1217  0.4901  0.2034
 8932TIP3   OH250990   1.307   5.953   1.322 -0.5361 -0.4959  0.0150
 8932TIP3    H150991   1.237   5.899   1.285 -0.8880  0.0282 -0.1068
 8932TIP3    H250992   1.289   6.041   1.287  0.0313 -0.3076  0.1974
 8933TIP3   OH250993   7.581   5.015   9.886 -0.1837  0.0575  0.6387
 8933TIP3    H150994   7.655   5.018   9.947 -0.3392 -0.1414  0.8406
 8933TIP3    H250995   7.555   5.106   9.875  0.3880  0.1721  0.1991
 8934TIP3   OH250996   0.506   2.719   3.299  0.4119  0.3519  0.0268
 8934TIP3    H150997   0.453   2.671   3.235  2.9254 -0.4491 -1.5697
 8934TIP3    H250998   0.552   2.651   3.348 -0.6356  1.0041  2.0352
 8935TIP3   OH250999   5.020   6.077   0.639 -0.4387 -0.1719  0.6931
 8935TIP3    H151000   4.925   6.089   0.629 -0.4119 -0.8738 -0.7557
 8935TIP3    H251001   5.042   6.123   0.719 -1.5880  2.2481 -0.2726
 8936TIP3   OH251002   7.466   4.234   1.565  0.3787  0.1103  0.2854
 8936TIP3    H151003   7.518   4.234   1.645  1.1801 -1.7142 -0.1760
 8936TIP3    H251004   7.523   4.274   1.499 -0.3215  1.7134  0.6056
 8937TIP3   OH251005   2.152   5.516   9.069 -0.0578 -0.4511  0.2845
 8937TIP3    H151006   2.094   5.460   9.017  0.2178 -1.7849  1.3745
 8937TIP3    H251007   2.240   5.481   9.053  0.4868  1.3435 -1.0823
 8938TIP3   OH251008   7.053   7.108   1.799 -0.1515  0.0596  0.3327
 8938TIP3    H151009   7.017   7.019   1.798 -0.0795 -0.0173  1.9578
 8938TIP3    H251010   7.118   7.108   1.729 -0.4689 -1.0288  0.0096
 8939TIP3   OH251011   7.566   5.669   9.283  0.1216 -0.1164  0.2493
 8939TIP3    H151012   7.499   5.665   9.351  0.0505 -1.6098  0.1153
 8939TIP3    H251013   7.570   5.762   9.259 -2.7827 -0.1009 -0.6024
 8940TIP3   OH251014   0.969   3.885   2.394 -0.5899 -0.9641  0.2798
 8940TIP3    H151015   0.883   3.851   2.369  0.0288 -1.8147 -0.7606
 8940TIP3    H251016   1.017   3.809   2.426 -0.0958 -0.5586  0.5206
 8941TIP3   OH251017   2.059   4.863   9.415 -0.1125 -0.1271  0.2046
 8941TIP3    H151018   1.996   4.917   9.464  0.5793  1.2553 -0.3783
 8941TIP3    H251019   2.032   4.872   9.324 -0.2939 -1.1998  0.1474
 8942TIP3   OH251020   0.106   6.336   9.106 -0.0916 -0.3821 -0.7278
 8942TIP3    H151021   0.054   6.384   9.041  1.0130 -2.0156 -2.9348
 8942TIP3    H251022   0.183   6.391   9.119  0.4383 -0.7601 -2.0714
 8943TIP3   OH251023   5.805   1.330   9.976  0.7065 -0.1783  0.0541
 8943TIP3    H151024   5.746   1.357   9.906  0.3712  1.7609  1.0109
 8943TIP3    H251025   5.758   1.351  10.057  1.2179 -2.0429  0.9010
 8944TIP3   OH251026   3.610   3.409   7.484  0.6342  0.3435 -0.6391
 8944TIP3    H151027   3.565   3.328   7.507  0.2225  0.6799 -0.2284
 8944TIP3    H251028   3.669   3.385   7.412  0.2991 -0.2512 -0.7187
 8945TIP3   OH251029   5.707   5.512   7.423  0.0199  0.6507 -0.0383
 8945TIP3    H151030   5.706   5.417   7.411 -1.9687  0.4934  1.0497
 8945TIP3    H251031   5.733   5.524   7.515  1.4850  1.2458 -0.5004
 8946TIP3   OH251032   7.252   3.325   8.564  0.2186 -0.7629  0.1625
 8946TIP3    H151033   7.239   3.420   8.573 -0.3760 -0.8488  0.2423
 8946TIP3    H251034   7.345   3.316   8.545  0.7165 -0.2896  2.1031
 8947TIP3   OH251035   0.771   3.104   9.833  0.1265  0.0010 -0.0041
 8947TIP3    H151036   0.823   3.176   9.868 -1.7276  1.1425  0.5558
 8947TIP3    H251037   0.827   3.064   9.766  2.3947 -0.0018  1.7753
 8948TIP3   OH251038   3.321   6.837   1.592 -0.3498 -0.2690  0.3009
 8948TIP3    H151039   3.340   6.901   1.523 -1.0537  1.9650  2.0807
 8948TIP3    H251040   3.386   6.855   1.660 -0.5707 -1.4524  0.8453
 8949TIP3   OH251041   0.392   5.332   9.505 -0.3295  0.0775 -0.0768
 8949TIP3    H151042   0.396   5.393   9.431 -0.6486 -0.5417 -0.6147
 8949TIP3    H251043   0.467   5.275   9.492 -1.1568 -0.8987 -0.7041
 8950TIP3   OH251044   5.193   7.550   9.274 -0.3977  0.8609  0.0076
 8950TIP3    H151045   5.130   7.482   9.250 -0.0481  0.1831  0.9479
 8950TIP3    H251046   5.158   7.589   9.354  0.0710  0.8836  0.2068
 8951TIP3   OH251047   0.434   7.275   8.625 -0.3924  0.1412 -0.2765
 8951TIP3    H151048   0.344   7.283   8.657 -0.0884 -0.2383  0.7078
 8951TIP3    H251049   0.465   7.366   8.618 -0.7979  0.2661 -0.4766
 8952TIP3   OH251050   6.052   4.450   9.013  0.2722 -0.3816 -0.1027
 8952TIP3    H151051   5.991   4.404   8.955 -0.0047 -1.7930  1.2449
 8952TIP3    H251052   6.134   4.402   9.004  0.2882 -0.4719  0.4769
 8953TIP3   OH251053   4.543   6.928   9.944 -0.2861  0.5497 -0.2617
 8953TIP3    H151054   4.583   6.841   9.935 -0.0724  0.5721  0.4133
 8953TIP3    H251055   4.556   6.968   9.858 -2.5932 -0.9852 -1.4267
 8954TIP3   OH251056   4.255   2.213   1.470 -0.2201 -0.4078 -0.0614
 8954TIP3    H151057   4.165   2.240   1.449  0.0287  0.7149  0.2908
 8954TIP3    H251058   4.310   2.273   1.420  0.3463 -0.0283  0.9960
 8955TIP3   OH251059   1.445   3.916   0.772  0.1347 -0.1917 -0.1240
 8955TIP3    H151060   1.385   3.862   0.720 -0.0095 -0.8600  0.7123
 8955TIP3    H251061   1.390   3.986   0.807 -0.0812 -0.5641  0.2960
 8956TIP3   OH251062   1.892   0.736   1.127 -0.3842 -0.1856 -0.4720
 8956TIP3    H151063   1.951   0.690   1.067  0.8927 -0.4264  0.8989
 8956TIP3    H251064   1.919   0.827   1.122  2.0865 -0.6191  2.1279
 8957TIP3   OH251065   4.679   1.779   8.871 -0.1908  0.6515 -0.2462
 8957TIP3    H151066   4.711   1.692   8.847  0.1292  0.3357  1.1824
 8957TIP3    H251067   4.697   1.834   8.795  4.9706  0.7843  0.6908
 8958TIP3   OH251068   1.410   6.768   8.454  0.2505 -0.1082 -0.7361
 8958TIP3    H151069   1.446   6.684   8.480 -1.2618  0.0311  2.1716
 8958TIP3    H251070   1.469   6.833   8.492  0.3785  0.1738 -1.3839
 8959TIP3   OH251071   6.457   1.428   9.579 -0.5907 -0.1939 -0.0507
 8959TIP3    H151072   6.552   1.436   9.568 -0.7282  1.0535 -0.4843
 8959TIP3    H251073   6.436   1.341   9.546  0.0213  0.6362 -2.8612
 8960TIP3   OH251074   2.242   6.285   2.023 -0.1989 -0.0232  0.2458
 8960TIP3    H151075   2.218   6.249   1.938  2.6905  0.9860 -1.1412
 8960TIP3    H251076   2.285   6.213   2.069  0.5146  0.1062 -0.2093
 8961TIP3   OH251077   4.046   7.155   8.261 -0.3572 -0.2897  0.3119
 8961TIP3    H151078   3.957   7.136   8.232 -0.2279  0.5746 -0.7349
 8961TIP3    H251079   4.079   7.219   8.197  1.4105 -1.4356 -0.0040
 8962TIP3   OH251080   4.035   7.651   0.743 -0.1430 -0.6947  0.2325
 8962TIP3    H151081   3.945   7.675   0.765  0.1290  0.4289  0.1389
 8962TIP3    H251082   4.082   7.658   0.826  0.2254  0.4718 -0.0649
 8963TIP3   OH251083   2.224   3.781   8.346  0.0317 -0.8476 -0.4659
 8963TIP3    H151084   2.135   3.815   8.337  0.8746  1.1844 -2.0111
 8963TIP3    H251085   2.226   3.702   8.292  0.0416  1.0921 -3.5285
 8964TIP3   OH251086   4.902   2.325   0.394  0.0542  0.7069 -0.1401
 8964TIP3    H151087   4.928   2.362   0.478 -0.5119  0.7456  0.0245
 8964TIP3    H251088   4.810   2.302   0.406  0.0173  0.5523 -0.6957
 8965TIP3   OH251089   1.604   4.387   0.735 -0.4085 -0.4904 -0.4342
 8965TIP3    H151090   1.570   4.301   0.761 -0.6546 -0.3835 -0.3983
 8965TIP3    H251091   1.654   4.417   0.811  0.0662 -0.8016 -0.6159
 8966TIP3   OH251092   1.093   6.161   7.610 -0.2548  0.5915 -0.5147
 8966TIP3    H151093   1.042   6.230   7.567 -1.1014 -0.0997 -0.6528
 8966TIP3    H251094   1.128   6.202   7.688 -0.4082  1.2960 -0.8045
 8967TIP3   OH251095   2.120   2.833   2.862  0.0628  0.3998  0.7183
 8967TIP3    H151096   2.089   2.853   2.950 -1.9073  0.4739  0.0537
 8967TIP3    H251097   2.124   2.738   2.859  0.0160  0.3926  0.8565
 8968TIP3   OH251098   1.271   2.451   7.644 -0.3114  0.2928 -0.0646
 8968TIP3    H151099   1.300   2.388   7.709 -0.3859  0.7654  0.4425
 8968TIP3    H251100   1.216   2.401   7.584  0.9923 -0.4668 -0.6486
 8969TIP3   OH251101   0.069   4.527   7.160 -0.4074 -0.0068 -0.2491
 8969TIP3    H151102   0.128   4.538   7.085 -0.8971 -0.1338 -0.6592
 8969TIP3    H251103  -0.016   4.556   7.128 -0.3176  1.5090  0.7443
 8970TIP3   OH251104   7.199   6.895   8.820  0.0445  0.1276  0.2497
 8970TIP3    H151105   7.129   6.884   8.884  0.0094  0.0753  0.2010
 8970TIP3    H251106   7.208   6.810   8.778  1.1284 -0.3018  1.2818
 8971TIP3   OH251107   6.843   1.485   2.251  0.0360 -0.0189 -0.0596
 8971TIP3    H151108   6.844   1.576   2.278 -0.5779 -0.0128 -0.0555
 8971TIP3    H251109   6.933   1.468   2.222 -0.3623  1.2365 -2.2151
 8972TIP3   OH251110   0.513   2.416   1.238  0.6448  0.5977  0.7929
 8972TIP3    H151111   0.579   2.388   1.175 -1.3697  2.1738 -2.2802
 8972TIP3    H251112   0.547   2.498   1.273  0.3948  1.4370 -0.8139
 8973TIP3   OH251113   1.708   6.475   9.837  0.0225  0.4894 -0.0317
 8973TIP3    H151114   1.794   6.516   9.848 -0.1950  0.7366  0.7597
 8973TIP3    H251115   1.727   6.396   9.786  1.2702 -1.2661  2.8757
 8974TIP3   OH251116   6.430   6.674   1.569 -0.2618  0.0389 -0.0832
 8974TIP3    H151117   6.414   6.592   1.615 -0.6748  1.1600  1.9417
 8974TIP3    H251118   6.497   6.654   1.504 -0.2831 -1.8551  0.4362
 8975TIP3   OH251119   7.020   7.062   0.558  0.5177 -0.0629  0.1928
 8975TIP3    H151120   7.109   7.089   0.534  0.4181  1.3098  1.2005
 8975TIP3    H251121   6.969   7.076   0.479  1.2780 -1.3563 -0.5548
 8976TIP3   OH251122   6.557   4.996   8.939 -0.5606  0.1178 -0.2042
 8976TIP3    H151123   6.509   4.958   8.865 -1.2136 -0.2219  0.3764
 8976TIP3    H251124   6.596   5.076   8.904  0.8811 -1.0774 -1.4890
 8977TIP3   OH251125   2.219   2.960   8.891  0.4265  0.1165 -0.1891
 8977TIP3    H151126   2.168   2.987   8.968 -0.1500 -1.2958 -0.0372
 8977TIP3    H251127   2.198   2.867   8.880  1.9122 -0.1603 -0.9697
 8978TIP3   OH251128   4.918   1.472   0.719 -0.3304 -0.4818  0.7146
 8978TIP3    H151129   4.909   1.434   0.807 -0.3588  0.7492  1.2573
 8978TIP3    H251130   4.959   1.402   0.667 -0.6729 -1.3634  1.5993
 8979TIP3   OH251131   2.976   3.011   0.592 -0.0324  0.1523  0.0545
 8979TIP3    H151132   2.915   3.010   0.666 -0.0778  0.9098  0.0330
 8979TIP3    H251133   2.970   2.923   0.556 -2.3781  0.6491 -0.9585
 8980TIP3   OH251134   6.445   1.981   7.768  0.3670 -0.3225  0.0571
 8980TIP3    H151135   6.358   2.022   7.763  0.6164  0.1227 -0.9908
 8980TIP3    H251136   6.448   1.922   7.693  1.2665  0.2849 -0.4069
 8981TIP3   OH251137   5.260   1.288   6.919 -0.4954 -0.6132 -0.1463
 8981TIP3    H151138   5.292   1.199   6.931  1.7709  0.2517  0.6921
 8981TIP3    H251139   5.301   1.317   6.837  0.8352  0.4708  0.8700
 8982TIP3   OH251140   0.890   5.034   0.720  0.3314 -0.2839  0.2188
 8982TIP3    H151141   0.904   5.062   0.629  1.0331 -1.9094 -0.1993
 8982TIP3    H251142   0.805   4.989   0.718  0.5588 -0.7201  0.2577
 8983TIP3   OH251143   6.395   1.229   7.794  0.4859 -0.1336  0.1922
 8983TIP3    H151144   6.313   1.205   7.837 -0.3180 -1.4883 -1.8913
 8983TIP3    H251145   6.447   1.149   7.797 -0.8367 -1.4124 -3.8242
 8984TIP3   OH251146   6.106   0.720   8.173  0.4373  0.4225  0.4220
 8984TIP3    H151147   6.012   0.726   8.187  0.7275  0.0799  3.0875
 8984TIP3    H251148   6.144   0.785   8.232  1.8870  0.3073 -0.3187
 8985TIP3   OH251149   0.900   4.147   2.411  0.1588  0.2663 -0.3441
 8985TIP3    H151150   0.818   4.143   2.361  0.8772 -0.0091 -1.5190
 8985TIP3    H251151   0.934   4.058   2.408 -1.0695 -0.4599  2.9199
 8986TIP3   OH251152   5.608   2.905   9.881  0.3655 -0.0927 -0.2369
 8986TIP3    H151153   5.703   2.890   9.877  0.3384 -0.1049 -1.3486
 8986TIP3    H251154   5.599   3.000   9.884  0.4239 -0.1104  0.5368
 8987TIP3   OH251155   7.588   5.565   3.019 -0.4798  0.2077  0.3244
 8987TIP3    H151156   7.652   5.626   3.055  0.3662 -0.4975  0.0543
 8987TIP3    H251157   7.542   5.530   3.095  0.3037 -0.1839  0.6339
 8988TIP3   OH251158   2.990   5.039   8.509  0.0565  0.5034 -0.2342
 8988TIP3    H151159   2.981   5.008   8.599  1.3160 -0.8775 -0.5393
 8988TIP3    H251160   3.083   5.061   8.500 -0.0387  0.5699 -1.2101
 8989TIP3   OH251161   0.841   2.117   9.840  0.6629  0.2008 -0.4137
 8989TIP3    H151162   0.909   2.110   9.907 -1.2860 -1.7053  1.5396
 8989TIP3    H251163   0.851   2.038   9.787 -0.8104 -0.8503  0.7837
 8990TIP3   OH251164   0.173   4.788   8.934 -0.3859  0.2510 -0.3713
 8990TIP3    H151165   0.120   4.750   8.864  1.0531 -0.3998 -1.1602
 8990TIP3    H251166   0.192   4.877   8.904  1.3536 -0.4545 -1.5289
 8991TIP3   OH251167   5.550   7.302   7.440  0.2347  0.1236  0.1145
 8991TIP3    H151168   5.538   7.390   7.475  1.0837 -0.1375  1.1019
 8991TIP3    H251169   5.606   7.314   7.363  1.4403  0.3339  0.9951
 8992TIP3   OH251170   2.784   6.078   2.334 -0.3716 -0.4354  0.0011
 8992TIP3    H151171   2.792   6.003   2.275 -1.7902 -1.0995  0.5952
 8992TIP3    H251172   2.874   6.097   2.361  0.5162  0.7224 -3.2856
 8993TIP3   OH251173   3.506   3.122   9.891  0.3588 -0.7553 -0.3544
 8993TIP3    H151174   3.484   3.205   9.933 -0.5700 -1.2123  0.0842
 8993TIP3    H251175   3.544   3.147   9.806 -2.0738  0.0800 -1.2619
 8994TIP3   OH251176   1.671   1.631   7.361 -0.5684 -0.3911  0.1604
 8994TIP3    H151177   1.708   1.699   7.306  0.9882  1.4780  3.2247
 8994TIP3    H251178   1.730   1.557   7.352 -0.2694 -0.0730 -0.5373
 8995TIP3   OH251179   3.585   3.044   2.129 -0.0410 -0.0853  0.8663
 8995TIP3    H151180   3.565   3.122   2.180  0.0148  0.8437 -0.4829
 8995TIP3    H251181   3.501   3.000   2.118  0.0274 -0.5704  2.1625
 8996TIP3   OH251182   2.005   1.394   9.519 -0.0963 -0.2648 -0.4123
 8996TIP3    H151183   1.932   1.336   9.498 -1.6503  0.8774  1.4161
 8996TIP3    H251184   2.043   1.356   9.598  0.5252 -0.1841 -0.6705
 8997TIP3   OH251185   7.565   0.098   9.299  0.1019  0.0979  0.0621
 8997TIP3    H151186   7.543   0.149   9.221  0.8871  1.3854  0.6539
 8997TIP3    H251187   7.591   0.163   9.363 -1.8970 -0.8010  1.9141
 8998TIP3   OH251188   5.511   6.808   0.881  0.1500 -0.2272 -0.5757
 8998TIP3    H151189   5.521   6.786   0.788 -2.0129 -1.2526 -0.6380
 8998TIP3    H251190   5.512   6.903   0.884  1.8272 -0.1960 -1.4226
 8999TIP3   OH251191   4.626   0.947   8.916 -0.2623 -0.2748  0.0862
 8999TIP3    H151192   4.539   0.911   8.935 -0.3742  0.3350  0.8253
 8999TIP3    H251193   4.680   0.917   8.989  0.2531 -0.9661 -0.5668
 9000TIP3   OH251194   1.098   1.900   2.541  0.0180  0.1767  0.4584
 9000TIP3    H151195   1.131   1.972   2.486  0.2648 -0.3077 -0.0446
 9000TIP3    H251196   1.168   1.835   2.540 -0.0265  0.1130  1.2658
 9001TIP3   OH251197   4.117   4.623   8.091  0.6611 -0.0797  0.6357
 9001TIP3    H151198   4.153   4.601   8.177  1.2695  0.4593  0.5327
 9001TIP3    H251199   4.072   4.544   8.062 -1.3715  0.3886  2.3548
 9002TIP3   OH251200   3.064   2.016   0.661  0.5153 -0.3434 -0.2701
 9002TIP3    H151201   3.044   2.042   0.752 -2.7175 -0.4658 -0.8223
 9002TIP3    H251202   3.107   1.932   0.669 -1.5761 -1.3681  1.1845
 9003TIP3   OH251203   4.891   3.402   7.347 -0.0299  0.0935 -0.4305
 9003TIP3    H151204   4.844   3.485   7.349 -0.0348  0.0906  1.1374
 9003TIP3    H251205   4.862   3.357   7.426 -0.8258 -1.8692 -1.7610
 9004TIP3   OH251206   4.724   5.263   8.940  0.4630 -0.4470 -0.0927
 9004TIP3    H151207   4.785   5.319   8.892  0.0738 -0.5380 -0.6935
 9004TIP3    H251208   4.735   5.290   9.032  0.2026  0.6980 -0.3761
 9005TIP3   OH251209   4.231   5.820   8.878  0.3116  0.5311  0.4783
 9005TIP3    H151210   4.312   5.769   8.878  0.5964  0.9831  0.1983
 9005TIP3    H251211   4.252   5.899   8.928 -0.2863  0.1357  1.3834
 9006TIP3   OH251212   6.448   4.670   8.310  0.5377  0.4009  0.7144
 9006TIP3    H151213   6.410   4.685   8.223  0.7720 -1.0860  0.3258
 9006TIP3    H251214   6.397   4.725   8.368 -1.7824 -0.9938  0.1073
 9007TIP3   OH251215   7.354   4.533   1.206  0.5750  0.2718 -0.7175
 9007TIP3    H151216   7.433   4.551   1.156  0.6757  2.6085  0.1446
 9007TIP3    H251217   7.306   4.616   1.205  0.2827  0.2615  2.4553
 9008TIP3   OH251218   1.174   5.139   0.001 -0.4059  0.3738 -0.1027
 9008TIP3    H151219   1.110   5.111   0.066  0.0280  1.3848  0.7972
 9008TIP3    H251220   1.201   5.226   0.030  1.0581  0.1510 -0.6950
 9009TIP3   OH251221   1.986   3.988   9.585  0.1921  0.2652  0.1339
 9009TIP3    H151222   1.905   4.037   9.575  0.1373  0.2080  0.2931
 9009TIP3    H251223   2.032   4.031   9.658  0.1798  0.1308  0.2221
 9010TIP3   OH251224   5.247   0.199   2.550 -0.5030 -0.3644  0.2267
 9010TIP3    H151225   5.309   0.270   2.562 -0.1950 -0.4054 -1.0289
 9010TIP3    H251226   5.216   0.180   2.639  1.3683 -0.4414  0.9227
 9011TIP3   OH251227   3.708   1.071   1.319  0.4035 -0.4024  0.1351
 9011TIP3    H151228   3.722   0.987   1.363 -2.7585 -0.5892  1.0392
 9011TIP3    H251229   3.681   1.131   1.388  4.0649  1.9765 -0.2130
 9012TIP3   OH251230   0.152   4.366   8.975  0.2455  0.1026  0.6686
 9012TIP3    H151231   0.150   4.390   8.883  1.7358 -0.3498  0.4830
 9012TIP3    H251232   0.220   4.422   9.013  1.8966 -1.8466  0.7818
 9013TIP3   OH251233   6.773   6.043   2.586  0.3494  0.2851 -0.0492
 9013TIP3    H151234   6.718   5.999   2.521  0.0473  3.9434 -2.6026
 9013TIP3    H251235   6.711   6.093   2.640  0.7843 -0.7945  1.4927
 9014TIP3   OH251236   4.202   6.198   8.757 -0.4832  0.0702  0.8531
 9014TIP3    H151237   4.215   6.291   8.741 -1.1597  0.1562  0.7850
 9014TIP3    H251238   4.267   6.155   8.702  0.1061  0.5148  1.1993
 9015TIP3   OH251239   4.698   6.423   1.405 -0.0851  0.2797  0.3524
 9015TIP3    H151240   4.668   6.430   1.314 -1.1198 -1.5927  0.4842
 9015TIP3    H251241   4.781   6.470   1.407 -1.8938  3.8326 -0.5659
 9016TIP3   OH251242   5.437   1.508   9.949 -0.2610 -0.0486 -0.8347
 9016TIP3    H151243   5.426   1.537   9.859 -1.0011  1.3523 -0.3203
 9016TIP3    H251244   5.348   1.508   9.985 -0.1334 -1.7492 -0.4220
 9017TIP3   OH251245   3.554   1.520   7.272 -0.0918  0.0737  0.0988
 9017TIP3    H151246   3.596   1.549   7.191  0.9775  1.3542  1.0758
 9017TIP3    H251247   3.604   1.442   7.298 -1.6957 -1.5883 -1.4578
 9018TIP3   OH251248   2.807   2.364   9.595  0.3744  0.4302 -0.9114
 9018TIP3    H151249   2.786   2.452   9.564 -0.7961 -0.0688 -1.6007
 9018TIP3    H251250   2.723   2.328   9.623  0.9040 -0.3299 -0.2568
 9019TIP3   OH251251   0.425   6.389   0.599 -0.4461 -0.1506 -0.3157
 9019TIP3    H151252   0.369   6.457   0.634  0.0709  0.3612 -0.4611
 9019TIP3    H251253   0.505   6.435   0.572  0.2839 -0.9375  0.4281
 9020TIP3   OH251254   6.021   1.032   2.262  0.1546  0.2398 -0.0591
 9020TIP3    H151255   6.101   1.078   2.234  0.8392 -1.2585 -0.6451
 9020TIP3    H251256   5.951   1.096   2.248  1.2214  1.5882  0.4420
 9021TIP3   OH251257   0.935   0.609   0.217 -0.1650  0.0913  0.4091
 9021TIP3    H151258   0.849   0.569   0.207  0.9168 -2.6907  1.2534
 9021TIP3    H251259   0.996   0.545   0.180  1.5317  2.5151 -1.3478
 9022TIP3   OH251260   5.064   1.070   0.162 -0.3883  0.0703  0.2955
 9022TIP3    H151261   5.050   0.977   0.181 -1.3725  0.1851  0.2099
 9022TIP3    H251262   5.143   1.093   0.210  0.3487 -1.0116 -0.3562
 9023TIP3   OH251263   5.001   6.962   0.747  0.0802 -0.5285 -0.1215
 9023TIP3    H151264   4.937   6.891   0.757 -2.8408  1.9753  0.2707
 9023TIP3    H251265   5.000   6.982   0.653 -2.0931  1.4247  0.2356
 9024TIP3   OH251266   5.625   1.346   9.782  0.2350  0.3603  0.1155
 9024TIP3    H151267   5.575   1.424   9.808 -0.3062  1.1178 -2.8612
 9024TIP3    H251268   5.558   1.279   9.767  0.6509 -0.5396  1.9206
 9025TIP3   OH251269   3.112   0.946   8.499 -0.1533 -0.1124 -0.1750
 9025TIP3    H151270   3.188   1.001   8.481 -0.5588  0.0999 -1.3265
 9025TIP3    H251271   3.043   1.008   8.524  0.3670 -0.3909  2.1408
 9026TIP3   OH251272   3.777   7.368   2.343 -0.7892 -0.4231 -0.1642
 9026TIP3    H151273   3.856   7.314   2.349 -1.2666 -1.2783 -1.1009
 9026TIP3    H251274   3.809   7.458   2.350 -0.0538 -0.8016  2.2431
 9027TIP3   OH251275   1.164   3.747   7.120 -0.0565  0.3100 -0.2469
 9027TIP3    H151276   1.219   3.686   7.071 -1.1620 -0.7081 -0.2761
 9027TIP3    H251277   1.189   3.833   7.088  0.6083 -0.2097 -1.1846
 9028TIP3   OH251278   0.307   6.724   7.961 -0.3063 -0.0396  0.3078
 9028TIP3    H151279   0.257   6.645   7.939  0.1365 -0.3888  0.5381
 9028TIP3    H251280   0.279   6.747   8.049 -0.5306  0.1357  0.1908
 9029TIP3   OH251281   2.817   6.241   7.000  0.1362 -0.2919  0.3991
 9029TIP3    H151282   2.725   6.244   7.025 -0.2431 -0.8351 -0.8318
 9029TIP3    H251283   2.827   6.157   6.955  0.5670  0.8551 -1.8119
 9030TIP3   OH251284   2.927   5.139   1.817  0.1636  0.2621  0.4320
 9030TIP3    H151285   2.966   5.222   1.789  0.4198 -0.6717 -2.2844
 9030TIP3    H251286   2.998   5.075   1.809 -0.6402 -0.6188  0.0571
 9031TIP3   OH251287   2.279   3.840   2.576  0.0222  0.4050 -0.0060
 9031TIP3    H151288   2.239   3.778   2.638  1.3304 -0.6653 -0.1923
 9031TIP3    H251289   2.310   3.912   2.631 -1.9760  1.2041  0.1611
 9032TIP3   OH251290   2.205   1.732   1.884  0.4437 -0.1463  0.2848
 9032TIP3    H151291   2.249   1.689   1.812 -0.0012 -0.2140  0.0517
 9032TIP3    H251292   2.118   1.692   1.887  1.0195 -1.4211  1.9765
 9033TIP3   OH251293   4.917   5.550   9.652  0.4206 -0.3785  0.6747
 9033TIP3    H151294   4.974   5.598   9.712  0.4462 -0.0019  0.3503
 9033TIP3    H251295   4.869   5.489   9.708  0.7617 -0.3321  1.0191
 9034TIP3   OH251296   7.513   0.983   9.106 -1.0597 -0.1291  0.0700
 9034TIP3    H151297   7.497   1.070   9.141 -0.1645 -1.0948  3.1699
 9034TIP3    H251298   7.595   0.991   9.057 -0.9472  0.7449  0.3936
 9035TIP3   OH251299   0.559   0.919   7.304 -0.0286 -0.1385  0.2687
 9035TIP3    H151300   0.509   0.838   7.314  0.8955 -0.6670  0.8084
 9035TIP3    H251301   0.641   0.891   7.264 -0.3272  0.7781 -1.0588
 9036TIP3   OH251302   0.969   0.324   3.181  0.1409 -0.1914  0.6677
 9036TIP3    H151303   0.935   0.382   3.249 -0.9535 -2.0657  1.8170
 9036TIP3    H251304   1.061   0.349   3.172 -0.2262  1.5277  1.2672
 9037TIP3   OH251305   6.734   6.838   0.328 -0.0770 -0.0482 -0.2363
 9037TIP3    H151306   6.674   6.847   0.254 -0.2350  0.4357 -0.0567
 9037TIP3    H251307   6.818   6.817   0.288 -0.1154  0.4051 -0.5708
 9038TIP3   OH251308   3.636   0.193   9.292 -0.3434  0.5172  0.2907
 9038TIP3    H151309   3.616   0.164   9.203 -1.4996 -2.3658  1.3972
 9038TIP3    H251310   3.723   0.233   9.284  1.2164 -2.7766 -1.6083
 9039TIP3   OH251311   2.077   4.423   0.049 -0.3828 -0.1749 -0.1517
 9039TIP3    H151312   2.145   4.488   0.065 -0.0800 -0.0903 -1.6421
 9039TIP3    H251313   2.001   4.474   0.021 -0.2290 -0.4421 -1.0649
 9040TIP3   OH251314   4.871   6.141   8.823  0.3834 -0.2408 -0.0489
 9040TIP3    H151315   4.804   6.181   8.878  1.0199  0.0710  0.5115
 9040TIP3    H251316   4.853   6.174   8.735 -2.7749 -3.3672 -0.8008
 9041TIP3   OH251317   4.273   0.121   7.513  0.5015 -0.5044  0.0329
 9041TIP3    H151318   4.332   0.187   7.551  0.1378 -0.0448 -0.1863
 9041TIP3    H251319   4.287   0.127   7.419 -0.5866  0.2944 -0.0970
 9042TIP3   OH251320   7.441   3.354   1.961  0.3736 -0.4407 -0.2354
 9042TIP3    H151321   7.502   3.428   1.962 -0.5210  0.3490  1.9046
 9042TIP3    H251322   7.481   3.289   2.019 -0.7531  0.0790  1.1825
 9043TIP3   OH251323   0.216   2.098   2.434  0.7810  0.5756 -0.2840
 9043TIP3    H151324   0.289   2.157   2.451  0.3266  1.4382 -1.1843
 9043TIP3    H251325   0.231   2.066   2.345 -0.3694  1.4601 -0.8294
 9044TIP3   OH251326   1.895   6.261   1.103 -0.0891 -0.2892 -0.0164
 9044TIP3    H151327   1.977   6.215   1.124  0.5360  1.3608  1.3049
 9044TIP3    H251328   1.910   6.295   1.014  1.4405  1.5389  0.8734
 9045TIP3   OH251329   5.421   3.013   8.407 -0.2604 -0.3212  0.0812
 9045TIP3    H151330   5.419   2.918   8.398  1.7906 -0.3347 -0.6367
 9045TIP3    H251331   5.413   3.028   8.502  0.4543 -1.2605  0.3012
 9046TIP3   OH251332   1.735   4.923   1.442  0.3399 -0.0732  0.1188
 9046TIP3    H151333   1.812   4.881   1.403 -1.1424 -2.4289 -0.4796
 9046TIP3    H251334   1.766   5.010   1.467  3.0887 -0.7800 -0.4165
 9047TIP3   OH251335   5.835   1.425   0.564 -0.3832 -0.2154 -0.3073
 9047TIP3    H151336   5.810   1.360   0.630 -0.0618  0.0620  0.0890
 9047TIP3    H251337   5.752   1.454   0.527 -0.5330 -0.8156 -0.4499
 9048TIP3   OH251338   1.812   1.933   0.527 -0.0430 -0.6839  0.4437
 9048TIP3    H151339   1.818   1.853   0.579  0.4408 -0.7054  0.3593
 9048TIP3    H251340   1.850   2.001   0.582  1.2597 -0.8627 -0.1914
 9049TIP3   OH251341   3.391   3.901   9.662 -0.6874  0.5405 -0.1689
 9049TIP3    H151342   3.331   3.876   9.592 -1.0563  3.6175 -1.1075
 9049TIP3    H251343   3.337   3.952   9.723  0.6301  2.2664 -0.3628
 9050TIP3   OH251344   2.835   5.240   8.392 -0.0119 -0.0342 -0.2923
 9050TIP3    H151345   2.896   5.183   8.440 -1.3838 -0.6571  0.7780
 9050TIP3    H251346   2.815   5.191   8.313 -0.6202 -0.7399  0.2826
 9051TIP3   OH251347   3.447   3.098   8.482 -0.3942  0.1476 -0.1875
 9051TIP3    H151348   3.361   3.139   8.471 -0.1656  0.9089  0.7120
 9051TIP3    H251349   3.488   3.148   8.553  0.6781 -0.3922 -0.4138
 9052TIP3   OH251350   1.461   7.018   8.048 -0.0046  0.1875 -0.2266
 9052TIP3    H151351   1.462   7.111   8.069  2.8586  0.2898 -0.4278
 9052TIP3    H251352   1.507   6.976   8.121 -0.2335 -0.9351 -0.7024
 9053TIP3   OH251353   4.628   1.828   8.115  0.0114 -0.0954 -0.1477
 9053TIP3    H151354   4.585   1.908   8.145  0.6231  0.3369 -0.4005
 9053TIP3    H251355   4.699   1.814   8.179  0.1928 -0.1794 -0.3672
 9054TIP3   OH251356   2.469   4.169   8.183  0.4934  0.2481  0.5261
 9054TIP3    H151357   2.378   4.147   8.165 -0.2863  2.6687  1.1205
 9054TIP3    H251358   2.473   4.180   8.278  1.0566  1.4029  0.3889
 9055TIP3   OH251359   5.428   1.222   7.239  0.3190  0.0835 -0.4626
 9055TIP3    H151360   5.473   1.224   7.154  1.3909  1.9874  0.0823
 9055TIP3    H251361   5.479   1.281   7.294 -1.1299 -0.0700  1.1267
 9056TIP3   OH251362   6.873   4.880   6.590  0.4035 -0.2979 -0.5714
 9056TIP3    H151363   6.916   4.954   6.632  2.2409 -0.3583 -2.2395
 9056TIP3    H251364   6.791   4.870   6.638  0.7184  1.9526  0.5510
 9057TIP3   OH251365   0.025   1.960   2.574 -0.2389  0.4168  0.4014
 9057TIP3    H151366   0.087   2.013   2.524  1.0408  0.1105  1.6104
 9057TIP3    H251367  -0.052   2.016   2.584  0.5951  1.5643  0.5705
 9058TIP3   OH251368   6.784   7.002   1.893  0.8836  0.1749 -0.2280
 9058TIP3    H151369   6.820   7.090   1.882  0.8381  0.6989  2.7489
 9058TIP3    H251370   6.689   7.014   1.888  0.9060  0.0399 -1.1067
 9059TIP3   OH251371   1.944   3.536   0.282 -0.5744  0.3869 -0.1200
 9059TIP3    H151372   2.025   3.487   0.292 -0.4068  0.7425  0.2558
 9059TIP3    H251373   1.875   3.469   0.281 -0.2751  0.0794 -0.5509
 9060TIP3   OH251374   3.874   1.755   0.042 -0.3224 -0.2833 -0.2606
 9060TIP3    H151375   3.891   1.663   0.026  0.3438 -0.1608 -0.2896
 9060TIP3    H251376   3.878   1.764   0.137 -0.7150 -0.3460 -0.2384
 9061TIP3   OH251377   4.766   3.575   7.826  0.3267 -0.2056  0.0333
 9061TIP3    H151378   4.824   3.626   7.883 -0.2009 -0.9463  1.2872
 9061TIP3    H251379   4.815   3.495   7.809 -0.7889 -1.4676  2.2631
 9062TIP3   OH251380   2.156   4.013   7.250 -0.4587  0.2906  0.0024
 9062TIP3    H151381   2.220   3.943   7.235 -0.4929 -0.0321  1.2672
 9062TIP3    H251382   2.172   4.041   7.340 -1.8470  0.4542  0.2217
 9063TIP3   OH251383   7.500   2.498   0.479 -0.2778  0.6208  0.2065
 9063TIP3    H151384   7.465   2.517   0.392 -0.7162  0.8480  0.4253
 9063TIP3    H251385   7.422   2.488   0.534 -0.0094  1.4487  0.7670
 9064TIP3   OH251386   3.819   1.858   9.355  0.5375 -0.5449 -0.1497
 9064TIP3    H151387   3.879   1.795   9.314  1.6388 -1.6820  2.9169
 9064TIP3    H251388   3.735   1.842   9.313  0.6659 -4.4963  0.7178
 9065TIP3   OH251389   1.157   2.986   9.904  0.1455  0.5825 -0.8255
 9065TIP3    H151390   1.105   2.970   9.825  0.7140 -0.5254 -1.0008
 9065TIP3    H251391   1.235   2.931   9.893 -0.0776 -0.1066  0.8203
 9066TIP3   OH251392   0.491   5.082   9.020 -0.0430 -0.2706  0.1646
 9066TIP3    H151393   0.410   5.060   8.976 -0.6972  1.2128  0.5388
 9066TIP3    H251394   0.523   5.000   9.056 -1.5255 -0.8357  0.2407
 9067TIP3   OH251395   1.737   5.681   1.780  0.0068 -0.4984  0.0179
 9067TIP3    H151396   1.670   5.650   1.719  0.9628 -1.9900 -0.3209
 9067TIP3    H251397   1.688   5.700   1.860 -0.8139 -1.8855 -0.1092
 9068TIP3   OH251398   0.996   5.041   3.054  1.2407 -0.5832  0.1187
 9068TIP3    H151399   1.071   4.983   3.040  1.3573 -0.4208  0.0702
 9068TIP3    H251400   1.034   5.121   3.090  1.2534  0.0204 -1.2086
 9069TIP3   OH251401   1.744   0.820   8.677  0.6080  0.6818 -0.2079
 9069TIP3    H151402   1.812   0.886   8.663  0.9838  0.5973  1.0868
 9069TIP3    H251403   1.728   0.784   8.590  1.1480  1.7425 -0.7717
 9070TIP3   OH251404   0.582   7.094   1.938  0.0677  0.1973  0.0741
 9070TIP3    H151405   0.547   7.094   2.028  0.8927 -3.4640  0.5434
 9070TIP3    H251406   0.506   7.116   1.883 -0.8755  0.7739  1.5261
 9071TIP3   OH251407   2.391   2.182   1.136 -0.0606  0.6411 -0.2505
 9071TIP3    H151408   2.395   2.245   1.063  0.8333  0.4239 -0.3963
 9071TIP3    H251409   2.428   2.230   1.210 -0.6019  0.7245 -0.0283
 9072TIP3   OH251410   7.404   0.434   0.556 -0.3754  0.2667  0.4293
 9072TIP3    H151411   7.369   0.416   0.469  1.6586 -0.3209 -0.3285
 9072TIP3    H251412   7.334   0.481   0.601 -2.5251 -1.7707 -0.5683
 9073TIP3   OH251413   1.779   7.613   7.174 -0.0905  0.1714  0.2004
 9073TIP3    H151414   1.794   7.523   7.146 -0.2808 -0.1460  1.1065
 9073TIP3    H251415   1.867   7.646   7.194 -0.2175 -0.6484  2.3445
 9074TIP3   OH251416   4.716   5.087   7.660 -0.1829  0.1940 -0.2068
 9074TIP3    H151417   4.696   5.081   7.754 -0.6219  1.1342 -0.2266
 9074TIP3    H251418   4.810   5.074   7.655 -0.0470  0.8159  0.4564
 9075TIP3   OH251419   6.009   7.007   6.868 -0.4239  0.1063  0.2265
 9075TIP3    H151420   6.007   7.067   6.793  0.1371 -0.5775 -0.3464
 9075TIP3    H251421   5.998   7.065   6.944 -0.9316  0.8176 -0.3671
 9076TIP3   OH251422   2.208   6.410   7.486 -0.4753  0.0118  0.3275
 9076TIP3    H151423   2.222   6.505   7.479  0.3980 -0.0488  1.0113
 9076TIP3    H251424   2.146   6.401   7.558 -1.0175  0.0888 -0.1255
 9077TIP3   OH251425   4.637   1.599   2.106  0.0959 -0.3236 -0.4415
 9077TIP3    H151426   4.689   1.540   2.052 -1.5613 -1.1924 -1.1709
 9077TIP3    H251427   4.691   1.677   2.117  1.7395 -1.3950 -0.6868
 9078TIP3   OH251428   6.526   1.038   8.675  0.0136 -0.2079 -0.0347
 9078TIP3    H151429   6.505   1.129   8.694  2.7155 -0.2598  4.7468
 9078TIP3    H251430   6.599   1.042   8.613 -0.4250  0.8122 -0.5044
 9079TIP3   OH251431   0.965   3.110   9.565  0.4823 -0.4108 -0.3313
 9079TIP3    H151432   0.920   3.107   9.481  0.5146  0.6807 -0.4059
 9079TIP3    H251433   1.040   3.051   9.555 -1.0627 -2.5133 -0.0998
 9080TIP3   OH251434   2.452   4.038   0.484  0.2176  0.0343 -0.3469
 9080TIP3    H151435   2.390   4.031   0.557 -0.6623  0.8934 -0.9876
 9080TIP3    H251436   2.400   4.076   0.413  1.4480  0.6130 -0.9527
 9081TIP3   OH251437   5.208   4.552   7.674  0.2846 -0.2181  0.1063
 9081TIP3    H151438   5.119   4.566   7.642  0.0086 -1.2564  0.3879
 9081TIP3    H251439   5.233   4.468   7.637  1.2234  0.1426 -0.1013
 9082TIP3   OH251440   0.798   4.587   1.183  0.1465  0.0914 -0.0922
 9082TIP3    H151441   0.859   4.660   1.198 -0.2426  0.1031  1.6555
 9082TIP3    H251442   0.847   4.526   1.127  1.5840  0.3583  0.8117
 9083TIP3   OH251443   4.534   3.179   8.445  0.2389 -0.0440 -0.1255
 9083TIP3    H151444   4.547   3.173   8.540 -1.4757  1.0312  0.2256
 9083TIP3    H251445   4.500   3.093   8.420  0.5429 -0.2810  0.2580
 9084TIP3   OH251446   0.051   2.427   1.268 -0.1518 -0.1186 -0.1521
 9084TIP3    H151447  -0.022   2.406   1.326  0.8676 -0.0538  1.2087
 9084TIP3    H251448   0.010   2.463   1.189 -1.5678  0.3247  0.7552
 9085TIP3   OH251449   0.207   1.733   9.013 -0.3577  0.3697  0.0974
 9085TIP3    H151450   0.116   1.762   9.022 -0.1626  0.6648  1.4830
 9085TIP3    H251451   0.257   1.814   9.001 -0.1549  0.3461  0.7114
 9086TIP3   OH251452   2.085   0.278   2.106 -0.2004 -0.5129  0.0308
 9086TIP3    H151453   2.142   0.259   2.180  0.9817 -1.4044 -1.0671
 9086TIP3    H251454   2.027   0.348   2.137  1.8103  0.8103  1.0422
 9087TIP3   OH251455   4.730   5.835   0.247 -0.3350 -0.2197 -0.1440
 9087TIP3    H151456   4.809   5.888   0.242 -0.2972 -0.1770  0.7103
 9087TIP3    H251457   4.659   5.898   0.255 -0.4442 -0.2620 -0.7576
 9088TIP3   OH251458   5.573   6.300   8.003  0.1263 -0.6202  0.3218
 9088TIP3    H151459   5.569   6.380   7.951 -0.6395 -2.0244 -1.8982
 9088TIP3    H251460   5.647   6.251   7.967 -0.1722 -1.4516  0.7962
 9089TIP3   OH251461   0.045   3.127   8.832 -0.1309 -0.1721  0.0794
 9089TIP3    H151462   0.047   3.155   8.924  0.8252  1.0153 -0.2765
 9089TIP3    H251463  -0.047   3.135   8.807 -0.0747  1.6780  0.3108
 9090TIP3   OH251464   5.893   2.542   9.503 -0.0072  0.1396  0.5781
 9090TIP3    H151465   5.958   2.517   9.438 -1.6280 -1.9419 -0.3797
 9090TIP3    H251466   5.866   2.630   9.478  0.9349  0.1971 -0.2802
 9091TIP3   OH251467   4.949   2.615   8.158  0.0136  0.0087 -0.0845
 9091TIP3    H151468   4.957   2.618   8.063  1.0820 -3.9100 -0.3073
 9091TIP3    H251469   4.855   2.608   8.174 -0.3314  2.5792 -0.6283
 9092TIP3   OH251470   2.640   2.385   1.163  0.8748  0.5309  0.3958
 9092TIP3    H151471   2.564   2.441   1.175 -0.8259 -1.2172 -1.3616
 9092TIP3    H251472   2.648   2.375   1.068  0.3075 -2.9895  0.5533
 9093TIP3   OH251473   4.185   2.851   0.041 -0.3200  0.1095  0.2813
 9093TIP3    H151474   4.109   2.901   0.071  0.5526  0.9276  1.2214
 9093TIP3    H251475   4.215   2.897  -0.037  1.3983  2.0923  1.9889
 9094TIP3   OH251476   6.383   0.065   1.216 -0.3238 -0.5397  0.3586
 9094TIP3    H151477   6.310   0.069   1.154  1.0324 -0.8517 -1.3061
 9094TIP3    H251478   6.440  -0.003   1.182  2.0364  1.4168  0.1877
 9095TIP3   OH251479   3.802   6.400   2.261 -0.1398 -0.0063 -0.0368
 9095TIP3    H151480   3.816   6.377   2.353  1.8206 -0.0971 -0.3051
 9095TIP3    H251481   3.888   6.387   2.220 -1.0010 -0.0919 -1.9162
 9096TIP3   OH251482   1.877   3.580   7.360  0.7638 -0.1583 -0.0435
 9096TIP3    H151483   1.890   3.544   7.448  2.0458 -0.5091 -0.3463
 9096TIP3    H251484   1.876   3.503   7.303  0.4056  0.0989 -0.3890
 9097TIP3   OH251485   2.992   1.066   2.079  0.0495  0.4244 -0.2112
 9097TIP3    H151486   2.916   1.071   2.137 -0.2520  1.0393 -0.6486
 9097TIP3    H251487   2.959   1.089   1.993  0.2486 -1.6678 -0.9061
 9098TIP3   OH251488   3.659   2.651   7.262  0.4912 -0.0323 -0.2039
 9098TIP3    H151489   3.754   2.642   7.251  0.5808  0.5393  0.0539
 9098TIP3    H251490   3.648   2.668   7.356  0.1646  0.2768 -0.2974
 9099TIP3   OH251491   6.847   0.152   0.536 -0.3820 -0.1097  0.3027
 9099TIP3    H151492   6.861   0.115   0.449  0.3082  2.6817 -0.8767
 9099TIP3    H251493   6.755   0.132   0.556 -0.6712 -0.4763 -1.2440
 9100TIP3   OH251494   0.260   1.440   9.958  0.0435  0.0108 -0.0191
 9100TIP3    H151495   0.273   1.519   9.907  1.1220 -0.6098 -0.7270
 9100TIP3    H251496   0.316   1.451  10.035 -1.1939  0.7179  0.8224
 9101TIP3   OH251497   0.782   5.653   8.638  0.5214 -0.3472  0.8185
 9101TIP3    H151498   0.762   5.734   8.685  0.2759  0.1647 -0.1502
 9101TIP3    H251499   0.869   5.667   8.600  0.4361 -0.4923  0.5619
 9102TIP3   OH251500   0.955   1.353   8.195 -0.2853  0.5188  0.1038
 9102TIP3    H151501   1.023   1.286   8.190 -1.1617 -0.3852 -0.1174
 9102TIP3    H251502   0.972   1.399   8.277 -0.3314 -0.7266  0.8299
 9103TIP3   OH251503   3.248   7.201   2.510 -0.5107 -0.2679  0.0850
 9103TIP3    H151504   3.160   7.174   2.485 -0.9771  0.1706  1.2324
 9103TIP3    H251505   3.290   7.120   2.540 -1.2456 -0.0980  1.6068
 9104TIP3   OH251506   1.851   4.982   0.542  0.1927  0.1652  0.8058
 9104TIP3    H151507   1.853   5.050   0.610 -0.6802  1.5987 -0.5571
 9104TIP3    H251508   1.779   4.924   0.568 -0.2205  0.7716  1.0326
 9105TIP3   OH251509   3.584   5.765   2.020  0.4213 -0.2368 -0.1920
 9105TIP3    H151510   3.577   5.729   1.931  2.8223  0.5850 -0.7833
 9105TIP3    H251511   3.620   5.852   2.008 -0.2523  0.3193  1.5550
 9106TIP3   OH251512   4.848   3.576   8.799  0.2177 -0.2180  0.7581
 9106TIP3    H151513   4.758   3.607   8.808  0.8131  1.9545 -0.1677
 9106TIP3    H251514   4.891   3.602   8.881  0.1910 -0.5457  0.8762
 9107TIP3   OH251515   6.639   4.704   9.714  0.6481 -0.1456 -0.0335
 9107TIP3    H151516   6.718   4.697   9.661  0.1952  1.0735 -0.9360
 9107TIP3    H251517   6.652   4.644   9.787  0.3974 -3.6359 -2.6178
 9108TIP3   OH251518   3.030   4.413   7.421  0.3485 -0.1337  0.3904
 9108TIP3    H151519   3.054   4.351   7.352  0.2788  0.9043 -0.5975
 9108TIP3    H251520   2.965   4.367   7.474  2.0900 -1.8095  1.1902
 9109TIP3   OH251521   1.576   4.947   8.131 -0.5720  0.1590  0.4923
 9109TIP3    H151522   1.579   5.031   8.176 -0.2952  2.0230 -2.6676
 9109TIP3    H251523   1.490   4.946   8.089  0.4375  0.2683 -1.7494
 9110TIP3   OH251524   6.446   0.257   7.715 -0.2618 -0.1097 -0.1662
 9110TIP3    H151525   6.530   0.286   7.680  0.4264 -0.4254  1.1862
 9110TIP3    H251526   6.384   0.325   7.688  0.3811  0.0742 -1.2603
 9111TIP3   OH251527   5.989   4.080   8.864 -0.7139  0.3835 -0.1316
 9111TIP3    H151528   5.944   4.015   8.809 -1.8205  0.7110  0.3719
 9111TIP3    H251529   6.073   4.094   8.819 -1.7664  0.9937 -2.0263
 9112TIP3   OH251530   0.394   6.920   8.961  0.0906 -0.3976  0.2473
 9112TIP3    H151531   0.344   6.870   9.026  1.5438  0.0306  1.7603
 9112TIP3    H251532   0.461   6.965   9.012 -0.0081  1.6504 -1.2989
 9113TIP3   OH251533   2.674   3.611   1.204  0.3018 -0.1148  0.2302
 9113TIP3    H151534   2.718   3.539   1.249 -2.2502 -0.9831  1.5235
 9113TIP3    H251535   2.650   3.575   1.119  0.5534 -0.2172  0.2026
 9114TIP3   OH251536   6.346   3.995   9.869 -0.4339  0.0765 -0.0858
 9114TIP3    H151537   6.258   3.998   9.831 -1.0903 -1.1342  1.2321
 9114TIP3    H251538   6.389   4.075   9.838 -1.6604  0.2185 -1.5288
 9115TIP3   OH251539   0.391   4.024   0.547  0.5525  0.2187 -0.1626
 9115TIP3    H151540   0.317   4.018   0.486  0.2456  0.6122  0.1578
 9115TIP3    H251541   0.442   4.099   0.515  0.8738 -0.1244 -0.4501
 9116TIP3   OH251542   7.494   1.611   8.121 -0.1042 -0.1666 -0.1675
 9116TIP3    H151543   7.413   1.559   8.127 -0.0296 -0.3661 -0.8447
 9116TIP3    H251544   7.564   1.546   8.129 -0.0130 -0.0770 -0.2544
 9117TIP3   OH251545   0.076   3.150   1.179  0.2226  0.0719 -0.1151
 9117TIP3    H151546   0.157   3.119   1.219 -0.2854  2.4765  3.2057
 9117TIP3    H251547   0.089   3.244   1.170 -1.7899  0.3485 -0.5051
 9118TIP3   OH251548   0.139   6.351   2.135  0.2796  0.2521 -0.5033
 9118TIP3    H151549   0.211   6.410   2.111  0.6478  0.0416  0.0611
 9118TIP3    H251550   0.175   6.297   2.205 -0.1912 -0.3673 -0.7311
 9119TIP3   OH251551   7.017   4.130   7.484  0.2136 -0.1332 -0.3369
 9119TIP3    H151552   6.943   4.084   7.523  0.3105 -0.0947 -0.1050
 9119TIP3    H251553   6.979   4.180   7.412 -0.1247  0.5201  0.2844
 9120TIP3   OH251554   7.212   1.236   0.528 -0.1287 -0.4597 -0.0609
 9120TIP3    H151555   7.146   1.280   0.475 -1.7556 -3.5172 -0.7620
 9120TIP3    H251556   7.200   1.273   0.616 -1.7726  0.0983 -0.4875
 9121TIP3   OH251557   4.787   7.329   1.545  0.6036  0.1096 -0.3870
 9121TIP3    H151558   4.757   7.246   1.509  0.4449  0.0653 -0.1549
 9121TIP3    H251559   4.706   7.378   1.562  0.6730  0.0729  0.0439
 9122TIP3   OH251560   1.967   7.215   0.450  0.5711  0.1513 -0.6047
 9122TIP3    H151561   2.062   7.224   0.448  0.4077  2.7921 -1.3827
 9122TIP3    H251562   1.935   7.302   0.425 -2.0549 -0.1185  1.4022
 9123TIP3   OH251563   2.270   4.412   2.446  0.3127  0.0916 -0.1262
 9123TIP3    H151564   2.260   4.490   2.391  0.2573  0.4808  0.4256
 9123TIP3    H251565   2.210   4.427   2.519  0.9063 -0.0956  0.4029
 9124TIP3   OH251566   0.259   1.899   7.902  0.4815 -0.2065 -0.2527
 9124TIP3    H151567   0.277   1.951   7.980 -3.3265 -1.5183  1.7595
 9124TIP3    H251568   0.270   1.959   7.829  1.3250  1.8951  1.4997
 9125TIP3   OH251569   1.269   5.340   9.599 -0.6043  0.0897  0.1321
 9125TIP3    H151570   1.223   5.328   9.516 -1.4423 -0.3278  0.6431
 9125TIP3    H251571   1.228   5.277   9.658 -1.2708  1.6407  1.3714
 9126TIP3   OH251572   0.066   2.832   1.493  0.0931 -0.1236 -0.7370
 9126TIP3    H151573   0.006   2.876   1.553 -0.9871 -0.8816 -1.2217
 9126TIP3    H251574   0.148   2.880   1.501 -0.4286  0.6232  0.3283
 9127TIP3   OH251575   1.527   5.216   8.743 -0.2573 -0.6649 -0.0676
 9127TIP3    H151576   1.598   5.159   8.712  0.2916 -0.1286  0.1848
 9127TIP3    H251577   1.494   5.259   8.664 -0.8381 -1.4944 -0.2966
 9128TIP3   OH251578   7.673   0.045   2.499 -0.0044 -0.0263 -0.4091
 9128TIP3    H151579   7.724   0.124   2.484  0.1950 -0.1979 -0.6508
 9128TIP3    H251580   7.622   0.033   2.418  0.0252 -0.1872 -0.4052
 9129TIP3   OH251581   1.111   3.641   2.482 -0.1298  0.4911 -0.2355
 9129TIP3    H151582   1.125   3.559   2.530 -0.8952  0.7102  0.3845
 9129TIP3    H251583   1.188   3.650   2.427  0.4417 -0.1352  0.4399
 9130TIP3   OH251584   2.801   5.791   2.230  0.4530  0.4465  0.8975
 9130TIP3    H151585   2.871   5.803   2.294 -0.6256  0.3666  2.1479
 9130TIP3    H251586   2.723   5.772   2.283 -0.4934  0.4182 -0.4440
 9131TIP3   OH251587   0.515   6.955   2.347  0.0019  0.3615 -0.0650
 9131TIP3    H151588   0.529   6.882   2.287  0.8667  1.1853 -0.8981
 9131TIP3    H251589   0.584   6.947   2.412 -0.4780 -0.0927  0.4018
 9132TIP3   OH251590   6.951   0.968   2.855  0.2253  0.4717 -0.1058
 9132TIP3    H151591   6.901   0.986   2.775  0.5876 -2.0800 -0.9793
 9132TIP3    H251592   6.895   0.911   2.906  2.1036 -2.4768 -1.1141
 9133TIP3   OH251593   0.941   2.399   0.292  0.0635  0.2204 -0.1046
 9133TIP3    H151594   1.016   2.439   0.336 -0.2378 -0.4496  1.0533
 9133TIP3    H251595   0.964   2.402   0.199 -0.0018  3.1965 -0.1308
 9134TIP3   OH251596   2.872   2.797   0.259  0.2039 -0.5142 -0.0959
 9134TIP3    H151597   2.903   2.773   0.346  1.2600 -1.7933 -0.7827
 9134TIP3    H251598   2.911   2.732   0.200  0.2396  0.8289 -1.6421
 9135TIP3   OH251599   1.577   3.120   2.375  0.9426  0.3373  0.0147
 9135TIP3    H151600   1.638   3.176   2.327 -0.5151  2.2326  0.2591
 9135TIP3    H251601   1.623   3.100   2.456  1.3918  1.4738  0.0663
 9136TIP3   OH251602   7.671   0.987   2.280  0.7741 -0.3281  0.0830
 9136TIP3    H151603   7.590   0.937   2.272  0.7378 -0.0267 -2.2134
 9136TIP3    H251604   7.645   1.070   2.319 -0.4965  0.6055 -2.4944
 9137TIP3   OH251605   0.844   1.528   8.893 -0.1945 -0.7324  0.4639
 9137TIP3    H151606   0.928   1.507   8.934 -0.8553 -0.3459  2.0769
 9137TIP3    H251607   0.851   1.621   8.871 -1.3103  0.2006  3.5798
 9138TIP3   OH251608   4.866   6.517   9.095 -0.3520 -0.3915  0.1967
 9138TIP3    H151609   4.865   6.611   9.080  0.5270 -0.3943  0.0582
 9138TIP3    H251610   4.932   6.504   9.162 -1.0325 -0.8425  0.7980
 9139TIP3   OH251611   2.105   4.143   9.808 -0.1865 -0.4888 -0.1996
 9139TIP3    H151612   2.200   4.145   9.812 -0.1612 -1.0356 -0.5083
 9139TIP3    H251613   2.077   4.152   9.900  0.2185 -3.0356  0.2356
 9140TIP3   OH251614   3.450   5.503   7.756  0.4306  0.0064  0.1114
 9140TIP3    H151615   3.357   5.514   7.735  0.0065 -1.0440  1.2866
 9140TIP3    H251616   3.496   5.520   7.674 -0.8310  0.1273 -0.5906
 9141TIP3   OH251617   3.325   3.255   6.778 -0.3099  0.2262  0.1818
 9141TIP3    H151618   3.361   3.167   6.775 -0.2246  0.1348  2.1885
 9141TIP3    H251619   3.233   3.243   6.801 -0.4593  0.6416 -0.1791
 9142TIP3   OH251620   6.973   1.642   0.637 -0.1726  0.2763  0.0084
 9142TIP3    H151621   6.915   1.566   0.627  0.4134  0.0474 -2.3821
 9142TIP3    H251622   7.022   1.625   0.718  0.8334 -2.5774 -1.0677
 9143TIP3   OH251623   5.420   1.126   9.364 -0.6480 -0.1811 -0.3580
 9143TIP3    H151624   5.417   1.063   9.435 -1.2596  0.4676  0.2080
 9143TIP3    H251625   5.446   1.075   9.287 -1.8180 -1.2713 -0.0689
 9144TIP3   OH251626   3.567   4.502   9.041  0.0032 -0.2647 -0.9335
 9144TIP3    H151627   3.484   4.454   9.047 -1.2577  1.8037 -1.0362
 9144TIP3    H251628   3.621   4.448   8.983 -0.7047 -2.3794  0.2589
 9145TIP3   OH251629   5.750   0.784   3.246 -0.5770 -0.1288 -0.3645
 9145TIP3    H151630   5.778   0.799   3.336  0.4891  3.1884 -1.1022
 9145TIP3    H251631   5.821   0.820   3.192 -2.0405 -0.2325 -2.4909
 9146TIP3   OH251632   3.914   1.249   9.821  0.2223  0.4875 -0.0949
 9146TIP3    H151633   3.976   1.312   9.785  2.1735 -1.1833  0.1871
 9146TIP3    H251634   3.871   1.211   9.744  1.4104 -0.1325 -0.4822
 9147TIP3   OH251635   2.221   2.444   1.630  0.4463  0.3269 -0.2275
 9147TIP3    H151636   2.259   2.531   1.643 -0.8471  0.6220  2.0879
 9147TIP3    H251637   2.297   2.386   1.623  1.3628  1.6206 -2.4740
 9148TIP3   OH251638   3.213   0.721   7.818  0.2959  0.0372  0.8801
 9148TIP3    H151639   3.230   0.783   7.888 -1.7411 -1.6535  3.0272
 9148TIP3    H251640   3.167   0.648   7.860  1.1725 -2.2508 -1.7590
 9149TIP3   OH251641   2.499   6.370   2.784  0.5664 -0.1312 -0.7356
 9149TIP3    H151642   2.417   6.420   2.788  0.8253  0.2241  0.4049
 9149TIP3    H251643   2.501   6.322   2.867  1.4576 -0.2373 -0.8160
 9150TIP3   OH251644   6.980   7.269   8.296  0.1415  0.5793  0.0043
 9150TIP3    H151645   6.942   7.326   8.230 -0.9712 -1.9779 -1.6730
 9150TIP3    H251646   7.073   7.294   8.298  0.0656  1.1863 -2.0266
 9151TIP3   OH251647   4.904   0.506   8.204  0.4244 -0.1316  0.2114
 9151TIP3    H151648   4.980   0.533   8.153  0.0909 -1.9096 -1.3470
 9151TIP3    H251649   4.841   0.475   8.139 -1.1780  0.1369  1.5450
 9152TIP3   OH251650   3.621   6.023   8.793 -0.2633  0.1812  0.4435
 9152TIP3    H151651   3.689   5.986   8.849 -0.5903 -1.2471 -0.0625
 9152TIP3    H251652   3.566   5.949   8.770 -1.7659  1.2217  0.4951
 9153TIP3   OH251653   0.800   2.827   9.936 -0.3972  0.3859 -0.1826
 9153TIP3    H151654   0.839   2.824  10.023  2.1271  0.1443 -1.2514
 9153TIP3    H251655   0.872   2.806   9.876 -2.0706  0.4416 -2.3362
 9154TIP3   OH251656   4.270   1.087   9.148 -0.2955 -0.2064 -0.2485
 9154TIP3    H151657   4.188   1.107   9.102 -0.1882  2.8708  0.7046
 9154TIP3    H251658   4.242   1.066   9.238 -0.0872  0.0561 -0.1231
 9155TIP3   OH251659   0.736   5.446   0.524 -0.0764 -0.2745  0.5319
 9155TIP3    H151660   0.803   5.514   0.529  1.1946 -1.0017 -3.3062
 9155TIP3    H251661   0.767   5.377   0.582  0.5577  0.8470  1.5702
 9156TIP3   OH251662   4.589   2.259   0.388  0.1633 -0.3471 -0.4258
 9156TIP3    H151663   4.541   2.331   0.430  1.1321  0.0339  0.0929
 9156TIP3    H251664   4.587   2.280   0.295  0.2356  0.2488 -0.3029
 9157TIP3   OH251665   0.908   4.732   0.943 -0.1174 -0.7781  0.2928
 9157TIP3    H151666   0.990   4.682   0.944  0.6052  0.3165 -0.8453
 9157TIP3    H251667   0.906   4.777   1.028  0.7522 -0.3991  0.1282
 9158TIP3   OH251668   2.039   2.221   2.522  0.5124  0.3238  0.0045
 9158TIP3    H151669   2.018   2.309   2.552 -1.2749  0.2682 -0.9544
 9158TIP3    H251670   1.993   2.164   2.584  1.7870  0.0350  0.7144
 9159TIP3   OH251671   3.389   1.942   7.493  0.5467  0.3946  0.0718
 9159TIP3    H151672   3.471   1.892   7.498 -0.1044 -0.6060  1.1170
 9159TIP3    H251673   3.325   1.888   7.539 -1.2778  0.0990 -2.6262
 9160TIP3   OH251674   0.966   0.758   8.556  0.0671  0.0221  0.0260
 9160TIP3    H151675   0.933   0.672   8.531  2.1795 -0.2181 -2.2912
 9160TIP3    H251676   0.928   0.774   8.643 -2.1741 -2.2113 -0.4326
 9161TIP3   OH251677   6.517   7.177   1.598 -0.0466 -0.1971  0.0716
 9161TIP3    H151678   6.438   7.196   1.649  1.1668 -0.0978  2.0101
 9161TIP3    H251679   6.573   7.254   1.611  0.2903 -0.1524 -1.4809
 9162TIP3   OH251680   0.543   5.046   8.116 -0.8604  0.1688  0.4981
 9162TIP3    H151681   0.517   4.974   8.059  0.5381 -0.0073  0.0461
 9162TIP3    H251682   0.534   5.012   8.205 -0.9818 -0.2806  0.3146
 9163TIP3   OH251683   2.553   0.772   0.057  0.6548  0.0194  0.1799
 9163TIP3    H151684   2.613   0.714   0.105  1.4791  0.6443 -0.0787
 9163TIP3    H251685   2.538   0.727  -0.026  2.3774  0.7800 -0.5831
 9164TIP3   OH251686   0.888   2.169   7.859 -0.0040 -0.3939 -0.0132
 9164TIP3    H151687   0.857   2.085   7.824  0.9798 -0.3540 -1.0105
 9164TIP3    H251688   0.905   2.151   7.951 -0.1503 -1.1905 -0.1301
 9165TIP3   OH251689   5.740   1.615   1.436 -0.5946  0.4008 -0.0752
 9165TIP3    H151690   5.785   1.675   1.377  0.0091 -0.1335 -0.1678
 9165TIP3    H251691   5.773   1.637   1.523  0.3313 -0.3947 -0.2078
 9166TIP3   OH251692   5.502   2.711   9.153  0.0034  0.2133 -0.0844
 9166TIP3    H151693   5.438   2.729   9.222  0.9871  1.3650  0.5598
 9166TIP3    H251694   5.556   2.790   9.149 -0.5043  0.5363 -2.7436
 9167TIP3   OH251695   4.454   4.488   7.587 -0.7271  0.8781  0.1507
 9167TIP3    H151696   4.462   4.454   7.677 -2.3770  1.7577  0.6657
 9167TIP3    H251697   4.520   4.557   7.583  0.6580 -0.3870  0.0308
 9168TIP3   OH251698   6.875   5.037   9.175 -0.5207  0.4022  0.4044
 9168TIP3    H151699   6.791   5.068   9.141 -0.1113 -0.1119 -1.1956
 9168TIP3    H251700   6.920   5.116   9.204 -0.7753  0.9302 -0.5975
 9169TIP3   OH251701   1.932   4.527   7.468 -0.0632  0.0462  0.1270
 9169TIP3    H151702   2.002   4.466   7.445  0.0724  0.1565  0.2424
 9169TIP3    H251703   1.852   4.481   7.445  0.0357 -0.2010  0.2765
 9170TIP3   OH251704   5.091   4.243   9.688  0.3155 -0.4435 -0.1044
 9170TIP3    H151705   5.159   4.250   9.754  0.7250 -0.6656 -0.4970
 9170TIP3    H251706   5.084   4.149   9.670  0.3574 -0.3705 -0.5262
 9171TIP3   OH251707   1.912   5.432   8.482  0.4634  0.2246  0.0722
 9171TIP3    H151708   1.981   5.486   8.520 -0.0767  0.6742  0.4206
 9171TIP3    H251709   1.841   5.493   8.463 -0.4301 -0.4434  1.1220
 9172TIP3   OH251710   5.246   1.465   8.235  0.4338  0.1403  0.0855
 9172TIP3    H151711   5.170   1.410   8.251  0.6227 -0.1349  0.0453
 9172TIP3    H251712   5.321   1.406   8.247  0.8052  1.0234  3.1786
 9173TIP3   OH251713   1.677   2.546   2.226 -0.0923  0.0754 -0.2683
 9173TIP3    H151714   1.714   2.630   2.253 -1.3083  0.4226  0.3802
 9173TIP3    H251715   1.697   2.540   2.133  0.9158  0.5894 -0.1001
 9174TIP3   OH251716   2.749   7.222   1.518  0.1951 -0.0491  0.0802
 9174TIP3    H151717   2.710   7.141   1.484  1.3132  0.1989 -1.9693
 9174TIP3    H251718   2.843   7.213   1.499  0.3530  1.6826 -0.1418
 9175TIP3   OH251719   0.645   6.459   9.216 -0.0777  0.6019 -0.0440
 9175TIP3    H151720   0.661   6.365   9.212  1.1366  0.8208 -0.4417
 9175TIP3    H251721   0.654   6.481   9.309 -0.3839  0.3266  0.0522
 9176TIP3   OH251722   4.696   0.860   1.097  0.5516 -0.4969  0.2558
 9176TIP3    H151723   4.705   0.785   1.037  0.3138  1.3539 -2.2905
 9176TIP3    H251724   4.753   0.927   1.060  0.5527  0.7049  2.2885
 9177TIP3   OH251725   0.972   1.656   1.036  0.0814 -0.0165 -0.2123
 9177TIP3    H151726   0.960   1.564   1.016  2.6484 -0.0312 -2.1418
 9177TIP3    H251727   1.066   1.671   1.026 -0.1863  2.7013  0.5607
 9178TIP3   OH251728   3.798   2.756   0.429  0.4619 -0.2331 -0.1164
 9178TIP3    H151729   3.732   2.826   0.439 -0.7163 -1.2810 -0.2988
 9178TIP3    H251730   3.775   2.714   0.346 -1.2309 -3.2266  1.6977
 9179TIP3   OH251731   4.077   6.216   2.811  0.5529 -0.0194  0.3863
 9179TIP3    H151732   4.106   6.183   2.896 -0.4843 -1.3246  0.2718
 9179TIP3    H251733   3.984   6.195   2.808  0.7137 -0.6620 -1.3562
 9180TIP3   OH251734   7.551   3.777   0.610 -0.0521  0.2006  0.5355
 9180TIP3    H151735   7.488   3.815   0.548 -0.6028 -1.4345  0.0466
 9180TIP3    H251736   7.635   3.817   0.586 -0.6424  1.2639  0.1972
 9181TIP3   OH251737   2.489   3.920   8.046  0.2100  0.4189  0.8539
 9181TIP3    H151738   2.401   3.954   8.063 -0.7254 -1.4395  0.0328
 9181TIP3    H251739   2.536   3.934   8.129 -0.1606  3.2908  0.6808
 9182TIP3   OH251740   0.255   7.519   0.620  0.7686 -0.3477  0.4099
 9182TIP3    H151741   0.277   7.532   0.712 -1.3266  0.2146  0.8755
 9182TIP3    H251742   0.273   7.426   0.604  2.4761 -0.1533  0.9491
 9183TIP3   OH251743   4.137   2.131   1.901 -0.5262  0.2545 -0.4568
 9183TIP3    H151744   4.202   2.184   1.856 -0.6425  2.2349  1.5098
 9183TIP3    H251745   4.188   2.070   1.955 -0.2497  1.4030  0.6274
 9184TIP3   OH251746   2.657   3.482   0.952  0.0861  0.0348  0.2718
 9184TIP3    H151747   2.595   3.416   0.919  0.5578 -0.3762  0.1950
 9184TIP3    H251748   2.737   3.466   0.902  0.4266  0.2112  0.7575
 9185TIP3   OH251749   6.172   7.409   7.782 -0.2813  0.3500 -0.4516
 9185TIP3    H151750   6.257   7.452   7.780 -0.7226  1.2162 -1.7090
 9185TIP3    H251751   6.111   7.477   7.812 -0.4554 -0.4751  1.2191
 9186TIP3   OH251752   7.452   0.917   1.624  0.3769 -0.2256  0.2049
 9186TIP3    H151753   7.404   0.953   1.699 -1.9913 -1.3281 -0.6578
 9186TIP3    H251754   7.476   0.828   1.650  1.3497  0.0737  0.3618
 9187TIP3   OH251755   3.098   4.789   7.970 -0.1029  0.6389 -0.0121
 9187TIP3    H151756   3.127   4.814   8.057 -0.0325 -0.2788  0.2377
 9187TIP3    H251757   3.070   4.871   7.929 -0.3394  1.0448  0.9433
 9188TIP3   OH251758   4.257   5.422   8.956  0.0179 -0.0847  0.6035
 9188TIP3    H151759   4.180   5.387   8.912  0.0800 -0.0673  0.4821
 9188TIP3    H251760   4.279   5.501   8.908  0.9902 -0.8696 -0.2889
 9189TIP3   OH251761   2.128   3.827   1.706  0.2719  0.0042  0.1578
 9189TIP3    H151762   2.119   3.744   1.753 -0.3566  1.3642  2.5818
 9189TIP3    H251763   2.222   3.836   1.690  0.5617 -0.2927  1.5980
 9190TIP3   OH251764   2.665   6.972   0.964 -0.4100 -0.2299  0.4574
 9190TIP3    H151765   2.589   7.023   0.937 -1.3964 -1.6517  0.4691
 9190TIP3    H251766   2.633   6.882   0.969  1.4387 -0.9706 -0.2262
 9191TIP3   OH251767   1.162   1.272   1.772  0.6546 -0.8869  0.6386
 9191TIP3    H151768   1.084   1.234   1.731  0.0153  0.0354  0.9521
 9191TIP3    H251769   1.143   1.269   1.866 -0.3747  2.0602  0.6205
 9192TIP3   OH251770   1.225   4.601   1.415 -0.0224  0.3399 -0.4203
 9192TIP3    H151771   1.173   4.627   1.491  1.5163  3.5333 -0.2834
 9192TIP3    H251772   1.304   4.563   1.453 -0.1240  0.0548 -0.4928
 9193TIP3   OH251773   7.412   2.078   8.360  0.0790 -0.0711 -0.3271
 9193TIP3    H151774   7.419   1.984   8.375 -2.8412 -0.5035 -1.0416
 9193TIP3    H251775   7.447   2.091   8.271  1.7963 -0.1933  0.2953
 9194TIP3   OH251776   5.933   6.802   7.904  0.1603 -0.3714 -0.2542
 9194TIP3    H151777   5.907   6.784   7.995 -0.3433  1.5447  0.0184
 9194TIP3    H251778   5.908   6.893   7.890  1.7666 -0.1351 -1.7996
 9195TIP3   OH251779   5.226   2.486   2.751  0.2554 -0.2930  0.4527
 9195TIP3    H151780   5.199   2.466   2.841 -0.0950 -0.4451  0.3139
 9195TIP3    H251781   5.157   2.543   2.718 -1.7291 -3.2963 -1.0261
 9196TIP3   OH251782   7.183   1.050   0.325  0.4547 -0.1289 -0.3040
 9196TIP3    H151783   7.186   1.093   0.411  1.2937 -1.0712  0.1535
 9196TIP3    H251784   7.118   0.981   0.336  1.2878 -0.8961 -0.1039
 9197TIP3   OH251785   0.593   1.980   7.838 -0.3901 -0.2055 -0.5699
 9197TIP3    H151786   0.558   2.064   7.811 -1.0466 -1.1742 -2.9537
 9197TIP3    H251787   0.558   1.917   7.775 -2.5794 -2.8613  2.8734
 9198TIP3   OH251788   6.087   4.486   7.074 -0.3686  0.1529  0.2449
 9198TIP3    H151789   6.004   4.455   7.036 -0.0123 -0.6076  0.0554
 9198TIP3    H251790   6.093   4.440   7.158 -1.4323  2.2568  1.5725
 9199TIP3   OH251791   3.223   7.005   8.042 -0.2200  0.3632  0.2997
 9199TIP3    H151792   3.310   6.966   8.037 -0.4858 -0.0758 -1.8602
 9199TIP3    H251793   3.170   6.953   7.982 -1.8339  1.0035  1.1132
 9200TIP3   OH251794   1.469   7.050   2.262  0.0532 -0.0799 -0.9266
 9200TIP3    H151795   1.459   7.043   2.357  0.3471 -2.7106 -1.0282
 9200TIP3    H251796   1.479   7.144   2.247 -1.1165  0.5464  1.5049
 9201TIP3   OH251797   2.460   3.452   9.501  0.1371  0.5549  0.2430
 9201TIP3    H151798   2.508   3.389   9.554 -2.5964 -1.4762  0.5227
 9201TIP3    H251799   2.403   3.498   9.563  0.3501  1.5735 -0.3002
 9202TIP3   OH251800   3.334   2.496   8.921 -0.0551 -0.3811 -0.2059
 9202TIP3    H151801   3.302   2.419   8.968 -1.0184  0.4035  0.4644
 9202TIP3    H251802   3.415   2.520   8.965 -0.7753  0.1479  0.8757
 9203TIP3   OH251803   4.203   0.822   7.855  0.2656 -0.4968  0.2590
 9203TIP3    H151804   4.111   0.813   7.828  0.2663 -0.5336  0.2687
 9203TIP3    H251805   4.253   0.776   7.788  0.1640 -1.9428  1.1275
 9204TIP3   OH251806   0.604   4.056   8.618  0.2504 -0.8356  0.3519
 9204TIP3    H151807   0.658   4.059   8.539 -1.0951  0.1423 -0.5879
 9204TIP3    H251808   0.608   3.965   8.647  1.0551 -1.1373 -0.6498
 9205TIP3   OH251809   0.465   5.490   7.967  0.1552 -0.5332  0.0639
 9205TIP3    H151810   0.493   5.399   7.958 -0.2035 -0.4876 -2.4393
 9205TIP3    H251811   0.414   5.507   7.887  2.6188  2.6688 -1.0643
 9206TIP3   OH251812   4.246   1.049   9.825  0.6002  0.0229  0.6486
 9206TIP3    H151813   4.214   0.987   9.891 -0.4289  0.0653  0.2111
 9206TIP3    H251814   4.266   1.129   9.875  0.6446 -0.2193  1.0261
 9207TIP3   OH251815   6.987   2.150   9.685 -0.1899  0.1838 -0.4742
 9207TIP3    H151816   7.066   2.147   9.631 -0.2476  0.8689 -0.6064
 9207TIP3    H251817   7.016   2.186   9.769 -1.0259  4.7603 -1.8635
 9208TIP3   OH251818   4.803   1.238   8.051 -0.6710  0.2536  0.1885
 9208TIP3    H151819   4.846   1.183   7.986 -0.5854  1.5739 -0.9325
 9208TIP3    H251820   4.752   1.177   8.104  0.4576 -1.0355 -0.1381
 9209TIP3   OH251821   7.410   5.089   1.569  0.0936  0.0653  0.0615
 9209TIP3    H151822   7.395   5.004   1.527  0.5003  0.2116 -0.3980
 9209TIP3    H251823   7.400   5.072   1.662  1.3142 -0.7523  0.0658
 9210TIP3   OH251824   7.261   7.111   7.707 -0.4564 -0.3913  0.0937
 9210TIP3    H151825   7.320   7.071   7.771  0.4360  0.4157 -0.2069
 9210TIP3    H251826   7.260   7.049   7.634  1.8476  0.6005 -0.8728
 9211TIP3   OH251827   4.771   3.089   8.003 -0.5358 -0.0261 -0.2430
 9211TIP3    H151828   4.716   3.146   8.057  0.6124  2.2814 -1.3560
 9211TIP3    H251829   4.860   3.121   8.019  0.1875 -1.7382 -0.7038
 9212TIP3   OH251830   6.868   3.482   8.720 -0.4870 -0.4227  0.0539
 9212TIP3    H151831   6.837   3.408   8.772 -1.6917  0.2375  0.3019
 9212TIP3    H251832   6.821   3.558   8.754  0.8106  0.5059 -0.1151
 9213TIP3   OH251833   6.012   7.507   1.013 -0.1007 -0.5252  0.4848
 9213TIP3    H151834   6.017   7.449   0.936 -0.2285  0.0442  0.0419
 9213TIP3    H251835   5.920   7.501   1.041 -0.2809 -0.0061  0.0189
 9214TIP3   OH251836   3.093   0.657   1.629 -0.2400 -0.4807 -0.0927
 9214TIP3    H151837   3.141   0.739   1.620 -1.6802  0.2433 -1.6883
 9214TIP3    H251838   3.151   0.591   1.592 -0.9978  0.6351 -3.6356
 9215TIP3   OH251839   3.506   0.433   1.095  0.2460 -0.3219 -0.1170
 9215TIP3    H151840   3.470   0.345   1.087  1.0298 -0.6453 -0.2635
 9215TIP3    H251841   3.590   0.420   1.140  0.3229  0.3630 -0.0528
 9216TIP3   OH251842   3.494   2.296   8.322 -0.3780  0.0516 -0.5893
 9216TIP3    H151843   3.545   2.311   8.402  0.3564 -3.0261 -0.3553
 9216TIP3    H251844   3.455   2.381   8.303  0.9295  1.3654  1.9703
 9217TIP3   OH251845   4.343   5.616   8.500 -0.2200  0.2964  0.5414
 9217TIP3    H151846   4.428   5.635   8.539 -0.4949  0.1428  1.2234
 9217TIP3    H251847   4.333   5.521   8.509 -0.1425  0.2089 -0.2072
 9218TIP3   OH251848   2.326   2.683   1.683 -0.3091 -0.2434 -0.0491
 9218TIP3    H151849   2.289   2.730   1.758  0.8640  0.7376 -0.0477
 9218TIP3    H251850   2.415   2.660   1.711  0.6647  1.3613 -1.5773
 9219TIP3   OH251851   5.831   7.457   8.133  0.7504  0.3815  0.0564
 9219TIP3    H151852   5.780   7.380   8.156  1.4623  0.1150  0.8215
 9219TIP3    H251853   5.772   7.531   8.147  0.1977 -0.0003 -0.2675
 9220TIP3   OH251854   1.010   6.904   1.046 -0.1394  0.0248  0.2019
 9220TIP3    H151855   0.930   6.907   1.099 -1.4300  0.2855 -1.6526
 9220TIP3    H251856   1.042   6.994   1.046 -0.3552  0.1028  0.2053
 9221TIP3   OH251857   7.644   2.804   1.231 -0.0403  0.4939  0.0196
 9221TIP3    H151858   7.665   2.799   1.325  0.9073 -0.6822 -0.2147
 9221TIP3    H251859   7.730   2.806   1.188 -0.4656  1.7780 -0.8111
 9222TIP3   OH251860   2.310   3.479   9.040 -0.7962  0.1802  0.1922
 9222TIP3    H151861   2.289   3.528   9.119 -2.6224  1.2428 -0.8810
 9222TIP3    H251862   2.294   3.542   8.969  1.6518 -0.4361 -1.0152
 9223TIP3   OH251863   0.692   3.950   0.798 -0.2117 -0.2086  0.3331
 9223TIP3    H151864   0.764   3.892   0.774  1.0793  0.3294  2.6208
 9223TIP3    H251865   0.614   3.908   0.762  1.1161 -1.2163 -1.5406
 9224TIP3   OH251866   2.819   4.803   8.300 -0.6251 -0.3458 -0.0415
 9224TIP3    H151867   2.802   4.729   8.357  0.7801  0.8685  2.1131
 9224TIP3    H251868   2.825   4.878   8.359  0.3873  1.0819 -1.8432
 9225TIP3   OH251869   4.196   2.693   8.603  0.3633 -0.4750  0.4422
 9225TIP3    H151870   4.105   2.723   8.607  0.8502  1.2618 -0.3865
 9225TIP3    H251871   4.203   2.651   8.517  0.4877 -0.0190  0.2236
 9226TIP3   OH251872   3.980   0.259   1.336 -0.5813  0.4059  0.6233
 9226TIP3    H151873   4.072   0.271   1.360  0.1422  0.3868 -1.8532
 9226TIP3    H251874   3.972   0.165   1.322 -0.4451  0.6168 -0.9911
 9227TIP3   OH251875   1.824   6.964   8.076 -0.0585 -0.1562 -0.2627
 9227TIP3    H151876   1.779   6.966   8.160  1.6637 -0.3241  0.7125
 9227TIP3    H251877   1.784   7.035   8.025 -0.5827  0.4670  0.9928
 9228TIP3   OH251878   6.851   4.183   8.596  0.3403 -0.3600 -0.5435
 9228TIP3    H151879   6.898   4.267   8.591  2.5833 -1.4014  1.0582
 9228TIP3    H251880   6.851   4.151   8.506  0.9475  0.6104 -0.9146
 9229TIP3   OH251881   1.439   5.808   2.035  0.4232  0.2277 -0.6742
 9229TIP3    H151882   1.411   5.782   2.123  1.7089 -1.7230 -0.7847
 9229TIP3    H251883   1.530   5.779   2.029  0.3958  0.4130 -2.6179
 9230TIP3   OH251884   6.616   5.847   7.405  0.2901  0.1014 -0.0137
 9230TIP3    H151885   6.658   5.761   7.406 -0.6501 -0.3804  1.6110
 9230TIP3    H251886   6.527   5.829   7.375  0.7725  0.9078 -2.0814
 9231TIP3   OH251887   4.616   6.147   2.662  0.3482  0.4979 -0.2351
 9231TIP3    H151888   4.553   6.178   2.727  0.7578  1.2732 -0.1946
 9231TIP3    H251889   4.688   6.111   2.714  0.1498  0.0432 -0.2751
 9232TIP3   OH251890   7.145   2.027   1.651  0.2755  0.0078  0.0227
 9232TIP3    H151891   7.059   2.033   1.610  0.0569  0.3945  0.5233
 9232TIP3    H251892   7.149   2.101   1.711  1.1880  0.3349 -0.4125
 9233TIP3   OH251893   0.324   7.085   8.241 -0.0583  0.4172 -0.1200
 9233TIP3    H151894   0.355   7.060   8.328  0.5739  0.0278 -0.4495
 9233TIP3    H251895   0.401   7.076   8.185 -0.9882 -1.6565 -1.1915
 9234TIP3   OH251896   0.487   1.220   2.767  0.4549  0.0276  0.2060
 9234TIP3    H151897   0.478   1.224   2.862  0.5583 -0.3528  0.2338
 9234TIP3    H251898   0.553   1.286   2.746  1.1412 -0.5575  0.4993
 9235TIP3   OH251899   0.311   0.965   0.095  0.0911  0.0045 -0.4042
 9235TIP3    H151900   0.234   1.007   0.056  0.9640  0.8470 -1.2966
 9235TIP3    H251901   0.374   1.036   0.106  0.4701 -0.5150  1.0869
 9236TIP3   OH251902   0.872   0.289   0.636 -0.2747 -0.2201 -0.0011
 9236TIP3    H151903   0.881   0.203   0.677 -0.9604 -0.6060 -0.6266
 9236TIP3    H251904   0.778   0.295   0.616 -0.6088  1.4616  1.7391
 9237TIP3   OH251905   1.768   6.860   1.213  0.1997  0.1591  0.5448
 9237TIP3    H151906   1.719   6.815   1.143 -0.0180  0.1110  0.7283
 9237TIP3    H251907   1.804   6.789   1.266  0.3634  0.1964  0.4838
 9238TIP3   OH251908   7.292   1.846   8.262 -0.1469  0.0184 -0.3603
 9238TIP3    H151909   7.250   1.873   8.180 -0.3876  1.5513  0.2259
 9238TIP3    H251910   7.235   1.880   8.330  1.9094  2.0733  0.4686
 9239TIP3   OH251911   2.501   7.059   7.681  0.3223 -0.0764  0.4384
 9239TIP3    H151912   2.525   6.972   7.711  0.2622 -0.2676 -0.0584
 9239TIP3    H251913   2.507   7.114   7.759 -0.0100 -0.5943  0.8360
 9240TIP3   OH251914   4.848   5.249   8.159  0.2220 -0.0710  0.2554
 9240TIP3    H151915   4.754   5.244   8.176  0.1790  0.8822  0.3504
 9240TIP3    H251916   4.882   5.164   8.188 -0.6228 -0.4794  0.0815
 9241TIP3   OH251917   5.380   2.887   7.242 -0.0135 -0.0467  0.3165
 9241TIP3    H151918   5.468   2.925   7.255 -0.0022 -0.1024  0.4037
 9241TIP3    H251919   5.331   2.956   7.198  0.0662 -0.0036  0.2944
 9242TIP3   OH251920   2.568   1.106   8.441 -0.7255  0.5002 -0.0483
 9242TIP3    H151921   2.532   1.191   8.465  1.0870  1.2750  0.0675
 9242TIP3    H251922   2.659   1.124   8.419 -0.7400 -1.1413 -1.7081
 9243TIP3   OH251923   6.719   0.064   8.319 -0.1772  0.0340  0.3334
 9243TIP3    H151924   6.727  -0.024   8.356  0.9274 -0.2958 -0.6391
 9243TIP3    H251925   6.787   0.115   8.363  0.7732 -0.2209 -0.7891
 9244TIP3   OH251926   1.904   5.060   9.527 -0.0918 -0.1110 -0.3397
 9244TIP3    H151927   1.837   5.108   9.478 -1.9700 -0.6770  1.5047
 9244TIP3    H251928   1.934   5.122   9.593  1.4638  0.2118 -1.2833
 9245TIP3   OH251929   4.808   0.944   0.460 -0.6236 -0.0088  0.4101
 9245TIP3    H151930   4.892   0.942   0.414 -0.6193 -0.0371  0.4189
 9245TIP3    H251931   4.808   1.027   0.507 -0.0003 -0.6293  1.5317
 9246TIP3   OH251932   4.334   7.590   8.434  0.1608 -0.2855  0.4408
 9246TIP3    H151933   4.374   7.539   8.364  0.5268 -3.1690  2.5644
 9246TIP3    H251934   4.400   7.590   8.504 -1.0712  0.4688  1.6595
 9247TIP3   OH251935   1.786   3.450   8.726 -1.0355  0.3664  0.1048
 9247TIP3    H151936   1.864   3.485   8.769 -1.5141  0.8527  0.5704
 9247TIP3    H251937   1.772   3.508   8.651 -1.7265  1.0721  0.7772
 9248TIP3   OH251938   1.643   1.992   1.349 -0.0157 -0.2497 -0.0777
 9248TIP3    H151939   1.658   2.026   1.261 -1.3916 -1.1438 -0.7038
 9248TIP3    H251940   1.654   2.067   1.407  0.4975  0.4385 -1.0567
 9249TIP3   OH251941   1.396   5.338   8.506  0.1921  0.3344  0.5714
 9249TIP3    H151942   1.319   5.352   8.561 -0.4406  0.5204 -0.3338
 9249TIP3    H251943   1.393   5.411   8.443 -0.4626 -1.1587 -1.2124
 9250TIP3   OH251944   6.471   0.692   8.054 -0.7643  0.1232 -0.4842
 9250TIP3    H151945   6.407   0.679   8.123  0.7281  0.7848  1.0877
 9250TIP3    H251946   6.531   0.758   8.088  0.0378  0.4734 -2.4130
 9251TIP3   OH251947   3.399   1.524   1.030 -0.1626  0.6704  0.0212
 9251TIP3    H151948   3.319   1.571   1.003 -2.0355 -2.0506  0.4377
 9251TIP3    H251949   3.437   1.493   0.948 -0.4942  0.5455 -0.0904
 9252TIP3   OH251950   7.212   4.507   0.059 -0.0225  0.2713  0.6355
 9252TIP3    H151951   7.151   4.486  -0.011  0.1041 -0.1574  0.6474
 9252TIP3    H251952   7.289   4.542   0.014 -0.6232  1.7095  0.6765
 9253TIP3   OH251953   6.289   6.699   9.984 -0.0555 -0.1431 -0.7381
 9253TIP3    H151954   6.349   6.653  10.042  0.2538  0.3525 -0.6532
 9253TIP3    H251955   6.211   6.643   9.979  0.9144 -1.4419 -1.9213
 9254TIP3   OH251956   1.921   6.797   2.682 -0.5986 -0.1028 -0.2744
 9254TIP3    H151957   1.914   6.714   2.634 -2.4443  0.5490 -1.2312
 9254TIP3    H251958   1.850   6.793   2.746 -0.5786  0.6719 -0.2028
 9255TIP3   OH251959   2.317   6.525   0.855 -0.5323 -0.5046 -0.2361
 9255TIP3    H151960   2.227   6.506   0.827  0.1499 -1.9413 -1.6650
 9255TIP3    H251961   2.364   6.541   0.773  1.1734 -2.9192  0.1852
 9256TIP3   OH251962   4.895   0.396   9.120 -0.1508 -0.0455  0.1939
 9256TIP3    H151963   4.981   0.392   9.077 -0.3337 -2.6420 -0.1181
 9256TIP3    H251964   4.837   0.433   9.054  0.4744  0.5419 -0.0429
 9257TIP3   OH251965   0.589   1.960   2.136  0.0047  0.1118  0.4292
 9257TIP3    H151966   0.631   2.016   2.070 -1.1590  0.6136  0.0806
 9257TIP3    H251967   0.497   1.987   2.134 -0.3293 -0.9299  1.1893
 9258TIP3   OH251968   5.090   0.850   9.392  0.7405 -0.1983  0.2802
 9258TIP3    H151969   5.118   0.879   9.478  1.3320 -3.5082  1.3257
 9258TIP3    H251970   5.129   0.763   9.381 -0.1520 -0.3306 -2.8962
 9259TIP3   OH251971   2.416   2.485   0.411  0.1087 -0.0240 -0.2038
 9259TIP3    H151972   2.353   2.557   0.407 -0.6421 -0.6127  0.6823
 9259TIP3    H251973   2.392   2.427   0.339 -0.3614 -0.2410  0.1243
 9260TIP3   OH251974   0.451   3.976   2.528  0.3078 -0.1559  0.2214
 9260TIP3    H151975   0.408   4.061   2.523 -0.6706 -0.6248  0.3333
 9260TIP3    H251976   0.455   3.956   2.622  2.5470  0.7294  0.3669
 9261TIP3   OH251977   7.622   4.119   9.195  0.4861  0.3475 -0.3406
 9261TIP3    H151978   7.627   4.047   9.133  0.4679 -2.1082  2.2666
 9261TIP3    H251979   7.712   4.148   9.207  0.9590 -1.4730  0.8845
 9262TIP3   OH251980   2.200   6.243   9.845  0.0442 -0.2962  0.2111
 9262TIP3    H151981   2.268   6.243   9.913  1.7109  0.2875 -1.3692
 9262TIP3    H251982   2.118   6.258   9.893  1.4236  2.8451  1.8985
 9263TIP3   OH251983   4.605   7.607   9.284  0.8191  0.4785  0.1216
 9263TIP3    H151984   4.511   7.612   9.300  0.7051 -0.0066 -0.3276
 9263TIP3    H251985   4.640   7.565   9.362  0.9652  2.4860  1.1983
 9264TIP3   OH251986   0.542   3.563   8.899 -1.1298 -0.2035  0.6629
 9264TIP3    H151987   0.608   3.501   8.930 -0.8659 -0.8323 -1.0470
 9264TIP3    H251988   0.520   3.615   8.976  2.0444  0.6531  1.1265
 9265TIP3   OH251989   5.100   2.653   8.387  0.8349 -0.2245  0.4987
 9265TIP3    H151990   5.041   2.612   8.450  2.0205 -0.9260  1.1930
 9265TIP3    H251991   5.055   2.645   8.303  0.0540 -0.9649  0.9721
 9266TIP3   OH251992   2.998   0.958   7.695 -1.1744 -0.3985 -0.3300
 9266TIP3    H151993   2.978   0.902   7.770 -3.4504 -0.2276 -0.7247
 9266TIP3    H251994   3.023   0.898   7.625  1.2811 -0.5421  0.5879
 9267TIP3   OH251995   4.113   6.160   1.294 -0.0565  0.0627 -0.1979
 9267TIP3    H151996   4.110   6.144   1.388  1.3527  0.7513 -0.0113
 9267TIP3    H251997   4.200   6.198   1.278 -0.8504  1.4474 -1.5339
 9268TIP3   OH251998   1.488   2.973   0.225  0.4696  0.2049  0.0508
 9268TIP3    H151999   1.397   2.943   0.221  0.8001 -0.8739  0.0785
 9268TIP3    H252000   1.483   3.063   0.258 -0.6284  0.4470 -0.7366
 9269TIP3   OH252001   2.703   3.377   8.664 -0.4965  0.0249 -0.0750
 9269TIP3    H152002   2.642   3.447   8.683 -1.4041 -1.0169  0.9787
 9269TIP3    H252003   2.787   3.408   8.699 -1.1914  0.0130  1.6832
 9270TIP3   OH252004   0.118   6.410   0.708  0.1500  0.0537 -0.1952
 9270TIP3    H152005   0.070   6.475   0.657 -0.0317 -0.0219 -0.1235
 9270TIP3    H252006   0.158   6.460   0.779 -1.5591 -0.1680  0.9824
 9271TIP3   OH252007   3.218   7.069   9.888  0.4094  0.3890  0.3620
 9271TIP3    H152008   3.189   7.081   9.797  1.7988 -2.4481 -0.5922
 9271TIP3    H252009   3.196   7.151   9.931 -3.0478  0.8013 -1.7675
 9272TIP3   OH252010   1.327   4.389   9.871 -0.1879 -0.0368  0.0502
 9272TIP3    H152011   1.332   4.484   9.867 -1.6336  0.2448  2.6639
 9272TIP3    H252012   1.234   4.369   9.856  0.0745 -1.0451 -0.3368
 9273TIP3   OH252013   4.503   0.181   7.837 -0.2360 -0.0869  0.1501
 9273TIP3    H152014   4.506   0.249   7.770 -1.4391  1.8257  1.9307
 9273TIP3    H252015   4.595   0.164   7.859  0.1013  0.3857 -0.8492
 9274TIP3   OH252016   6.467   2.046   9.565 -0.2292 -0.0370  0.1554
 9274TIP3    H152017   6.483   2.017   9.655 -0.3225  0.6025  0.3845
 9274TIP3    H252018   6.552   2.037   9.521 -0.4664 -1.5149 -0.0342
 9275TIP3   OH252019   1.971   2.712   1.072 -0.1596 -0.2938 -0.1286
 9275TIP3    H152020   1.914   2.637   1.055  0.2558 -0.7532  0.4581
 9275TIP3    H252021   1.932   2.784   1.022 -1.9725 -0.2619  1.2352
 9276TIP3   OH252022   2.083   6.622   8.536 -0.0402 -0.3257  0.6411
 9276TIP3    H152023   2.016   6.555   8.551  0.1994 -0.8888 -0.6914
 9276TIP3    H252024   2.085   6.672   8.618  0.5375 -2.5965  2.0789
 9277TIP3   OH252025   5.899   2.588   1.427  0.5281 -0.1782 -0.0235
 9277TIP3    H152026   5.971   2.620   1.372  0.6437 -0.3519  0.0229
 9277TIP3    H252027   5.910   2.635   1.509  0.6409 -0.2659  0.0124
 9278TIP3   OH252028   0.014   5.760   0.375 -0.3788 -0.1395  0.2068
 9278TIP3    H152029   0.089   5.700   0.377 -0.5920 -0.4040  2.0337
 9278TIP3    H252030  -0.019   5.760   0.465 -3.1832 -0.8015 -0.7209
 9279TIP3   OH252031   5.629   3.906   7.791 -0.0975  0.0195  0.7079
 9279TIP3    H152032   5.633   3.818   7.828  1.7397 -0.7760 -1.2079
 9279TIP3    H252033   5.629   3.893   7.697  0.1297  2.0703  0.3735
 9280TIP3   OH252034   0.168   2.578   1.980 -0.0056 -0.0933 -0.9215
 9280TIP3    H152035   0.104   2.625   2.032 -0.7621 -0.7962 -1.1955
 9280TIP3    H252036   0.209   2.517   2.042  0.9493  0.8581 -0.5753
 9281TIP3   OH252037   0.589   3.077   2.383  0.1441 -0.1101  0.4710
 9281TIP3    H152038   0.660   3.014   2.370  0.9197  0.7811  0.3187
 9281TIP3    H252039   0.524   3.055   2.316  0.7130 -0.3266 -0.0104
 9282TIP3   OH252040   2.814   5.699   7.883  0.1207 -0.0753 -0.0183
 9282TIP3    H152041   2.789   5.790   7.902 -1.2769 -0.4099 -0.2150
 9282TIP3    H252042   2.875   5.706   7.810  1.0759  0.7944  0.8246
 9283TIP3   OH252043   0.592   2.572   2.202  0.2571  0.3621  0.2459
 9283TIP3    H152044   0.551   2.489   2.178 -0.5177  0.6521  0.4951
 9283TIP3    H252045   0.663   2.548   2.262  0.4956 -0.1656 -0.2469
 9284TIP3   OH252046   2.818   6.987   8.757  0.1318  0.0884  0.2154
 9284TIP3    H152047   2.842   7.076   8.730 -1.4233  0.0623 -1.4640
 9284TIP3    H252048   2.723   6.991   8.768  0.0501 -1.3583  0.1990
 9285TIP3   OH252049   0.891   1.163   0.065 -0.4238  0.2994  0.0747
 9285TIP3    H152050   0.901   1.107  -0.012 -1.2447 -1.0825  0.9239
 9285TIP3    H252051   0.824   1.226   0.040 -2.1514 -1.3656  0.2507
 9286TIP3   OH252052   1.202   0.978   1.996  0.2215 -0.0455  0.2789
 9286TIP3    H152053   1.151   0.925   1.935 -0.5487 -0.0409  0.9050
 9286TIP3    H252054   1.286   0.932   2.003  0.4200  0.0810 -0.9526
 9287TIP3   OH252055   6.921   3.533   0.096 -0.5299 -0.5601 -0.4515
 9287TIP3    H152056   6.993   3.546   0.158 -0.5616 -1.0991 -0.2927
 9287TIP3    H252057   6.926   3.608   0.037  1.2719 -1.4305 -1.5191
 9288TIP3   OH252058   3.661   1.061   8.542  0.3865  0.2776 -0.6741
 9288TIP3    H152059   3.708   1.136   8.506  0.9658  1.5694  2.4289
 9288TIP3    H252060   3.667   1.072   8.637 -1.3139 -2.6180 -0.0929
 9289TIP3   OH252061   4.979   0.863   7.650 -0.0739  0.3049  0.0396
 9289TIP3    H152062   4.902   0.846   7.596 -0.2049  1.8980 -0.3471
 9289TIP3    H252063   5.020   0.778   7.662 -1.1805 -0.3805 -0.8461
 9290TIP3   OH252064   2.010   1.449   2.035  0.0180  0.5557  0.4154
 9290TIP3    H152065   1.940   1.389   2.061  1.0979 -0.9964 -0.0892
 9290TIP3    H252066   1.968   1.512   1.976 -0.6689 -1.3389 -1.2225
 9291TIP3   OH252067   5.370   4.223   6.934 -0.0470 -0.1606  0.3739
 9291TIP3    H152068   5.313   4.146   6.939 -0.7975  0.1757 -1.7900
 9291TIP3    H252069   5.313   4.296   6.957  0.3670 -0.1074  1.2846
 9292TIP3   OH252070   7.163   0.322   1.116  0.5231  0.1984 -0.2898
 9292TIP3    H152071   7.086   0.265   1.118 -0.0697  1.0127  0.9778
 9292TIP3    H252072   7.129   0.410   1.127  1.6685  0.5201  1.0395
 9293TIP3   OH252073   1.338   1.344   9.131  0.2061  0.1567  0.0114
 9293TIP3    H152074   1.316   1.283   9.201 -0.7616  1.9541  1.3739
 9293TIP3    H252075   1.380   1.290   9.064 -0.4442 -1.9416  1.1937
 9294TIP3   OH252076   1.950   4.412   9.694  0.0107  0.3730  0.1854
 9294TIP3    H152077   1.985   4.330   9.727  1.6161  0.9390  0.0013
 9294TIP3    H252078   2.025   4.456   9.654 -0.8369  1.8468  0.1163
 9295TIP3   OH252079   4.491   1.492   1.733 -0.2607  0.1675 -0.0201
 9295TIP3    H152080   4.420   1.453   1.785  0.2907  1.7004  1.9904
 9295TIP3    H252081   4.447   1.556   1.677 -0.8529 -1.4442 -1.4607
 9296TIP3   OH252082   5.390   6.443   1.544  0.5969  0.6828  0.1773
 9296TIP3    H152083   5.323   6.504   1.514 -0.7098 -1.1763 -0.8761
 9296TIP3    H252084   5.451   6.436   1.470 -0.1083 -0.4165 -0.3243
 9297TIP3   OH252085   2.800   4.486   8.578 -0.3128  0.1065  0.1305
 9297TIP3    H152086   2.736   4.515   8.513 -0.4826  0.5497  0.4879
 9297TIP3    H252087   2.780   4.539   8.655  1.4898  1.3931 -0.2268
 9298TIP3   OH252088   0.047   0.936   1.530 -0.0516  0.1703  0.1608
 9298TIP3    H152089   0.076   1.015   1.576 -1.9967  1.0045  0.0694
 9298TIP3    H252090  -0.035   0.913   1.572 -0.7633 -0.3550 -1.4210
 9299TIP3   OH252091   1.125   0.669   9.867  0.2373 -0.2511  0.0091
 9299TIP3    H152092   1.042   0.711   9.890 -0.8544 -1.7639 -0.9860
 9299TIP3    H252093   1.100   0.582   9.835  2.0187  0.0144 -2.3650
 9300TIP3   OH252094   2.541   5.258   9.636  0.2101  0.1565 -0.4818
 9300TIP3    H152095   2.526   5.283   9.545  1.4271  1.1619 -0.4279
 9300TIP3    H252096   2.617   5.200   9.633  1.7466  2.0394  0.0827
 9301TIP3   OH252097   5.690   6.964   0.000  0.5211  0.5654  0.4978
 9301TIP3    H152098   5.689   6.921   0.085  0.2292  1.3344  0.8973
 9301TIP3    H252099   5.695   6.893  -0.063 -2.5330 -0.2637  1.0310
 9302TIP3   OH252100   5.293   6.519   0.373  0.7001 -0.1669  0.0105
 9302TIP3    H152101   5.383   6.553   0.368  1.1205 -0.6075  2.7701
 9302TIP3    H252102   5.300   6.443   0.430 -1.1176 -1.5831 -1.5586
 9303TIP3   OH252103   0.218   4.730   7.963 -0.0249 -0.4323 -0.5496
 9303TIP3    H152104   0.132   4.754   7.997 -0.1797  0.2722 -1.4197
 9303TIP3    H252105   0.202   4.701   7.874  0.7455  0.6028 -1.0511
 9304TIP3   OH252106   6.656   1.430   2.063 -0.2665 -0.2550  0.3172
 9304TIP3    H152107   6.687   1.372   1.993 -0.7696 -1.3195  0.9494
 9304TIP3    H252108   6.723   1.423   2.131 -1.4189 -1.9382  1.3517
 9305TIP3   OH252109   0.414   4.567   8.639 -0.4662 -0.0385 -0.2141
 9305TIP3    H152110   0.418   4.482   8.595 -1.4136 -0.9347  1.3717
 9305TIP3    H252111   0.370   4.625   8.576 -0.1687 -0.8003 -1.1459
 9306TIP3   OH252112   4.498   0.174   1.725  0.0599  0.5375 -0.3353
 9306TIP3    H152113   4.561   0.154   1.656  0.8411 -0.1891  0.5621
 9306TIP3    H252114   4.544   0.236   1.782  0.0601 -0.1820  0.4572
 9307TIP3   OH252115   1.021   7.606   1.196 -0.1043  0.2507  0.1107
 9307TIP3    H152116   1.054   7.651   1.273 -1.4196 -1.7257  1.9494
 9307TIP3    H252117   0.929   7.589   1.215  0.0750 -2.3476 -0.8240
 9308TIP3   OH252118   0.196   4.765   1.194 -0.4790  0.3862 -0.9140
 9308TIP3    H152119   0.208   4.726   1.107 -1.3823 -0.0347 -0.8594
 9308TIP3    H252120   0.285   4.779   1.226  0.0087 -3.4192 -0.1373
 9309TIP3   OH252121   6.265   6.719   9.179  0.4956  0.2729 -0.0542
 9309TIP3    H152122   6.229   6.744   9.264 -0.6504 -0.8531 -0.1775
 9309TIP3    H252123   6.279   6.802   9.133 -3.5533  0.8547 -0.6077
 9310TIP3   OH252124   0.699   6.309   9.875 -0.5759  0.1684  0.2303
 9310TIP3    H152125   0.650   6.386   9.847  0.0699  0.4563 -0.1396
 9310TIP3    H252126   0.649   6.273   9.948  0.3778  2.3163  2.0192
 9311TIP3   OH252127   1.494   6.812   0.664 -0.1269  0.0925  0.1973
 9311TIP3    H152128   1.419   6.842   0.716 -0.9132 -0.6371 -0.4969
 9311TIP3    H252129   1.534   6.893   0.632  0.2051  0.5461  1.6768
 9312TIP3   OH252130   3.746   0.365   8.963 -0.4211 -0.2484  0.1639
 9312TIP3    H152131   3.656   0.395   8.978 -0.5218 -1.0895  1.3661
 9312TIP3    H252132   3.800   0.443   8.978 -0.8414 -0.1161  1.0787
 9313TIP3   OH252133   2.680   3.156   2.486  0.2939  0.2909  0.2367
 9313TIP3    H152134   2.601   3.127   2.532  0.9158  0.3975  1.4075
 9313TIP3    H252135   2.650   3.226   2.428 -0.6011 -0.2140  0.0697
 9314TIP3   OH252136   6.297   3.230   8.982  0.3770  0.5779  0.1837
 9314TIP3    H152137   6.384   3.205   8.952  0.8334  2.0072  0.2142
 9314TIP3    H252138   6.288   3.186   9.067  0.7891 -0.1380 -0.1413
 9315TIP3   OH252139   0.642   0.962   7.876 -0.2441 -0.2659 -0.6434
 9315TIP3    H152140   0.561   1.006   7.899 -0.7338 -0.8629 -1.1715
 9315TIP3    H252141   0.638   0.878   7.921 -1.1178 -1.3591 -2.6129
 9316TIP3   OH252142   6.134   7.662   8.608  0.5142 -0.2586 -0.5916
 9316TIP3    H152143   6.090   7.653   8.523  0.7132  1.1004 -0.8589
 9316TIP3    H252144   6.200   7.729   8.594  2.1124 -1.6210  0.0633
 9317TIP3   OH252145   5.079   6.883   9.271 -0.2610 -0.7131 -0.0311
 9317TIP3    H152146   5.049   6.878   9.181  0.0496 -0.4255 -0.1527
 9317TIP3    H252147   5.149   6.819   9.277  0.2133 -0.2203 -0.1950
 9318TIP3   OH252148   4.127   1.799   1.413 -0.7406 -0.8088 -0.6256
 9318TIP3    H152149   4.152   1.760   1.329 -1.5206 -0.8664 -0.8418
 9318TIP3    H252150   4.197   1.861   1.433 -0.7587 -0.4824 -1.5376
 9319TIP3   OH252151   0.752   5.511   7.466  1.2752  0.0400  0.2268
 9319TIP3    H152152   0.813   5.446   7.431  0.0553 -0.7991 -0.4479
 9319TIP3    H252153   0.768   5.511   7.560  0.0708 -2.6633  0.5285
 9320TIP3   OH252154   3.117   2.963   8.511  0.2783 -0.1959 -0.3894
 9320TIP3    H152155   3.170   3.042   8.502 -2.4472  1.7973 -0.2682
 9320TIP3    H252156   3.079   2.950   8.425 -1.5654  0.4425  0.2759
 9321TIP3   OH252157   1.028   6.292   9.969  0.2349 -0.5437 -0.6543
 9321TIP3    H152158   0.953   6.242   9.937 -0.0007  0.3522 -1.5399
 9321TIP3    H252159   1.101   6.263   9.914  0.4525 -1.0523 -0.1175
 9322TIP3   OH252160   1.661   2.746   8.156 -0.1717  0.6044 -0.4350
 9322TIP3    H152161   1.738   2.693   8.179  0.0723  1.2554  0.2534
 9322TIP3    H252162   1.670   2.760   8.062  0.8286  1.1040 -0.2741
 9323TIP3   OH252163   5.192   2.553   9.778  0.1991  0.1437  0.3441
 9323TIP3    H152164   5.283   2.547   9.807  0.1919 -1.6269  0.1222
 9323TIP3    H252165   5.142   2.566   9.858  0.6078  0.7718  0.5041
 9324TIP3   OH252166   7.036   4.823   9.226  0.2894  0.5007  0.1858
 9324TIP3    H152167   7.083   4.880   9.287 -1.5211  1.8361  0.3998
 9324TIP3    H252168   6.975   4.881   9.180 -0.7071 -1.0461 -0.5368
 9325TIP3   OH252169   5.353   7.096   7.478 -0.2783 -0.0715  1.0968
 9325TIP3    H152170   5.394   7.014   7.452 -0.1026  0.2832  0.2031
 9325TIP3    H252171   5.412   7.164   7.443 -2.2050  0.4810 -1.3915
 9326TIP3   OH252172   1.783   6.930   1.934  0.0161 -1.1118  0.2640
 9326TIP3    H152173   1.786   7.020   1.902 -0.7123 -1.9224 -2.3194
 9326TIP3    H252174   1.875   6.908   1.951  0.4140 -0.4286 -0.8544
 9327TIP3   OH252175   6.380   1.305   8.204  0.4375 -0.1665  0.1148
 9327TIP3    H152176   6.450   1.240   8.205  1.0479  0.4640  1.4339
 9327TIP3    H252177   6.412   1.375   8.262 -0.9939  0.4375  0.2103
 9328TIP3   OH252178   0.734   1.778   9.922 -0.2877  0.0759  0.2262
 9328TIP3    H152179   0.701   1.847   9.864 -1.5489 -1.8684 -1.5007
 9328TIP3    H252180   0.665   1.767   9.987 -1.0117 -0.8779 -0.6802
 9329TIP3   OH252181   3.362   6.432   9.973 -0.1846  0.3357 -0.6397
 9329TIP3    H152182   3.288   6.488   9.993 -0.5130  0.9140 -3.1369
 9329TIP3    H252183   3.324   6.353   9.934  0.4698  0.7767 -2.2546
 9330TIP3   OH252184   4.675   5.717   8.135  0.6230 -0.2244  0.3183
 9330TIP3    H152185   4.585   5.725   8.166 -0.3222 -1.3534 -1.8987
 9330TIP3    H252186   4.694   5.623   8.141  1.0853 -0.2045 -0.6555
 9331TIP3   OH252187   0.047   3.519   0.252 -0.1031  0.1290  0.7342
 9331TIP3    H152188   0.090   3.508   0.167  1.4608 -0.1877  1.5214
 9331TIP3    H252189  -0.045   3.531   0.231  0.1468 -0.6152 -0.9720
 9332TIP3   OH252190   4.626   0.701   9.349  0.4269  0.0938 -0.5054
 9332TIP3    H152191   4.717   0.701   9.321  0.2387  0.3807 -1.1190
 9332TIP3    H252192   4.577   0.730   9.273 -0.0459  1.3619  0.2401
 9333TIP3   OH252193   7.358   6.013   2.764 -0.5931  0.0753 -0.1290
 9333TIP3    H152194   7.263   6.023   2.768 -0.4964  1.6348 -0.8778
 9333TIP3    H252195   7.391   6.079   2.825  0.0167  0.3156 -0.7037
 9334TIP3   OH252196   6.772   3.068   8.223  0.3921  0.3773 -0.0906
 9334TIP3    H152197   6.734   3.106   8.144 -0.7279  1.2164  0.8263
 9334TIP3    H252198   6.714   2.994   8.244  0.6954  0.1469 -0.0542
 9335TIP3   OH252199   2.755   5.112   7.241  0.3250  0.1091  0.3608
 9335TIP3    H152200   2.829   5.137   7.297  0.5325  0.7232 -0.1764
 9335TIP3    H252201   2.733   5.023   7.269  1.7216 -0.3554  0.0617
 9336TIP3   OH252202   2.821   5.616   1.759 -0.0267  0.4601  0.1255
 9336TIP3    H152203   2.763   5.540   1.758 -1.6686  1.6639 -0.0162
 9336TIP3    H252204   2.773   5.683   1.809  1.7342  1.1400  0.9867
 9337TIP3   OH252205   4.409   7.521   7.766  0.1533  0.0165 -0.2119
 9337TIP3    H152206   4.415   7.555   7.855 -2.1925 -1.7534  0.7312
 9337TIP3    H252207   4.476   7.453   7.761  0.4234  0.2562  0.1439
 9338TIP3   OH252208   2.226   7.283   0.329  0.1769 -0.3383 -0.0852
 9338TIP3    H152209   2.300   7.344   0.332  1.0119 -1.3504  1.5497
 9338TIP3    H252210   2.264   7.201   0.297 -0.9426 -0.0527 -2.3160
 9339TIP3   OH252211   6.702   4.624   7.625 -0.2849  0.1068 -0.3204
 9339TIP3    H152212   6.677   4.545   7.674 -0.5686  1.5365  1.9847
 9339TIP3    H252213   6.795   4.613   7.608 -0.3685 -0.8220 -0.2309
 9340TIP3   OH252214   0.972   5.064   1.706  0.2801  0.4051  0.9401
 9340TIP3    H152215   0.980   5.069   1.801 -0.8494  0.3129  1.0573
 9340TIP3    H252216   1.047   5.010   1.679 -0.1663 -0.7828  1.9294
 9341TIP3   OH252217   6.508   6.556   1.312 -0.1429  0.1715  0.6392
 9341TIP3    H152218   6.493   6.500   1.236 -2.0366 -0.7600  1.6071
 9341TIP3    H252219   6.588   6.604   1.291  0.3922 -1.3456 -1.1515
 9342TIP3   OH252220   1.118   6.269   1.211 -0.0776  0.6536 -0.2380
 9342TIP3    H152221   1.076   6.355   1.215  1.1913  1.2820  0.4271
 9342TIP3    H252222   1.186   6.279   1.145  0.6242  0.4434  0.4338
 9343TIP3   OH252223   0.034   1.013   7.688  0.2905 -0.0836  0.5691
 9343TIP3    H152224   0.042   0.927   7.731 -0.6249 -0.5983 -0.2631
 9343TIP3    H252225   0.055   1.076   7.758  0.4638 -0.9566  1.3290
 9344TIP3   OH252226   1.355   2.920   7.337  0.4337  0.3331  0.2435
 9344TIP3    H152227   1.441   2.884   7.316  0.1309  1.0551 -2.6412
 9344TIP3    H252228   1.373   2.991   7.398  1.6905 -0.4115  0.7862
 9345TIP3   OH252229   1.562   1.578   9.221  0.5073  0.1362 -0.8315
 9345TIP3    H152230   1.619   1.573   9.145 -1.1949 -1.2295 -2.0816
 9345TIP3    H252231   1.476   1.553   9.189 -0.2537 -0.6529  1.5743
 9346TIP3   OH252232   4.445   3.291   0.215 -0.0663  0.1941 -0.0209
 9346TIP3    H152233   4.396   3.372   0.206  0.2708  0.5585  1.2324
 9346TIP3    H252234   4.476   3.291   0.306  0.5558 -0.9834 -0.2062
 9347TIP3   OH252235   7.010   5.597   1.568  0.0933 -0.4255 -0.1846
 9347TIP3    H152236   7.072   5.580   1.639 -0.1860  2.2284  0.8079
 9347TIP3    H252237   7.000   5.512   1.524  2.1156 -1.6079  1.4421
 9348TIP3   OH252238   0.002   7.628   0.138  0.1733  0.1875  0.2220
 9348TIP3    H152239  -0.003   7.649   0.231  1.0126 -1.7528  0.7435
 9348TIP3    H252240  -0.084   7.591   0.117  0.3167 -0.2911  0.4734
 9349TIP3   OH252241   5.701   4.905   7.304  0.6473 -0.0367 -0.2189
 9349TIP3    H152242   5.666   4.943   7.224 -0.9143 -2.0696 -0.5972
 9349TIP3    H252243   5.624   4.872   7.351  1.5046  1.0784  2.1483
 9350TIP3   OH252244   6.160   0.920   2.705 -0.2063 -0.0692 -0.4072
 9350TIP3    H152245   6.184   1.011   2.686 -0.3330 -0.1235 -0.8416
 9350TIP3    H252246   6.205   0.900   2.787  1.1265 -0.1096 -1.1184
 9351TIP3   OH252247   0.303   3.545   8.187  0.3700  0.1282 -0.1767
 9351TIP3    H152248   0.242   3.564   8.115  0.2798  0.9989  0.1151
 9351TIP3    H252249   0.336   3.458   8.168 -1.7374 -0.8137  0.1973
 9352TIP3   OH252250   7.352   4.074   0.324 -0.1669  0.4692  0.2331
 9352TIP3    H152251   7.408   4.140   0.364  0.2349  1.2253 -1.4764
 9352TIP3    H252252   7.286   4.124   0.276 -0.4760 -0.3799 -0.2577
 9353TIP3   OH252253   6.491   0.290   1.325 -0.0868 -0.0323 -0.1559
 9353TIP3    H152254   6.564   0.257   1.376  0.6694  0.8219 -0.6562
 9353TIP3    H252255   6.454   0.212   1.282  0.5774 -0.4585  0.0359
 9354TIP3   OH252256   3.417   2.681   0.708 -0.2710  0.2762  0.1255
 9354TIP3    H152257   3.472   2.619   0.755  0.6738  0.9572 -0.0635
 9354TIP3    H252258   3.457   2.766   0.725 -0.1049  0.5708 -1.6192
 9355TIP3   OH252259   7.150   3.073   1.314  0.3024  0.1112 -0.8842
 9355TIP3    H152260   7.242   3.063   1.290  0.3617 -0.6135 -0.3936
 9355TIP3    H252261   7.151   3.122   1.396  0.3662 -1.4261  0.0658
 9356TIP3   OH252262   3.554   2.917   0.732  0.0104 -0.5689  0.1303
 9356TIP3    H152263   3.588   2.917   0.642 -2.0638  0.4592 -0.7474
 9356TIP3    H252264   3.484   2.982   0.730 -0.2787 -0.7325  2.4525
 9357TIP3   OH252265   1.118   5.784   8.011 -0.0853  0.3216 -0.2918
 9357TIP3    H152266   1.119   5.760   7.918  0.9892  1.0807 -0.5041
 9357TIP3    H252267   1.039   5.743   8.046  0.9656 -2.4549 -0.8901
 9358TIP3   OH252268   1.944   1.775   7.075 -0.5473  0.2311 -0.0640
 9358TIP3    H152269   1.861   1.813   7.104 -0.6799 -0.0904 -0.0113
 9358TIP3    H252270   1.918   1.709   7.010 -0.2941  0.5306 -0.4798
 9359TIP3   OH252271   6.735   7.314   8.690 -0.4819 -0.4137  0.0921
 9359TIP3    H152272   6.821   7.307   8.732  0.6570  1.0284 -1.8367
 9359TIP3    H252273   6.714   7.407   8.692 -1.0616 -0.4888 -1.1459
 9360TIP3   OH252274   1.406   0.059   0.601  0.2873  0.0952  0.1997
 9360TIP3    H152275   1.475   0.062   0.667  0.8339 -0.5995 -0.3272
 9360TIP3    H252276   1.451   0.076   0.518  0.0068 -1.3752 -0.2767
 9361TIP3   OH252277   6.145   2.094   1.005  0.2767  0.6382 -0.2308
 9361TIP3    H152278   6.203   2.149   0.952  0.5413 -0.5458 -1.2222
 9361TIP3    H252279   6.168   2.005   0.980 -0.3870  0.0728  1.0756
 9362TIP3   OH252280   4.718   5.413   0.221  0.0733 -0.0753 -0.3154
 9362TIP3    H152281   4.752   5.331   0.185  0.3908 -0.3132  0.5148
 9362TIP3    H252282   4.623   5.401   0.223 -0.2310  0.8679 -3.3389
 9363TIP3   OH252283   2.540   0.347   9.287 -0.2362 -0.6568  0.6026
 9363TIP3    H152284   2.614   0.290   9.307 -0.7045 -1.5540 -0.1744
 9363TIP3    H252285   2.562   0.385   9.202  0.6188  1.2772  1.6057
 9364TIP3   OH252286   0.670   3.624   0.359 -0.0138  0.3934  0.0147
 9364TIP3    H152287   0.612   3.699   0.369  0.7574  1.1800 -1.0982
 9364TIP3    H252288   0.614   3.554   0.327 -0.5755  0.7877  0.1284
 9365TIP3   OH252289   5.537   6.325   9.352  0.0457 -0.1794 -0.2327
 9365TIP3    H152290   5.534   6.235   9.322 -0.3515 -0.1090 -0.4203
 9365TIP3    H252291   5.515   6.320   9.446  2.1094 -0.4829  0.2832
 9366TIP3   OH252292   4.428   6.110   9.369 -0.7219 -0.0198  0.0848
 9366TIP3    H152293   4.372   6.180   9.336  0.5923 -0.4068 -3.4094
 9366TIP3    H252294   4.398   6.031   9.323  1.2234 -0.6524 -0.1914
 9367TIP3   OH252295   3.560   6.502   0.905  0.2575 -0.3019 -0.0440
 9367TIP3    H152296   3.544   6.556   0.828  3.1898 -0.9481 -1.2581
 9367TIP3    H252297   3.552   6.412   0.873 -0.4244 -0.5846  0.8999
 9368TIP3   OH252298   2.385   1.788   1.635  0.3559  0.2062 -0.2518
 9368TIP3    H152299   2.361   1.787   1.543  1.0962 -1.5675 -0.4601
 9368TIP3    H252300   2.344   1.709   1.672 -0.1396  1.0122  1.0132
 9369TIP3   OH252301   3.526   0.902   9.360 -0.3283 -0.0949 -0.7686
 9369TIP3    H152302   3.509   0.994   9.380 -0.3047  0.1486 -1.8260
 9369TIP3    H252303   3.611   0.884   9.401  0.5982  0.9130 -2.1720
 9370TIP3   OH252304   2.008   7.249   9.277  0.0192 -0.1652  0.4730
 9370TIP3    H152305   2.068   7.201   9.335 -0.4472 -0.0683  1.0447
 9370TIP3    H252306   1.923   7.246   9.322 -0.7148 -1.3772 -0.9091
 9371TIP3   OH252307   7.448   7.478   7.718  0.9357  0.2987 -0.2832
 9371TIP3    H152308   7.534   7.465   7.678  1.2444  0.2412  0.3838
 9371TIP3    H252309   7.459   7.556   7.773  0.8202 -0.2050  0.4777
 9372TIP3   OH252310   4.714   7.016   8.293 -0.2838  0.5969  0.5648
 9372TIP3    H152311   4.728   7.070   8.371  0.1150  2.7422 -0.8798
 9372TIP3    H252312   4.796   6.967   8.283 -0.4360  0.1004  1.6017
 9373TIP3   OH252313   7.207   3.762   8.756 -0.3890 -0.1551 -0.2445
 9373TIP3    H152314   7.268   3.805   8.816 -0.7006 -0.7974  0.5544
 9373TIP3    H252315   7.144   3.830   8.733  1.0069  0.7110 -1.6436
 9374TIP3   OH252316   6.643   4.838   6.761  0.2629 -0.1187 -1.2494
 9374TIP3    H152317   6.585   4.814   6.688 -0.5850 -1.9567 -0.0326
 9374TIP3    H252318   6.584   4.846   6.836  1.2525  0.7443 -0.5401
 9375TIP3   OH252319   0.136   7.674   1.644  0.3727  0.4908  0.2887
 9375TIP3    H152320   0.179   7.752   1.609 -0.5702  0.3668 -1.2505
 9375TIP3    H252321   0.137   7.687   1.739 -1.1542  3.1504  0.0437
 9376TIP3   OH252322   2.923   4.656   0.229  0.0833  0.6232 -0.0398
 9376TIP3    H152323   2.957   4.653   0.140 -1.5806 -0.6249 -0.6860
 9376TIP3    H252324   2.907   4.749   0.246 -1.8148  0.7202 -1.9766
 9377TIP3   OH252325   2.429   2.542   8.172  0.2441 -0.4654  0.1004
 9377TIP3    H152326   2.471   2.473   8.223  2.1427 -1.3388 -2.4608
 9377TIP3    H252327   2.471   2.623   8.202  0.8953 -0.8862  0.3466
 9378TIP3   OH252328   7.261   0.662   2.575 -0.0024  0.3800 -0.0520
 9378TIP3    H152329   7.313   0.600   2.524  0.3615 -0.4516  1.2810
 9378TIP3    H252330   7.296   0.656   2.664 -0.6822  1.7101  0.3331
 9379TIP3   OH252331   5.884   3.150   8.246  0.0634  0.6623 -0.1845
 9379TIP3    H152332   5.933   3.117   8.322  0.9509 -0.3822 -1.1589
 9379TIP3    H252333   5.888   3.245   8.254  1.4967  0.5864  0.2585
 9380TIP3   OH252334   0.687   6.327   0.923 -0.3272  0.0875  0.2681
 9380TIP3    H152335   0.652   6.248   0.881 -0.7167  0.7722 -0.7575
 9380TIP3    H252336   0.782   6.319   0.914 -0.4026  0.2467 -0.8500
 9381TIP3   OH252337   1.941   0.367   8.232  0.8990  0.0057 -0.3711
 9381TIP3    H152338   1.883   0.369   8.308  0.0320 -1.9415 -0.9311
 9381TIP3    H252339   2.028   0.350   8.268  0.1643 -3.2529  0.1070
 9382TIP3   OH252340   0.841   3.959   2.105  0.0657  0.4831 -0.4300
 9382TIP3    H152341   0.778   3.891   2.081 -0.1663  1.6269 -3.4798
 9382TIP3    H252342   0.805   3.998   2.185 -1.4547 -0.8778 -0.3975
 9383TIP3   OH252343   7.656   4.922   2.125 -0.2153  0.3636  0.2437
 9383TIP3    H152344   7.692   4.874   2.051 -1.3585 -1.1140  0.6010
 9383TIP3    H252345   7.712   4.899   2.199  0.1464  0.8127  0.1167
 9384TIP3   OH252346   1.689   1.677   9.607 -0.2373  0.3733 -0.0735
 9384TIP3    H152347   1.684   1.744   9.676  0.2162 -0.1974  0.5257
 9384TIP3    H252348   1.736   1.604   9.648  0.0335  0.0220 -0.9891
 9385TIP3   OH252349   4.961   1.240   9.519  0.4951 -0.7136 -0.4445
 9385TIP3    H152350   4.879   1.290   9.520  1.9373  1.8627  1.1512
 9385TIP3    H252351   5.010   1.277   9.446  1.4968  0.1213  0.6151
 9386TIP3   OH252352   6.998   2.311   9.930 -0.6539 -0.1123 -0.0263
 9386TIP3    H152353   7.066   2.350   9.984 -1.2216  1.3848 -0.3411
 9386TIP3    H252354   6.969   2.234   9.980  0.8641 -0.4548  0.3583
 9387TIP3   OH252355   2.458   2.978   1.828  0.3534  0.7110  0.2916
 9387TIP3    H152356   2.411   2.898   1.851 -0.1884  1.3035  1.3133
 9387TIP3    H252357   2.548   2.963   1.858  0.3767  0.2933  0.0173
 9388TIP3   OH252358   5.313   1.356   0.303  0.1163  0.1315 -0.0598
 9388TIP3    H152359   5.228   1.391   0.277  0.0373  1.9584  2.3047
 9388TIP3    H252360   5.365   1.434   0.323  1.7276 -1.0051  0.3399
 9389TIP3   OH252361   4.356   4.048   9.357 -0.2081  0.6943 -0.2018
 9389TIP3    H152362   4.356   3.966   9.308  1.3389  1.7915 -2.1905
 9389TIP3    H252363   4.438   4.047   9.407  0.1328  1.2852 -0.7339
 9390TIP3   OH252364   1.851   2.894   0.895  0.3818 -0.4363  0.0104
 9390TIP3    H152365   1.804   2.843   0.829  2.4934  0.2980 -2.2469
 9390TIP3    H252366   1.853   2.983   0.858  1.5263  0.0283  1.1309
 9391TIP3   OH252367   2.734   2.823   7.918  0.4102 -0.2959  0.3778
 9391TIP3    H152368   2.690   2.862   7.842  1.2194  0.8844  0.4730
 9391TIP3    H252369   2.810   2.778   7.881  0.2641 -0.5512  0.3928
 9392TIP3   OH252370   5.933   0.018   9.986  0.0530 -0.7117 -0.3625
 9392TIP3    H152371   6.015   0.065  10.003 -0.3357 -0.8774  2.2364
 9392TIP3    H252372   5.953  -0.074  10.002 -0.5220 -0.8210 -0.2471
 9393TIP3   OH252373   6.901   0.452   8.481  0.6326 -0.3972  0.2615
 9393TIP3    H152374   6.962   0.436   8.553  1.5239  1.5761  0.0127
 9393TIP3    H252375   6.818   0.470   8.524  1.2390  1.1419  0.8794
 9394TIP3   OH252376   5.444   6.703   7.138 -0.0946  0.0737 -0.4508
 9394TIP3    H152377   5.524   6.736   7.098  0.5810 -1.3496 -0.3137
 9394TIP3    H252378   5.435   6.614   7.105 -1.0176 -0.1725  0.4013
 9395TIP3   OH252379   3.389   7.286   9.139  0.4283  0.1886 -0.2160
 9395TIP3    H152380   3.322   7.229   9.101  1.6746 -0.2233 -1.8777
 9395TIP3    H252381   3.468   7.233   9.141  1.0244  1.0756  0.5455
 9396TIP3   OH252382   6.180   0.350   9.021 -0.5056  0.0651 -0.0070
 9396TIP3    H152383   6.145   0.377   9.106  0.7076  0.2076  0.4656
 9396TIP3    H252384   6.118   0.385   8.957 -0.1999  1.9898  0.7069
 9397TIP3   OH252385   0.279   2.937   8.123 -0.1623 -0.1665 -0.1299
 9397TIP3    H152386   0.223   2.877   8.074 -0.5119 -0.0230  0.0937
 9397TIP3    H252387   0.219   3.001   8.161  0.1133 -0.2613  0.4651
 9398TIP3   OH252388   1.478   2.972   0.598 -0.0634  0.0751 -0.6414
 9398TIP3    H152389   1.482   2.946   0.690  0.4029 -1.3454 -1.0419
 9398TIP3    H252390   1.384   2.975   0.578 -0.3609  3.4882  0.6661
 9399TIP3   OH252391   0.244   0.755   1.638 -0.4594 -0.0031 -0.4803
 9399TIP3    H152392   0.230   0.820   1.708 -0.2359  0.3278 -0.7367
 9399TIP3    H252393   0.173   0.773   1.576 -0.4404 -0.0540 -0.5154
 9400TIP3   OH252394   1.831   5.923   0.316 -0.3361  0.0777 -0.1692
 9400TIP3    H152395   1.794   5.990   0.259 -1.0188 -0.5906 -0.5245
 9400TIP3    H252396   1.757   5.892   0.369 -0.3017 -1.1887 -0.8099
 9401TIP3   OH252397   5.294   3.505   8.762  0.1496 -0.3734 -0.1083
 9401TIP3    H152398   5.330   3.508   8.673 -0.8160 -1.0485 -0.5424
 9401TIP3    H252399   5.291   3.596   8.790  0.2207 -0.1255 -0.8751
 9402TIP3   OH252400   0.794   2.967   7.665 -0.0854  0.1332 -0.2720
 9402TIP3    H152401   0.698   2.961   7.665 -0.5638  4.0644  1.5393
 9402TIP3    H252402   0.817   2.993   7.576 -1.0770  1.6060 -0.1400
 9403TIP3   OH252403   4.675   5.989   9.061  0.2488 -0.2869 -0.4059
 9403TIP3    H152404   4.596   5.966   9.109 -0.5905  0.7518 -1.2453
 9403TIP3    H252405   4.646   6.005   8.972  1.8641 -2.7935 -1.4868
 9404TIP3   OH252406   0.653   4.896   0.835 -0.5835  0.3169 -0.0381
 9404TIP3    H152407   0.567   4.938   0.833 -0.7740 -0.0953 -0.7447
 9404TIP3    H252408   0.701   4.942   0.904 -1.5762  0.1525  0.7903
 9405TIP3   OH252409   0.315   5.819   1.123 -0.1575 -0.5193  1.3389
 9405TIP3    H152410   0.355   5.859   1.200 -0.2837  1.3428  0.4823
 9405TIP3    H252411   0.388   5.776   1.078  0.7513  1.8265  0.4146
 9406TIP3   OH252412   2.583   5.108   2.109 -0.1073 -0.2564  0.2159
 9406TIP3    H152413   2.600   5.128   2.017 -2.6076  2.1228  0.1486
 9406TIP3    H252414   2.540   5.023   2.108  0.6171 -0.6230 -0.6994
 9407TIP3   OH252415   4.495   3.173   9.548 -0.3848 -0.5951  0.6575
 9407TIP3    H152416   4.487   3.098   9.607 -0.2393 -0.4456  0.8672
 9407TIP3    H252417   4.589   3.177   9.527 -0.7260 -2.0937 -1.4756
 9408TIP3   OH252418   2.458   4.820   0.891  0.2335  0.4568 -0.8265
 9408TIP3    H152419   2.478   4.727   0.880 -1.5942 -0.4125  2.0117
 9408TIP3    H252420   2.362   4.824   0.884 -0.2423  1.2081  3.4836
 9409TIP3   OH252421   1.344   3.223   9.577 -0.1032  0.4671 -0.2986
 9409TIP3    H152422   1.386   3.201   9.494 -0.8355  1.4521 -0.9560
 9409TIP3    H252423   1.272   3.160   9.585 -0.1252  0.4676 -0.4880
 9410TIP3   OH252424   6.123   6.605   7.940  0.2704 -0.2011 -0.4192
 9410TIP3    H152425   6.194   6.661   7.969 -1.3788  1.2965  0.9768
 9410TIP3    H252426   6.065   6.662   7.891 -0.4040 -1.1861 -0.8104
 9411TIP3   OH252427   3.771   4.895   9.438  0.1672 -0.2647  0.1149
 9411TIP3    H152428   3.801   4.859   9.522 -0.9429 -0.2455  0.5384
 9411TIP3    H252429   3.779   4.821   9.377 -0.4784 -0.7450  0.5926
 9412TIP3   OH252430   3.965   0.218   9.287  0.4123 -0.4011  0.2823
 9412TIP3    H152431   3.950   0.312   9.291  1.2999 -0.2603  0.5785
 9412TIP3    H252432   3.992   0.202   9.197 -1.4542 -0.6634 -0.2634
 9413TIP3   OH252433   2.617   3.148   3.261 -0.2757  0.2059  0.2985
 9413TIP3    H152434   2.661   3.078   3.309  0.0883  1.6180  2.1798
 9413TIP3    H252435   2.688   3.196   3.218 -0.3025  0.5066  0.5794
 9414TIP3   OH252436   0.678   2.833   2.291  0.0647 -0.2195  1.1004
 9414TIP3    H152437   0.650   2.751   2.252  0.3622 -0.6990  1.8905
 9414TIP3    H252438   0.757   2.857   2.242 -1.5969  1.1422 -1.1441
 9415TIP3   OH252439   1.071   4.000   7.298  0.0252 -0.1941 -0.4020
 9415TIP3    H152440   1.064   3.959   7.212  1.0434  0.7759 -0.9710
 9415TIP3    H252441   1.140   4.065   7.288 -0.0532  0.1478  1.0734
 9416TIP3   OH252442   3.817   2.277   8.852 -0.5028  0.1726 -0.4039
 9416TIP3    H152443   3.884   2.324   8.901  0.8624 -0.2951 -1.7616
 9416TIP3    H252444   3.848   2.186   8.850 -1.7715 -0.2957 -0.0728
 9417TIP3   OH252445   6.002   2.202   8.689 -0.7010  0.9148  0.3595
 9417TIP3    H152446   5.969   2.183   8.777  2.5910 -1.1938  1.2969
 9417TIP3    H252447   6.050   2.284   8.699 -0.8869  1.0297  0.3294
 9418TIP3   OH252448   0.119   1.799   7.654 -0.4141  0.1019 -0.2448
 9418TIP3    H152449   0.116   1.708   7.684  0.2879  0.1975  0.1307
 9418TIP3    H252450   0.161   1.846   7.726 -1.1085  0.7863 -0.2798
 9419TIP3   OH252451   0.187   1.480   7.578 -0.1547  0.1334 -0.1610
 9419TIP3    H152452   0.106   1.455   7.533 -0.6005 -0.2737  0.8445
 9419TIP3    H252453   0.256   1.455   7.517 -0.7589 -0.0332 -0.7952
 9420TIP3   OH252454   3.187   6.074   9.417 -0.2528 -0.2532 -0.4012
 9420TIP3    H152455   3.132   6.110   9.348 -0.2193 -1.2000 -0.9328
 9420TIP3    H252456   3.212   5.987   9.386 -0.4839 -0.8250  0.9327
 9421TIP3   OH252457   2.672   0.155   2.112 -0.0613  0.0183  0.2357
 9421TIP3    H152458   2.609   0.088   2.139 -0.5238  0.6472  0.7569
 9421TIP3    H252459   2.619   0.223   2.070  0.6269 -0.9426 -2.4313
 9422TIP3   OH252460   3.700   2.133   9.714  0.1080 -0.4833  0.7205
 9422TIP3    H152461   3.683   2.194   9.786  0.2914 -0.5660  0.8357
 9422TIP3    H252462   3.740   2.057   9.757  0.1200 -0.5757  0.5445
 9423TIP3   OH252463   4.285   2.408   9.840  0.4341 -0.3505 -0.2156
 9423TIP3    H152464   4.270   2.399   9.934  0.0401  2.6799  0.1324
 9423TIP3    H252465   4.381   2.404   9.831  0.4906 -0.3721  0.3619
 9424TIP3   OH252466   6.068   1.181   2.988  0.5659  0.6779 -0.3063
 9424TIP3    H152467   6.074   1.098   3.036 -0.2838  2.3791  3.0500
 9424TIP3    H252468   5.974   1.198   2.982  0.7403  1.7604 -0.1974
 9425TIP3   OH252469   1.928   2.100   9.105  0.2366  0.0039  0.2991
 9425TIP3    H152470   1.885   2.025   9.147  0.4754  0.5874  1.6129
 9425TIP3    H252471   1.983   2.138   9.173  0.1651  1.3565 -0.3680
 9426TIP3   OH252472   0.054   6.431   6.859 -0.1803  0.1558  0.4989
 9426TIP3    H152473   0.095   6.420   6.945  0.9951 -0.4700 -0.1206
 9426TIP3    H252474   0.123   6.410   6.796 -0.7904  1.3562 -0.6299
 9427TIP3   OH252475   3.875   2.414   9.798  0.1215 -0.3406  0.4244
 9427TIP3    H152476   3.903   2.323   9.810 -1.6697 -0.7959  1.4484
 9427TIP3    H252477   3.890   2.455   9.883 -0.7169 -0.1636  0.4976
 9428TIP3   OH252478   2.774   0.297   8.614  0.3136  0.0668 -0.7475
 9428TIP3    H152479   2.760   0.387   8.642 -1.3054  0.1901 -1.8181
 9428TIP3    H252480   2.869   0.289   8.605  0.7640  0.7024  2.3355
 9429TIP3   OH252481   4.868   5.453   8.353 -0.2918 -0.4426  0.7094
 9429TIP3    H152482   4.876   5.379   8.293 -1.6036 -0.6763  0.8031
 9429TIP3    H252483   4.822   5.417   8.429  1.8066 -0.2888  2.1349
 9430TIP3   OH252484   3.512   5.223   9.594 -0.4629  0.2048  0.7604
 9430TIP3    H152485   3.592   5.171   9.604 -0.7325 -0.4663 -0.3250
 9430TIP3    H252486   3.505   5.236   9.499 -2.2495 -0.7577  0.7194
 9431TIP3   OH252487   5.722   7.669   7.754  0.3142 -0.3786 -0.2057
 9431TIP3    H152488   5.651   7.732   7.768 -0.5230 -1.1815 -0.7960
 9431TIP3    H252489   5.715   7.609   7.828 -1.2175 -1.9147 -1.5200
 9432TIP3   OH252490   0.334   2.350   9.428 -0.0787 -0.0775 -0.3683
 9432TIP3    H152491   0.297   2.412   9.364  1.2045  0.5519 -0.5344
 9432TIP3    H252492   0.329   2.396   9.511 -2.4798 -1.2004  0.1970
 9433TIP3   OH252493   0.468   1.953   8.806  0.0838  0.1107 -0.2863
 9433TIP3    H152494   0.510   2.000   8.877  0.2381 -1.5971  0.7985
 9433TIP3    H252495   0.375   1.976   8.814 -0.0696 -0.9097  1.1711
 9434TIP3   OH252496   6.379   6.420   0.058 -0.4617 -0.1496 -0.9928
 9434TIP3    H152497   6.463   6.465   0.047 -0.0889  0.5648  3.0001
 9434TIP3    H252498   6.401   6.327   0.056  0.2764  0.0169 -0.9401
 9435TIP3   OH252499   4.679   4.092   7.873 -0.3294 -0.1064 -0.0991
 9435TIP3    H152500   4.588   4.110   7.896 -0.8519 -1.3053 -1.0888
 9435TIP3    H252501   4.692   4.000   7.896  0.5094 -0.0590 -0.3315
 9436TIP3   OH252502   2.226   4.583   1.987  0.0970 -0.4251  0.1414
 9436TIP3    H152503   2.175   4.610   2.063 -1.0697 -0.6824 -0.5280
 9436TIP3    H252504   2.186   4.501   1.958  1.4066 -1.0774  0.0739
 9437TIP3   OH252505   7.399   1.433   9.343  0.2008  0.7071  0.7048
 9437TIP3    H152506   7.389   1.394   9.429  1.2461  0.5851  0.7748
 9437TIP3    H252507   7.459   1.507   9.355  0.7057  0.4243  0.0084
 9438TIP3   OH252508   6.478   0.737   9.499  0.3962 -1.0664  0.1023
 9438TIP3    H152509   6.481   0.642   9.494  1.5602 -1.0426 -0.0818
 9438TIP3    H252510   6.405   0.763   9.443  0.0472 -1.8563  0.1961
 9439TIP3   OH252511   5.852   0.734   8.269 -0.3793  0.2983  0.4001
 9439TIP3    H152512   5.838   0.802   8.336 -1.3598  1.2849 -0.7546
 9439TIP3    H252513   5.770   0.685   8.267 -0.6000  0.6915 -0.5187
 9440TIP3   OH252514   5.012   4.923   9.913 -0.1380  0.2338 -0.3948
 9440TIP3    H152515   4.930   4.873   9.911 -0.0562  0.1180 -1.9175
 9440TIP3    H252516   5.078   4.864   9.875  0.1310  1.1463 -1.4184
 9441TIP3   OH252517   7.302   1.806   2.756 -0.2863 -0.0256 -0.2816
 9441TIP3    H152518   7.260   1.862   2.821  1.2891  1.4206 -0.4352
 9441TIP3    H252519   7.355   1.745   2.807 -1.6145 -1.1007 -0.1324
 9442TIP3   OH252520   5.162   2.126   8.274  0.7708 -0.0501  0.1281
 9442TIP3    H152521   5.160   2.194   8.342  0.0398  0.4037 -0.3278
 9442TIP3    H252522   5.235   2.151   8.217 -0.0623  0.8963 -0.5591
 9443TIP3   OH252523   5.588   1.915   0.661 -0.4435  0.1059 -0.1522
 9443TIP3    H152524   5.666   1.946   0.706 -1.1896  0.7753  0.7235
 9443TIP3    H252525   5.621   1.868   0.584  0.9325 -1.9491  1.5886
 9444TIP3   OH252526   2.118   1.556   9.933 -0.4256 -0.7239 -0.2463
 9444TIP3    H152527   2.080   1.642   9.951  0.4121 -0.4925  0.4520
 9444TIP3    H252528   2.043   1.502   9.908 -0.8259  0.4827 -1.8070
 9445TIP3   OH252529   6.720   4.545   8.244  0.0709 -0.5267  0.2779
 9445TIP3    H152530   6.631   4.580   8.238  0.3433 -0.0038 -2.9147
 9445TIP3    H252531   6.766   4.605   8.303 -1.0476  0.7949 -0.1511
 9446TIP3   OH252532   0.030   4.506   1.582 -0.4276 -0.4282 -0.2832
 9446TIP3    H152533  -0.035   4.573   1.602  1.0397  1.1901 -0.6437
 9446TIP3    H252534  -0.013   4.448   1.519 -2.3246 -0.8735  1.3569
 9447TIP3   OH252535   1.815   3.513   8.432  0.3752 -0.4767  0.5213
 9447TIP3    H152536   1.784   3.576   8.367 -0.6162 -1.1201  0.3419
 9447TIP3    H252537   1.899   3.547   8.460 -0.2881  1.1087  0.6773
 9448TIP3   OH252538   5.425   6.916   2.286 -0.3036  0.2596  0.2993
 9448TIP3    H152539   5.388   6.990   2.334 -0.0991 -0.9289  2.4317
 9448TIP3    H252540   5.351   6.857   2.273 -0.0446 -0.1506  0.6426
 9449TIP3   OH252541   1.291   3.193   1.700 -0.4374 -0.2128 -0.0917
 9449TIP3    H152542   1.265   3.231   1.616  0.9397  2.2027  0.4852
 9449TIP3    H252543   1.342   3.116   1.677  0.3344  0.6800 -1.4974
 9450TIP3   OH252544   5.938   5.332   9.135  0.5284  0.6688  0.0747
 9450TIP3    H152545   5.983   5.380   9.204  0.7302 -0.0685  0.4665
 9450TIP3    H252546   5.880   5.397   9.095 -2.1703  0.4241  3.1245
 9451TIP3   OH252547   6.387   4.259   8.119 -0.2119 -0.2309  0.0794
 9451TIP3    H152548   6.340   4.300   8.047  0.0107 -1.5101 -0.8344
 9451TIP3    H252549   6.361   4.167   8.115 -1.1026 -0.1606  2.3682
 9452TIP3   OH252550   2.081   1.290   9.777 -0.0970  0.8410 -0.4138
 9452TIP3    H152551   2.116   1.242   9.853 -0.2538 -0.9847 -1.4266
 9452TIP3    H252552   1.999   1.245   9.756 -0.5031  1.8823 -1.1482
 9453TIP3   OH252553   4.422   1.992   1.004 -0.4128 -0.5123 -0.0632
 9453TIP3    H152554   4.355   2.060   0.999 -0.9347 -0.9856  0.3541
 9453TIP3    H252555   4.433   1.975   1.097  1.8315  1.0342  0.0162
 9454TIP3   OH252556   1.836   1.564   9.860 -0.4125  0.3836 -0.4398
 9454TIP3    H152557   1.805   1.485   9.815  0.7712 -0.3669 -0.0130
 9454TIP3    H252558   1.784   1.568   9.940  0.2628 -0.6230  0.0764
 9455TIP3   OH252559   0.148   0.381   0.702 -0.6354 -1.0805 -0.6200
 9455TIP3    H152560   0.064   0.406   0.739 -0.4795 -0.8094 -0.4421
 9455TIP3    H252561   0.185   0.320   0.766 -0.3969 -0.6665 -0.3543
 9456TIP3   OH252562   1.257   1.633   9.406 -0.1973  0.3997  0.2404
 9456TIP3    H152563   1.318   1.590   9.466 -0.0681  1.2516  0.7374
 9456TIP3    H252564   1.289   1.723   9.400 -0.3809  0.3985 -0.8888
 9457TIP3   OH252565   6.987   0.962   1.803 -0.4160  0.1311 -0.9709
 9457TIP3    H152566   6.983   0.944   1.709 -1.4705 -0.0610 -0.9050
 9457TIP3    H252567   6.931   1.038   1.815  0.1129  0.4595 -0.5594
 9458TIP3   OH252568   1.731   1.615   0.401  0.1138 -0.7222  0.1700
 9458TIP3    H152569   1.690   1.700   0.387  1.0284 -0.3197 -0.1597
 9458TIP3    H252570   1.811   1.635   0.451  1.3091 -1.1548 -1.4965
 9459TIP3   OH252571   7.545   1.844   0.737  0.1362  0.0750 -0.2808
 9459TIP3    H152572   7.550   1.939   0.725  0.3235  0.3833  1.8712
 9459TIP3    H252573   7.558   1.808   0.649  2.5585  1.9549 -0.8113
 9460TIP3   OH252574   4.545   7.346   0.216  0.4417 -0.2810  0.2006
 9460TIP3    H152575   4.574   7.358   0.307  1.1872  0.0358 -0.0718
 9460TIP3    H252576   4.498   7.262   0.217  0.5829 -0.3592  0.8464
 9461TIP3   OH252577   1.364   7.614   1.418 -0.0019  0.4985  0.3622
 9461TIP3    H152578   1.279   7.650   1.442 -0.3758 -1.5694  2.6183
 9461TIP3    H252579   1.383   7.550   1.487  2.7032 -0.1888 -0.8743
 9462TIP3   OH252580   6.617   6.482   8.191 -0.6118 -0.1981 -0.1115
 9462TIP3    H152581   6.675   6.557   8.204 -1.2654  0.3508 -0.2778
 9462TIP3    H252582   6.668   6.406   8.219 -0.0310  0.3378  0.2977
 9463TIP3   OH252583   5.176   4.915   9.147  0.4095  0.9490 -0.6591
 9463TIP3    H152584   5.235   4.974   9.193 -0.7241  1.5330  0.0820
 9463TIP3    H252585   5.124   4.973   9.090 -1.1626  0.7959  0.5522
 9464TIP3   OH252586   5.293   0.802   8.012  0.3220 -0.3226 -0.1029
 9464TIP3    H152587   5.300   0.868   8.082  0.3641  1.4304 -1.6598
 9464TIP3    H252588   5.313   0.851   7.932  0.7561 -2.3649 -1.3032
 9465TIP3   OH252589   0.450   5.615   8.597  0.2443 -0.1694 -0.1630
 9465TIP3    H152590   0.530   5.637   8.550 -0.4674  2.3192 -0.3548
 9465TIP3    H252591   0.473   5.624   8.689  0.2864  0.1689 -0.2056
 9466TIP3   OH252592   4.176   4.510   8.668 -0.4417 -0.1987  0.1229
 9466TIP3    H152593   4.141   4.596   8.693 -1.0255 -0.1128 -0.9421
 9466TIP3    H252594   4.269   4.515   8.691 -0.2659  1.0527 -0.7243
 9467TIP3   OH252595   2.875   7.396   2.007 -0.2831  0.2580  0.3869
 9467TIP3    H152596   2.782   7.406   2.025 -0.3929  2.3215 -0.9864
 9467TIP3    H252597   2.881   7.388   1.912  0.9637  0.5559  0.4190
 9468TIP3   OH252598   1.645   6.749   7.836 -0.1656  0.4555  0.3652
 9468TIP3    H152599   1.653   6.815   7.767 -1.3527  0.1235 -0.1005
 9468TIP3    H252600   1.558   6.763   7.874  0.4730  0.6608  1.8455
 9469TIP3   OH252601   0.656   5.364   1.412  0.7118  0.5556 -0.1419
 9469TIP3    H152602   0.663   5.459   1.407  0.7288  0.5228 -0.9368
 9469TIP3    H252603   0.674   5.342   1.503  0.0913  1.3666  0.1758
 9470TIP3   OH252604   1.184   6.757   8.297 -0.2493  0.0893 -0.0642
 9470TIP3    H152605   1.263   6.757   8.352 -0.9694  3.7435  1.2622
 9470TIP3    H252606   1.157   6.665   8.293  1.7439 -0.7621  2.8846
 9471TIP3   OH252607   2.768   0.169   3.267  0.1562  0.3409 -0.6489
 9471TIP3    H152608   2.725   0.246   3.229  0.5366  2.1955  2.3377
 9471TIP3    H252609   2.843   0.154   3.211 -0.4433  1.5652 -1.8532
 9472TIP3   OH252610   7.658   0.166   0.443 -0.1548 -0.0901 -0.0612
 9472TIP3    H152611   7.685   0.251   0.478 -1.6178 -0.0632  1.1367
 9472TIP3    H252612   7.564   0.176   0.429 -0.5559 -1.8109  1.0882
 9473TIP3   OH252613   6.092   3.877   9.037 -0.1083 -0.4686 -0.3566
 9473TIP3    H152614   6.037   3.938   8.989  0.2779 -0.1217 -0.3687
 9473TIP3    H252615   6.033   3.808   9.065 -0.6287  0.1015 -0.0204
 9474TIP3   OH252616   1.487   6.308   9.937 -0.2225 -0.1286 -0.4610
 9474TIP3    H152617   1.571   6.353   9.935  0.3337 -1.1683 -1.3021
 9474TIP3    H252618   1.422   6.378   9.928  0.6283  0.4873 -2.3052
 9475TIP3   OH252619   0.316   6.300   3.106 -0.2353  0.5926 -0.7205
 9475TIP3    H152620   0.306   6.238   3.178  0.9409 -0.5804 -1.5186
 9475TIP3    H252621   0.409   6.321   3.105  0.0675 -0.5942 -2.7936
 9476TIP3   OH252622   6.549   7.183   3.141 -0.2574 -0.2883  0.1473
 9476TIP3    H152623   6.487   7.252   3.163  0.5060  1.1524 -2.0016
 9476TIP3    H252624   6.497   7.117   3.095 -0.3512  0.5611 -0.9845
 9477TIP3   OH252625   2.035   2.926   0.171  0.1083 -0.0318 -0.0639
 9477TIP3    H152626   2.122   2.938   0.209  0.5061 -0.0585 -0.9240
 9477TIP3    H252627   2.023   3.003   0.114 -0.1159 -0.3919 -0.5159
 9478TIP3   OH252628   5.730   0.815   8.648  0.5509 -0.3509 -0.1684
 9478TIP3    H152629   5.668   0.805   8.577 -0.0653 -0.3259  0.3603
 9478TIP3    H252630   5.685   0.782   8.725  0.6268  1.0243  0.5081
 9479TIP3   OH252631   3.172   5.908   2.780 -0.2355 -0.4474  0.3355
 9479TIP3    H152632   3.154   5.890   2.873  0.8563 -1.2733  0.4091
 9479TIP3    H252633   3.251   5.858   2.761  0.2581  0.6995 -0.7330
 9480TIP3   OH252634   0.214   1.610   7.260  0.1650 -0.0336  0.0106
 9480TIP3    H152635   0.192   1.618   7.167  0.9094 -0.5384 -0.2175
 9480TIP3    H252636   0.160   1.537   7.291 -1.9177  1.6471  0.5913
 9481TIP3   OH252637   2.763   7.505   1.492  0.0381  0.1456  0.3748
 9481TIP3    H152638   2.691   7.540   1.440 -0.4322 -0.9654  0.2552
 9481TIP3    H252639   2.763   7.411   1.473  0.6334 -0.0898  1.4552
 9482TIP3   OH252640   3.676   7.574   8.460 -0.6299  0.3368  0.3341
 9482TIP3    H152641   3.726   7.524   8.395 -1.6252  1.4343 -1.3698
 9482TIP3    H252642   3.588   7.536   8.456 -0.6649  0.3188  1.1819
 9483TIP3   OH252643   6.144   5.153   8.990  1.1049 -0.3121  0.3765
 9483TIP3    H152644   6.124   5.085   8.925  1.3984 -0.6083  0.5906
 9483TIP3    H252645   6.060   5.196   9.005  1.5668  2.0343 -2.6983
 9484TIP3   OH252646   2.781   0.956   7.147 -0.3752  0.2023 -0.2686
 9484TIP3    H152647   2.832   0.990   7.074 -1.4307  0.4323 -0.9220
 9484TIP3    H252648   2.838   0.892   7.189 -0.4779 -1.5312 -2.5698
 9485TIP3   OH252649   1.481   0.928   0.019 -0.2668 -0.0308  0.0617
 9485TIP3    H152650   1.411   0.931   0.084 -0.2462  1.6367  0.0359
 9485TIP3    H252651   1.556   0.891   0.067 -0.5548  0.1696  0.6820
 9486TIP3   OH252652   2.697   0.387   7.732 -1.0393 -0.2260  0.1768
 9486TIP3    H152653   2.669   0.401   7.823 -0.5608 -1.3900  0.5177
 9486TIP3    H252654   2.644   0.314   7.702 -0.9400 -0.0757 -0.3763
 9487TIP3   OH252655   1.654   0.695   0.014  0.0155  0.5689  0.1811
 9487TIP3    H152656   1.590   0.625   0.026  0.5288  0.0457 -0.1491
 9487TIP3    H252657   1.711   0.689   0.091 -0.9255  1.6949  1.0208
 9488TIP3   OH252658   2.677   5.406   1.114  0.0425  0.1146  0.4237
 9488TIP3    H152659   2.760   5.441   1.145  1.6350 -3.1406  0.2719
 9488TIP3    H252660   2.610   5.456   1.161  1.9969  3.0016  0.3745
 9489TIP3   OH252661   4.728   0.268   8.353 -0.2786  0.1779 -0.8109
 9489TIP3    H152662   4.822   0.286   8.360 -0.3616 -0.0351  1.7662
 9489TIP3    H252663   4.686   0.349   8.381 -0.7984 -0.3991  0.1458
 9490TIP3   OH252664   6.881   3.750   7.510  0.6328  0.3020 -0.0400
 9490TIP3    H152665   6.861   3.667   7.552 -2.4407  0.2285 -1.4407
 9490TIP3    H252666   6.930   3.726   7.432  2.4131  0.1132  1.0766
 9491TIP3   OH252667   3.165   3.957   8.822 -0.6129 -0.5390  0.2406
 9491TIP3    H152668   3.074   3.968   8.848 -0.3906 -0.6037  1.0794
 9491TIP3    H252669   3.161   3.922   8.733 -1.4058 -0.5857  0.2917
 9492TIP3   OH252670   3.411   0.658   9.243  0.1155 -0.4142 -0.0316
 9492TIP3    H152671   3.465   0.599   9.295 -0.0772 -0.6374 -0.0826
 9492TIP3    H252672   3.418   0.743   9.287  2.3189  0.1199 -1.2842
 9493TIP3   OH252673   0.124   7.182   8.087  0.3110 -0.0461 -0.1684
 9493TIP3    H152674   0.163   7.188   8.000  0.7591 -0.5326 -0.0069
 9493TIP3    H252675   0.194   7.147   8.142 -0.4516 -1.2518  0.0569
 9494TIP3   OH252676   7.490   3.586   2.527  0.0314  0.3271 -0.1552
 9494TIP3    H152677   7.396   3.578   2.541  0.1247  0.4069  0.5463
 9494TIP3    H252678   7.513   3.669   2.568  0.6771 -0.4630  1.1461
 9495TIP3   OH252679   2.413   6.754   8.264 -0.2623  0.3578  0.3485
 9495TIP3    H152680   2.319   6.746   8.279 -0.3504 -1.4984 -0.8751
 9495TIP3    H252681   2.453   6.710   8.339 -0.4630 -1.0769 -0.3592
 9496TIP3   OH252682   0.468   3.987   7.919  0.6377 -0.5608 -0.1707
 9496TIP3    H152683   0.439   4.078   7.914  0.1387 -0.7033  0.0477
 9496TIP3    H252684   0.537   3.980   7.853  0.1580 -0.2144 -0.7197
 9497TIP3   OH252685   5.591   6.349   0.636 -0.1370 -0.5280 -0.4749
 9497TIP3    H152686   5.664   6.402   0.603 -1.0292  0.9135 -0.2623
 9497TIP3    H252687   5.632   6.286   0.695  1.0408 -0.4679 -1.1914
 9498TIP3   OH252688   1.976   6.443   1.566  0.1973  0.3963  0.2239
 9498TIP3    H152689   1.925   6.398   1.499  0.4231  0.2171  0.1735
 9498TIP3    H252690   1.912   6.499   1.610  0.1071  0.7414 -0.3375
 9499TIP3   OH252691   3.798   3.418   1.393 -0.0755  0.7663 -0.4329
 9499TIP3    H152692   3.889   3.442   1.405  0.0681  1.1103 -1.9982
 9499TIP3    H252693   3.749   3.498   1.413  0.0602  0.9390 -0.7824
 9500TIP3   OH252694   1.300   6.977   9.502  0.7971  0.3278 -0.4421
 9500TIP3    H152695   1.216   6.970   9.547 -0.3336  0.0829 -2.4670
 9500TIP3    H252696   1.361   6.931   9.559 -0.4351  0.4261  1.0401
 9501TIP3   OH252697   0.555   4.757   8.823  0.5644  0.3345 -0.8730
 9501TIP3    H152698   0.541   4.681   8.767  1.2069 -0.6184  0.1994
 9501TIP3    H252699   0.613   4.814   8.772  0.3552 -0.0518 -1.5555
 9502TIP3   OH252700   4.438   3.158   0.478 -0.1440 -0.5874 -0.2762
 9502TIP3    H152701   4.349   3.181   0.505  0.3655 -1.4615  2.4741
 9502TIP3    H252702   4.432   3.067   0.449 -0.0156 -0.9271  0.7425
 9503TIP3   OH252703   5.943   4.887   7.429  0.3460 -0.4029  0.3753
 9503TIP3    H152704   5.852   4.906   7.403  0.8450  0.6009 -0.7232
 9503TIP3    H252705   5.960   4.950   7.499  1.0046  1.2297 -1.1872
 9504TIP3   OH252706   2.684   0.319   7.089 -0.0629 -0.2649  0.2829
 9504TIP3    H152707   2.665   0.246   7.147  0.5520 -1.1542 -0.6068
 9504TIP3    H252708   2.623   0.309   7.016  0.7812 -0.5443 -0.3892
 9505TIP3   OH252709   1.330   6.818   7.340 -0.4117  0.4107 -0.1450
 9505TIP3    H152710   1.313   6.730   7.306  3.6399 -1.2136  1.3745
 9505TIP3    H252711   1.291   6.817   7.428 -0.9587  0.3951 -0.3852
 9506TIP3   OH252712   1.158   4.644   0.721  0.3796 -0.0496  0.1476
 9506TIP3    H152713   1.121   4.707   0.660  0.6735  0.2949  0.3185
 9506TIP3    H252714   1.209   4.697   0.782  1.6061 -0.5592 -0.4081
 9507TIP3   OH252715   1.898   6.068   8.076 -0.5701  0.8104 -0.2934
 9507TIP3    H152716   1.856   6.131   8.135 -0.3683 -0.0961  0.8714
 9507TIP3    H252717   1.931   6.120   8.003 -2.7812  1.7023 -0.7279
 9508TIP3   OH252718   0.216   2.815   1.093  0.3129  0.0707  0.5663
 9508TIP3    H152719   0.252   2.726   1.088  0.3961  0.0670  1.2443
 9508TIP3    H252720   0.289   2.872   1.070 -0.0484 -0.0730 -1.1378
 9509TIP3   OH252721   1.159   7.622   8.780  0.2449  0.1007 -0.3499
 9509TIP3    H152722   1.118   7.705   8.754  0.1799  0.2504  0.2067
 9509TIP3    H252723   1.117   7.556   8.725 -1.2502  0.1626  0.6494
 9510TIP3   OH252724   4.894   7.624   6.903 -0.2357 -0.0470  0.3631
 9510TIP3    H152725   4.836   7.563   6.949 -0.2046 -0.4537 -0.1281
 9510TIP3    H252726   4.952   7.568   6.852  0.3716  0.3672  0.5854
 9511TIP3   OH252727   1.691   3.801   2.372 -0.0357 -0.0472 -0.7333
 9511TIP3    H152728   1.785   3.814   2.379 -0.3223  1.5507  1.3165
 9511TIP3    H252729   1.666   3.758   2.454 -1.1064 -0.3667 -1.2065
 9512TIP3   OH252730   0.817   3.868   0.196  0.2056 -0.2497  0.0350
 9512TIP3    H152731   0.781   3.812   0.127 -1.8076  0.0969  0.7363
 9512TIP3    H252732   0.912   3.857   0.188 -0.0330 -1.7094 -1.5238
 9513TIP3   OH252733   7.227   0.530   7.789 -0.2945 -0.0138 -0.3202
 9513TIP3    H152734   7.202   0.455   7.734  0.6495 -0.8883  0.4079
 9513TIP3    H252735   7.317   0.551   7.761  0.1506 -0.3887  0.7864
 9514TIP3   OH252736   4.485   1.081   7.818  0.6281  0.1460 -0.3560
 9514TIP3    H152737   4.524   1.168   7.818 -0.3061  0.6026 -1.8689
 9514TIP3    H252738   4.532   1.034   7.749 -0.8408  0.4421 -1.6154
 9515TIP3   OH252739   2.526   6.014   2.310 -0.1466 -0.3594  0.3960
 9515TIP3    H152740   2.544   5.920   2.303  1.1679 -0.0036 -2.6410
 9515TIP3    H252741   2.610   6.053   2.332 -0.9029  0.1177  2.7523
 9516TIP3   OH252742   1.513   2.040   9.274  0.1939  0.8855 -0.0654
 9516TIP3    H152743   1.567   2.081   9.342 -1.2216  2.4422  0.1839
 9516TIP3    H252744   1.492   2.111   9.214 -1.7507  0.3788 -0.0293
 9517TIP3   OH252745   5.374   4.713   8.573  0.3075 -0.2152 -0.4529
 9517TIP3    H152746   5.313   4.786   8.566  0.0377 -0.5368 -1.6424
 9517TIP3    H252747   5.403   4.715   8.665  1.1507  2.0529 -0.7087
 9518TIP3   OH252748   4.632   1.331   7.831 -0.6268 -0.2099  0.1225
 9518TIP3    H152749   4.687   1.390   7.780 -0.1850 -1.9542 -1.5127
 9518TIP3    H252750   4.691   1.296   7.899 -0.0180 -1.1202 -0.8499
 9519TIP3   OH252751   1.821   5.125   7.862 -0.0280 -0.8258 -0.0573
 9519TIP3    H152752   1.766   5.191   7.820 -1.1756 -0.5378  1.7771
 9519TIP3    H252753   1.773   5.043   7.849 -0.5459 -0.6869  0.9277
 9520TIP3   OH252754   1.945   4.102   3.273  0.9027  0.2015 -0.5694
 9520TIP3    H152755   1.872   4.051   3.308 -0.2503 -0.0686 -3.1570
 9520TIP3    H252756   2.016   4.090   3.336 -1.4949  1.2380  2.5589
 9521TIP3   OH252757   4.596   3.863   7.362  0.3056 -0.4937  0.2898
 9521TIP3    H152758   4.654   3.890   7.433  1.7586  1.5023 -1.5540
 9521TIP3    H252759   4.510   3.898   7.386  0.8353  0.3982  0.9441
 9522TIP3   OH252760   4.909   3.756   6.980 -0.0561  1.1694  0.1380
 9522TIP3    H152761   4.855   3.781   6.905 -1.0080 -0.8631  0.0871
 9522TIP3    H252762   4.860   3.787   7.056  0.2660  2.0565  0.0047
 9523TIP3   OH252763   7.620   6.203   6.721 -0.0997  0.4376  0.1086
 9523TIP3    H152764   7.552   6.221   6.785  1.8321  0.7359  2.2264
 9523TIP3    H252765   7.684   6.273   6.733  0.9848 -0.2808 -1.1810
 9524TIP3   OH252766   3.717   0.722   8.688  0.0176  0.3125  0.0016
 9524TIP3    H152767   3.806   0.754   8.672 -0.0046  0.6900  0.6321
 9524TIP3    H252768   3.660   0.786   8.645  0.0315  0.3457  0.0329
 9525TIP3   OH252769   0.567   3.306   7.808 -0.3949 -0.3893  0.2890
 9525TIP3    H152770   0.596   3.351   7.888  0.5466  0.3028 -0.4196
 9525TIP3    H252771   0.540   3.219   7.838 -1.0992  0.2136  1.5169
 9526TIP3   OH252772   4.261   4.722   0.241  0.3690  0.4929  0.2290
 9526TIP3    H152773   4.332   4.768   0.195  0.5667  0.6841  0.7216
 9526TIP3    H252774   4.305   4.656   0.294  0.1066 -0.0310 -0.2015
 9527TIP3   OH252775   3.814   7.166   0.011  0.1107 -0.0986  0.2131
 9527TIP3    H152776   3.855   7.157  -0.075  2.2022  0.8847  1.0351
 9527TIP3    H252777   3.783   7.078   0.033  0.3481 -0.5398 -1.1479
 9528TIP3   OH252778   0.929   4.801   9.178 -0.2530 -0.2170  0.4866
 9528TIP3    H152779   0.943   4.811   9.084  0.1961 -0.5738  0.5095
 9528TIP3    H252780   1.011   4.764   9.210 -0.0100  0.9047  1.1916
 9529TIP3   OH252781   6.381   2.699   0.373 -0.3936  0.0255 -0.0022
 9529TIP3    H152782   6.296   2.700   0.418 -0.0210 -0.0881  0.7164
 9529TIP3    H252783   6.429   2.627   0.414 -0.3155 -0.5820 -1.1118
 9530TIP3   OH252784   2.758   2.422   2.634  0.0001  0.3104  0.1427
 9530TIP3    H152785   2.817   2.441   2.561 -0.0188  0.5974  0.2011
 9530TIP3    H252786   2.782   2.334   2.663 -0.4769 -0.1081 -0.6879
 9531TIP3   OH252787   4.878   1.796   8.284  0.2646 -0.2780 -0.3105
 9531TIP3    H152788   4.950   1.852   8.255  0.0221  1.6676  2.4541
 9531TIP3    H252789   4.917   1.742   8.354 -0.4804 -0.6249 -0.1550
 9532TIP3   OH252790   3.001   3.745   3.010 -0.1802 -0.1704 -0.3129
 9532TIP3    H152791   2.932   3.736   2.945 -0.3889 -0.9854  0.0124
 9532TIP3    H252792   2.961   3.796   3.081  0.2184  1.2008 -1.0471
 9533TIP3   OH252793   4.406   1.305   0.894 -0.7849  0.2145  0.1516
 9533TIP3    H152794   4.444   1.390   0.917 -0.3866  0.3279 -0.8553
 9533TIP3    H252795   4.461   1.241   0.940 -0.8871  0.4872  0.6548
 9534TIP3   OH252796   3.363   7.573   1.330 -0.2820 -0.1322  0.3219
 9534TIP3    H152797   3.341   7.505   1.266 -0.9599  1.6373 -1.4019
 9534TIP3    H252798   3.321   7.543   1.411 -0.7791 -1.6191 -0.4387
 9535TIP3   OH252799   4.222   2.221   8.357  0.2389  0.1501  0.7748
 9535TIP3    H152800   4.207   2.187   8.445 -2.2621 -1.9804 -0.3460
 9535TIP3    H252801   4.275   2.154   8.314  0.0906  0.3981  0.1892
 9536TIP3   OH252802   6.157   6.560   8.309 -0.0198  0.0141  0.4630
 9536TIP3    H152803   6.181   6.615   8.384  0.0333  1.0738 -0.3018
 9536TIP3    H252804   6.102   6.617   8.255 -1.1086 -1.1462  0.3117
 9537TIP3   OH252805   1.020   0.842   0.088  0.4495 -0.1734  0.6269
 9537TIP3    H152806   1.076   0.891   0.148 -0.7152  0.0531  1.5582
 9537TIP3    H252807   0.991   0.766   0.139 -0.8447  0.2066  0.4971
 9538TIP3   OH252808   3.450   5.494   8.321 -0.5215 -0.8796 -0.3493
 9538TIP3    H152809   3.401   5.434   8.266  0.6968 -2.0160 -0.2381
 9538TIP3    H252810   3.396   5.573   8.324 -1.3884 -1.3811 -1.8118
 9539TIP3   OH252811   1.108   2.062   9.508 -0.4148 -0.5732  0.3839
 9539TIP3    H152812   1.151   2.121   9.570 -0.8640 -0.7224  0.8473
 9539TIP3    H252813   1.056   2.003   9.564 -1.5639 -0.1262 -0.1828
 9540TIP3   OH252814   1.111   6.631   9.715  0.2421  0.4099 -0.4956
 9540TIP3    H152815   1.027   6.633   9.762 -0.2144 -0.4746 -1.2336
 9540TIP3    H252816   1.109   6.709   9.660  0.4171  1.0041  0.3116
 9541TIP3   OH252817   5.813   6.368   0.935 -0.0407  0.0405  0.8727
 9541TIP3    H152818   5.835   6.444   0.989  0.5242  0.3048  0.2850
 9541TIP3    H252819   5.881   6.366   0.868 -0.1359 -0.8998  0.7933
 9542TIP3   OH252820   1.331   5.363   3.211  0.3195 -0.2190  0.0431
 9542TIP3    H152821   1.346   5.450   3.174  0.8571  0.0904  0.9632
 9542TIP3    H252822   1.416   5.336   3.246  0.2859 -1.3362 -0.6690
 9543TIP3   OH252823   6.671   7.520   0.559 -0.2055 -0.3632  0.2022
 9543TIP3    H152824   6.659   7.615   0.568 -0.8893 -0.3306 -0.9344
 9543TIP3    H252825   6.653   7.502   0.467 -1.4917 -1.7915  0.6874
 9544TIP3   OH252826   3.628   7.654   3.106  0.2857  0.4056 -0.3180
 9544TIP3    H152827   3.565   7.615   3.167  1.3069  0.9105  1.1204
 9544TIP3    H252828   3.600   7.745   3.098  0.1175  0.3250 -0.6654
 9545TIP3   OH252829   1.610   6.139   2.072 -0.6964 -0.4091  0.0704
 9545TIP3    H152830   1.676   6.097   2.017 -1.9828 -1.8655 -0.4262
 9545TIP3    H252831   1.638   6.230   2.077  0.2819 -0.5601 -1.7446
 9546TIP3   OH252832   5.617   1.250   1.930 -0.5306 -0.2012  0.4079
 9546TIP3    H152833   5.547   1.198   1.890 -0.0240 -0.2566 -0.4330
 9546TIP3    H252834   5.671   1.185   1.977  0.6120 -0.6191 -1.3796
 9547TIP3   OH252835   0.281   1.000   2.380  0.4434  0.3141  0.4154
 9547TIP3    H152836   0.295   1.092   2.403  1.3836 -0.0352  1.3127
 9547TIP3    H252837   0.188   0.996   2.354 -0.2844  1.0697  2.6549
 9548TIP3   OH252838   5.849   0.207   0.437  0.0450  0.6276  0.5515
 9548TIP3    H152839   5.764   0.210   0.481 -0.1735 -2.0912  0.4830
 9548TIP3    H252840   5.827   0.201   0.344  0.2708 -0.1557  0.5379
 9549TIP3   OH252841   2.606   5.756   8.497  0.1990 -0.0706 -0.0604
 9549TIP3    H152842   2.686   5.774   8.546  0.8553 -0.9523 -0.7682
 9549TIP3    H252843   2.630   5.684   8.438 -0.3701  1.3990 -2.1689
 9550TIP3   OH252844   3.782   1.019   7.987 -0.1034 -0.0823 -0.1781
 9550TIP3    H152845   3.700   1.055   8.020  1.9986  2.4538  2.9048
 9550TIP3    H252846   3.814   0.963   8.059  1.7426  0.5497 -0.4577
 9551TIP3   OH252847   5.728   0.565   0.443  0.1736 -0.0991  0.4233
 9551TIP3    H152848   5.719   0.635   0.507  1.6798  2.6153 -2.0646
 9551TIP3    H252849   5.648   0.513   0.452 -0.3819  1.0810  3.3227
 9552TIP3   OH252850   4.542   5.159   9.325  0.1040  0.2895 -0.2775
 9552TIP3    H152851   4.626   5.129   9.360 -0.0607  2.8988  2.7047
 9552TIP3    H252852   4.566   5.213   9.249  0.8989 -0.6123 -0.7091
 9553TIP3   OH252853   5.814   5.977   7.773 -0.3115  0.3260  0.1053
 9553TIP3    H152854   5.867   5.949   7.848 -1.7607  0.2679  1.1280
 9553TIP3    H252855   5.775   6.060   7.800 -2.0859 -0.4465  0.0496
 9554TIP3   OH252856   2.178   4.399   7.669  0.0464  0.1702  0.2227
 9554TIP3    H152857   2.259   4.354   7.691 -0.3512 -0.1514  1.0632
 9554TIP3    H252858   2.199   4.449   7.591  1.2918  0.7239  0.8864
 9555TIP3   OH252859   3.126   5.738   9.598 -0.6427  0.1181  0.1900
 9555TIP3    H152860   3.216   5.763   9.579 -0.6203  0.4932  0.7706
 9555TIP3    H252861   3.088   5.717   9.512 -0.5640  1.8344 -0.2858
 9556TIP3   OH252862   1.955   0.278   7.511  0.0500  0.0539 -0.4921
 9556TIP3    H152863   2.020   0.300   7.577  1.6200 -0.1823 -1.8817
 9556TIP3    H252864   1.982   0.192   7.478 -1.3395 -0.3317 -0.6917
 9557TIP3   OH252865   1.893   1.877   9.716  0.2713 -0.5208 -0.5340
 9557TIP3    H152866   1.803   1.866   9.747  0.6226  0.2414  0.8500
 9557TIP3    H252867   1.926   1.787   9.708 -1.0631 -0.9015 -2.6301
 9558TIP3   OH252868   5.017   7.612   7.189 -0.1259  0.4185  0.1714
 9558TIP3    H152869   5.013   7.624   7.095  0.1317 -1.2768 -0.1029
 9558TIP3    H252870   5.043   7.520   7.200 -2.5646 -0.1859  1.8648
 9559TIP3   OH252871   1.671   4.372   2.061 -0.8552 -0.5060  0.0110
 9559TIP3    H152872   1.616   4.365   2.139 -1.1756  1.1907 -0.0446
 9559TIP3    H252873   1.697   4.281   2.043 -1.4248 -1.0271  1.6073
 9560TIP3   OH252874   0.236   4.603   8.417  0.1239  0.4148 -0.3404
 9560TIP3    H152875   0.216   4.695   8.400 -0.1356  0.1336 -1.6411
 9560TIP3    H252876   0.284   4.574   8.340 -1.8709 -1.1487 -1.0890
 9561TIP3   OH252877   2.115   1.268   0.056 -0.4855 -0.5365  0.0617
 9561TIP3    H152878   2.101   1.348   0.108  0.8590 -1.5790  2.1489
 9561TIP3    H252879   2.032   1.221   0.064 -1.4442  0.7323 -1.5235
 9562TIP3   OH252880   1.097   7.419   0.356  0.0495  0.4132  0.0008
 9562TIP3    H152881   1.096   7.515   0.360  0.2714  0.4561 -0.8209
 9562TIP3    H252882   1.159   7.398   0.286  0.7244 -0.3581  0.8084
 9563TIP3   OH252883   3.154   1.653   0.978  0.4444 -0.4130 -0.3851
 9563TIP3    H152884   3.110   1.575   0.945  0.4660  0.2184 -1.9728
 9563TIP3    H252885   3.168   1.708   0.901  0.9430  0.9190  0.6085
 9564TIP3   OH252886   0.296   4.441   2.351 -0.6283 -0.2503  0.0806
 9564TIP3    H152887   0.284   4.527   2.390 -1.0799 -0.4646  0.4133
 9564TIP3    H252888   0.333   4.460   2.264 -0.3425  0.2541  0.3041
 9565TIP3   OH252889   1.322   2.790   8.800  0.5592 -0.0689 -0.5153
 9565TIP3    H152890   1.302   2.715   8.743  2.1702 -1.8175  1.0937
 9565TIP3    H252891   1.409   2.818   8.772  0.2878  0.7337 -0.5811
 9566TIP3   OH252892   1.595   0.376   1.596  0.2929  0.3640 -0.6532
 9566TIP3    H152893   1.662   0.307   1.593  0.8925  0.9434 -0.7231
 9566TIP3    H252894   1.513   0.328   1.608  0.6831 -0.3774 -0.8486
 9567TIP3   OH252895   0.864   2.880   6.716 -0.1006 -0.5994  0.0373
 9567TIP3    H152896   0.904   2.955   6.672  0.8622 -0.6986  0.7106
 9567TIP3    H252897   0.793   2.853   6.657 -0.1446  0.5207 -0.4489
 9568TIP3   OH252898   6.489   7.658   8.492 -0.3158  0.0802 -0.0638
 9568TIP3    H152899   6.518   7.736   8.445  2.0973 -0.5372  0.2741
 9568TIP3    H252900   6.519   7.585   8.439 -0.6354 -0.6206  0.6982
 9569TIP3   OH252901   3.940   7.679   1.245  0.0865  0.3299 -0.5639
 9569TIP3    H152902   3.989   7.665   1.164 -0.9927  0.9476 -1.3519
 9569TIP3    H252903   3.849   7.688   1.217 -0.0264  3.2652  0.4169
 9570TIP3   OH252904   2.013   2.557   7.708 -0.2609 -0.0463  0.0768
 9570TIP3    H152905   1.962   2.534   7.630 -2.4644 -0.4338  1.5425
 9570TIP3    H252906   2.031   2.650   7.698 -0.8700  0.0004 -0.7195
 9571TIP3   OH252907   1.807   3.476   2.197 -0.0374  0.4922  0.1688
 9571TIP3    H152908   1.799   3.565   2.231  1.0592  0.7724 -0.2823
 9571TIP3    H252909   1.730   3.465   2.141 -0.7895  0.7324  1.1171
 9572TIP3   OH252910   3.549   7.323   8.185 -0.3324 -0.1331 -0.3977
 9572TIP3    H152911   3.463   7.325   8.228  0.1622  3.6271  0.7739
 9572TIP3    H252912   3.529   7.333   8.092 -1.1920 -2.7154 -0.5740
 9573TIP3   OH252913   3.597   1.583   8.406  0.1874  0.0438 -0.0813
 9573TIP3    H152914   3.508   1.618   8.402 -0.2128 -1.0418 -1.5406
 9573TIP3    H252915   3.638   1.630   8.479 -0.7358  2.4794 -1.0340
 9574TIP3   OH252916   6.718   1.722   2.590  0.7822 -0.2182  0.3327
 9574TIP3    H152917   6.751   1.707   2.502  0.2894 -0.2753  0.1533
 9574TIP3    H252918   6.690   1.814   2.590 -0.4217 -0.5649  0.0181
 9575TIP3   OH252919   2.759   7.032   9.260  0.3212 -0.6919  0.0556
 9575TIP3    H152920   2.711   7.077   9.191  0.2642 -1.2492 -0.2807
 9575TIP3    H252921   2.848   7.067   9.254 -0.3062  1.3048  1.5334
 9576TIP3   OH252922   2.016   6.978   0.728 -0.0463  0.7086  0.0702
 9576TIP3    H152923   2.042   6.947   0.814  0.9552 -2.4406 -1.1905
 9576TIP3    H252924   2.098   6.993   0.681 -0.4934 -0.3726 -1.1404
 9577TIP3   OH252925   2.725   2.817   6.728  0.3572  0.0523 -0.1924
 9577TIP3    H152926   2.779   2.739   6.717 -0.1089 -0.0158 -2.7351
 9577TIP3    H252927   2.678   2.803   6.810 -0.4798 -2.8514 -1.0384
 9578TIP3   OH252928   7.317   7.655   7.496 -0.5112 -0.0159  0.4094
 9578TIP3    H152929   7.354   7.590   7.436 -1.1230  0.2947 -0.3104
 9578TIP3    H252930   7.388   7.719   7.509 -0.4094 -0.0303 -0.0570
 9579TIP3   OH252931   3.601   3.694   9.746  0.0087 -0.2614  0.2146
 9579TIP3    H152932   3.509   3.710   9.725 -0.0188 -0.8343 -0.1478
 9579TIP3    H252933   3.625   3.620   9.690 -0.0285 -1.7993  2.1425
 9580TIP3   OH252934   5.337   2.445   7.686 -0.6168  0.1085 -0.0777
 9580TIP3    H152935   5.262   2.400   7.648 -1.2984  0.5660  0.6787
 9580TIP3    H252936   5.306   2.473   7.772  0.2271  0.8435 -0.0044
 9581TIP3   OH252937   3.483   6.240   0.234 -0.0505  0.4052  0.3935
 9581TIP3    H152938   3.506   6.328   0.263  0.8257  0.5798 -0.7852
 9581TIP3    H252939   3.549   6.217   0.169 -0.7090 -0.8222  0.1123
 9582TIP3   OH252940   5.916   2.349   0.082  0.2564 -0.4751  0.3283
 9582TIP3    H152941   5.907   2.399   0.163 -0.0316 -0.4034  0.2519
 9582TIP3    H252942   5.967   2.406   0.024 -2.3673  0.9586 -0.7584
 9583TIP3   OH252943   0.078   5.104   9.084  0.3992  0.3634 -0.1918
 9583TIP3    H152944   0.121   5.169   9.139  1.1550 -1.2642  1.2737
 9583TIP3    H252945   0.145   5.077   9.022  0.1477  0.8506 -0.6737
 9584TIP3   OH252946   6.374   3.471   9.572  0.7485 -0.2287  0.0532
 9584TIP3    H152947   6.343   3.420   9.647  0.4651  1.0778  0.8685
 9584TIP3    H252948   6.423   3.543   9.612  1.3518  0.0046 -1.0674
 9585TIP3   OH252949   0.458   5.571   8.222  0.0754 -0.6995 -0.3465
 9585TIP3    H152950   0.516   5.507   8.264  0.5232 -1.5287 -2.1234
 9585TIP3    H252951   0.450   5.540   8.131 -0.2389  1.3969 -1.0919
 9586TIP3   OH252952   1.969   2.451   1.834  0.7733  0.1141 -0.4624
 9586TIP3    H152953   2.040   2.412   1.784  0.8315 -0.0365 -0.2646
 9586TIP3    H252954   1.906   2.481   1.768  0.4097 -0.9229 -0.5994
 9587TIP3   OH252955   0.348   2.593   9.079  0.8201  0.0560 -0.0614
 9587TIP3    H152956   0.282   2.661   9.070  1.3543  0.7143  0.8854
 9587TIP3    H252957   0.410   2.627   9.143  0.2452 -1.9587  1.6919
 9588TIP3   OH252958   1.193   0.010   0.335 -0.7838 -0.0897 -0.1789
 9588TIP3    H152959   1.147   0.082   0.379 -1.0230 -0.1216 -0.3746
 9588TIP3    H252960   1.286   0.028   0.351 -0.7316  1.2675 -1.7231
 9589TIP3   OH252961   4.108   0.235   8.765  0.4371  0.2790 -0.7284
 9589TIP3    H152962   4.028   0.207   8.722  0.7258  0.2586 -1.2630
 9589TIP3    H252963   4.174   0.237   8.695  0.5541  1.7454 -0.6073
 9590TIP3   OH252964   2.580   3.607   9.023 -0.0787 -0.1569  0.0411
 9590TIP3    H152965   2.490   3.609   8.988 -0.1748 -2.7872 -0.0555
 9590TIP3    H252966   2.592   3.517   9.053  2.8933 -0.1877 -0.9182
 9591TIP3   OH252967   3.556   2.650   2.042 -0.4128 -0.5393  0.4931
 9591TIP3    H152968   3.461   2.650   2.054 -0.7732 -2.3506 -1.6604
 9591TIP3    H252969   3.590   2.594   2.111 -1.0722 -0.9545  0.4880
 9592TIP3   OH252970   0.891   6.775   9.099  0.7128 -0.0845  0.0915
 9592TIP3    H152971   0.900   6.797   9.191 -0.5269  0.1257  0.1757
 9592TIP3    H252972   0.899   6.679   9.097 -1.1730 -0.2898  0.6955
 9593TIP3   OH252973   0.487   0.719   9.277 -0.3924  0.4478 -0.6456
 9593TIP3    H152974   0.495   0.624   9.264 -0.6251  0.7453 -3.3755
 9593TIP3    H252975   0.397   0.731   9.307  0.4024 -0.3417  2.4861
 9594TIP3   OH252976   6.597   7.329   9.653 -0.1226 -0.6519  0.1681
 9594TIP3    H152977   6.530   7.284   9.704  0.0371 -1.5599 -0.4047
 9594TIP3    H252978   6.549   7.398   9.605 -0.5737 -1.0155  0.0923
 9595TIP3   OH252979   5.976   6.671   0.718  0.1474  0.4923  0.1616
 9595TIP3    H152980   5.898   6.699   0.765  0.3977  0.9665  0.3100
 9595TIP3    H252981   6.023   6.615   0.780 -0.8556 -1.1351 -0.4909
 9596TIP3   OH252982   2.570   0.841   8.997 -0.6713 -0.2662  0.2121
 9596TIP3    H152983   2.475   0.845   9.009 -0.8340  0.2391 -1.0688
 9596TIP3    H252984   2.582   0.803   8.910  0.3048 -0.4247  0.3998
 9597TIP3   OH252985   3.515   0.572   8.996  0.5666  0.4967 -0.2794
 9597TIP3    H152986   3.573   0.645   8.974  0.4901  1.4734  2.3928
 9597TIP3    H252987   3.456   0.607   9.063  1.5462 -2.3726  2.3095
 9598TIP3   OH252988   3.923   0.547   1.485 -0.1770  0.6623 -0.0994
 9598TIP3    H152989   3.992   0.594   1.532  0.7246 -0.6302 -0.0829
 9598TIP3    H252990   3.970   0.489   1.425 -1.2051 -0.9435  0.5782
 9599TIP3   OH252991   3.765   7.506   8.193  0.2791 -0.5233 -0.0658
 9599TIP3    H152992   3.760   7.537   8.103  1.5069 -0.1258 -0.0245
 9599TIP3    H252993   3.700   7.436   8.198 -1.6005  1.1156 -0.5247
 9600TIP3   OH252994   0.206   6.977   7.469  0.0787 -0.1648  0.1794
 9600TIP3    H152995   0.125   6.927   7.478  0.1903 -0.3871 -0.0785
 9600TIP3    H252996   0.263   6.943   7.538  0.4168 -0.8927 -0.4506
 9601TIP3   OH252997   6.834   0.580   1.702  0.4136  0.2621  0.4499
 9601TIP3    H152998   6.850   0.490   1.673 -0.6611  0.2587 -0.1674
 9601TIP3    H252999   6.787   0.570   1.785  0.1737  0.2476  0.3135
 9602TIP3   OH253000   1.105   3.525   2.139  0.2740  0.2632  0.1734
 9602TIP3    H153001   1.064   3.448   2.100 -1.6580  1.1745  0.2634
 9602TIP3    H253002   1.143   3.493   2.221 -0.5451 -0.6029  0.2406
 9603TIP3   OH253003   4.467   4.364   8.304  0.2922 -0.3831  0.0891
 9603TIP3    H153004   4.536   4.297   8.311  0.2282 -0.4343  0.2159
 9603TIP3    H253005   4.489   4.412   8.223  1.0137  0.2074  0.6216
 9604TIP3   OH253006   6.167   5.733   0.150  0.3206  0.4107 -0.2680
 9604TIP3    H153007   6.173   5.669   0.221 -1.9511  1.4411  0.9589
 9604TIP3    H253008   6.248   5.784   0.157  0.1255  0.5351  1.6629
 9605TIP3   OH253009   7.124   5.912   1.378  0.3915 -0.3226  0.3010
 9605TIP3    H153010   7.051   5.850   1.381 -0.4046  0.5739 -0.0921
 9605TIP3    H253011   7.167   5.904   1.463 -0.6831 -0.2489  0.8617
 9606TIP3   OH253012   1.239   2.026   2.132  0.2903 -0.8568  0.1087
 9606TIP3    H153013   1.156   1.984   2.108 -0.8721  1.0728  0.5255
 9606TIP3    H253014   1.229   2.045   2.226 -0.0058  1.8735 -0.3995
 9607TIP3   OH253015   4.756   0.645   0.834  0.0272  0.0112  0.4362
 9607TIP3    H153016   4.812   0.679   0.764 -1.3595  0.3616 -0.5589
 9607TIP3    H253017   4.667   0.653   0.799 -0.5057 -4.0498  0.3666
 9608TIP3   OH253018   2.032   3.991   0.951 -0.2509  0.2656 -0.3276
 9608TIP3    H153019   2.037   3.957   1.040  1.7803  0.1379 -0.4423
 9608TIP3    H253020   1.965   4.059   0.955 -1.2965 -0.7865  0.9096
 9609TIP3   OH253021   0.500   1.768   0.107 -0.3479  0.0691  0.4424
 9609TIP3    H153022   0.417   1.734   0.073  0.1016  1.7987 -2.7499
 9609TIP3    H253023   0.477   1.851   0.148 -0.2497  0.5270 -0.4033
 9610TIP3   OH253024   4.820   0.631   8.417 -0.0524 -0.7098 -0.0465
 9610TIP3    H153025   4.888   0.616   8.482  1.2082 -0.1816 -1.1976
 9610TIP3    H253026   4.847   0.579   8.341 -1.3572 -1.1165 -0.2725
 9611TIP3   OH253027   5.353   2.186   8.091 -0.1541  0.3593 -0.6074
 9611TIP3    H153028   5.433   2.155   8.133 -1.1247 -0.7844  0.4650
 9611TIP3    H253029   5.371   2.178   7.997  1.3415  1.1054 -0.4153
 9612TIP3   OH253030   1.212   1.883   1.468 -0.6174  0.6332  0.6462
 9612TIP3    H153031   1.242   1.867   1.379  0.8613 -0.5172  1.3053
 9612TIP3    H253032   1.118   1.865   1.465 -0.6789  1.0716 -0.7661
 9613TIP3   OH253033   2.887   2.944   1.931 -0.1033  0.0664 -0.2089
 9613TIP3    H153034   2.814   3.000   1.958 -2.2314 -1.0401 -3.1238
 9613TIP3    H253035   2.962   3.003   1.926 -1.4246  1.8825  0.2399
 9614TIP3   OH253036   4.271   4.861   7.116  0.2805  0.5277  0.3003
 9614TIP3    H153037   4.364   4.875   7.131  0.2834  0.7779  0.0546
 9614TIP3    H253038   4.255   4.772   7.146  0.5524  0.5607  0.5554
 9615TIP3   OH253039   3.121   6.075   1.638 -0.1919 -0.0382 -0.0847
 9615TIP3    H153040   3.146   6.066   1.545  0.8423 -0.9287  0.2525
 9615TIP3    H253041   3.202   6.097   1.682 -0.9648  1.9288  0.4472
 9616TIP3   OH253042   7.443   3.438   9.131 -0.2878 -0.1448 -0.4843
 9616TIP3    H153043   7.468   3.345   9.126 -0.3825 -0.2126  0.2798
 9616TIP3    H253044   7.348   3.438   9.118 -0.6855 -0.4180  2.0252
 9617TIP3   OH253045   3.183   5.951   7.630 -0.5486  0.3652  0.1451
 9617TIP3    H153046   3.148   6.039   7.617  1.6230  1.2018 -0.3906
 9617TIP3    H253047   3.258   5.945   7.571 -0.0180 -1.4834  0.9107
 9618TIP3   OH253048   3.991   5.666   0.265  0.0520  0.2021 -0.6714
 9618TIP3    H153049   3.955   5.609   0.197 -2.1460  0.6424  0.0425
 9618TIP3    H253050   3.967   5.623   0.348  1.4521  0.3970 -0.1286
 9619TIP3   OH253051   7.183   2.887   8.350 -0.1527 -0.1994  0.5456
 9619TIP3    H153052   7.135   2.865   8.430  1.1125 -0.5160  1.2302
 9619TIP3    H253053   7.227   2.969   8.371 -0.0976 -0.0968  0.0364
 9620TIP3   OH253054   5.606   2.293   9.802  0.4235 -0.5879 -0.0735
 9620TIP3    H153055   5.522   2.255   9.775  1.7799 -2.4467 -2.0637
 9620TIP3    H253056   5.627   2.357   9.734  0.3025  0.4516  0.8341
 9621TIP3   OH253057   4.646   2.628   9.134  0.3535 -0.6411  0.2831
 9621TIP3    H153058   4.560   2.671   9.134  0.2340 -0.8810  0.0294
 9621TIP3    H253059   4.693   2.670   9.207  0.2439 -0.0693  0.0353
 9622TIP3   OH253060   7.335   1.483   9.056  0.0046 -0.0792 -0.6338
 9622TIP3    H153061   7.279   1.412   9.024 -1.9295  1.6787 -1.3629
 9622TIP3    H253062   7.357   1.457   9.145 -2.3675 -0.6907 -0.1505
 9623TIP3   OH253063   1.016   3.430   0.734  0.6521 -0.1221 -0.7772
 9623TIP3    H153064   1.108   3.444   0.711  0.7064 -2.0826 -1.9971
 9623TIP3    H253065   0.967   3.484   0.671  0.9380  0.9214 -0.1271
 9624TIP3   OH253066   0.419   3.582   9.569  0.0303  0.0651 -0.0922
 9624TIP3    H153067   0.459   3.644   9.630  0.3483  0.2452 -0.4719
 9624TIP3    H253068   0.326   3.586   9.587  0.1699 -0.2381  0.7052
 9625TIP3   OH253069   0.242   1.431   7.866 -0.3360 -0.0703 -0.0561
 9625TIP3    H153070   0.236   1.436   7.770 -1.3725  0.2899  0.0082
 9625TIP3    H253071   0.319   1.378   7.883  0.4896  0.7743 -1.0790
 9626TIP3   OH253072   3.834   0.197   2.801  0.1432 -0.7512 -0.6113
 9626TIP3    H153073   3.739   0.187   2.794  0.2412 -1.1722 -1.4620
 9626TIP3    H253074   3.846   0.270   2.861 -0.8000  1.4890 -2.9436
 9627TIP3   OH253075   0.038   3.807   7.941  0.4682  0.2524 -0.2914
 9627TIP3    H153076  -0.008   3.787   7.859  1.3464 -0.2200 -0.6737
 9627TIP3    H253077   0.117   3.753   7.939 -0.0324 -0.6320  1.3841
 9628TIP3   OH253078   0.259   6.569   1.779 -0.1085  0.1690 -0.0581
 9628TIP3    H153079   0.319   6.525   1.719  1.4000 -0.6241  1.9096
 9628TIP3    H253080   0.261   6.661   1.753  2.2471  0.2318  0.1131
 9629TIP3   OH253081   6.804   4.401   8.973 -0.0751  0.0764  0.3471
 9629TIP3    H153082   6.726   4.360   8.936 -0.1000 -2.1727  2.5732
 9629TIP3    H253083   6.877   4.349   8.940  0.0547 -0.6805  1.7507
 9630TIP3   OH253084   0.099   3.436   1.077 -0.0039 -0.5187 -0.3045
 9630TIP3    H153085   0.183   3.397   1.057  0.6372  2.1521 -3.9132
 9630TIP3    H253086   0.106   3.465   1.168  1.9641 -2.4990  0.2458
 9631TIP3   OH253087   6.756   7.441   2.288 -0.3630  0.0903 -0.4812
 9631TIP3    H153088   6.698   7.505   2.329 -0.1246 -0.4279  0.6991
 9631TIP3    H253089   6.819   7.419   2.357  0.8371  0.1491 -1.5264
 9632TIP3   OH253090   0.984   2.570   8.179  0.2710  0.3269  0.3908
 9632TIP3    H153091   0.892   2.565   8.153  0.2921  1.3874  0.0689
 9632TIP3    H253092   0.995   2.497   8.240 -0.7261  0.0560  0.2728
 9633TIP3   OH253093   3.719   6.509   7.505 -0.5171 -0.0639  0.4151
 9633TIP3    H153094   3.769   6.428   7.514 -1.3973 -0.5284  1.4451
 9633TIP3    H253095   3.628   6.479   7.500 -0.8897  0.8706  1.2996
 9634TIP3   OH253096   5.393   1.788   7.820  0.1093 -0.2388 -0.0232
 9634TIP3    H153097   5.438   1.841   7.754 -1.4468 -1.4596 -2.2216
 9634TIP3    H253098   5.337   1.850   7.867 -0.2239  0.3983 -1.2200
 9635TIP3   OH253099   7.286   7.363   0.493 -0.2426 -0.1518  0.1605
 9635TIP3    H153100   7.196   7.368   0.462 -0.0562 -0.0234 -0.3874
 9635TIP3    H253101   7.305   7.269   0.497 -0.4230 -0.1798  0.3420
 9636TIP3   OH253102   0.714   2.498   8.899 -0.3040 -0.0844 -0.0923
 9636TIP3    H153103   0.693   2.418   8.851 -3.1640  0.3273  0.2595
 9636TIP3    H253104   0.687   2.480   8.989  1.2272  0.5265  0.5263
 9637TIP3   OH253105   2.622   5.437   8.130 -0.1200  0.1597 -0.3627
 9637TIP3    H153106   2.533   5.404   8.130 -0.6677  1.4773 -2.3511
 9637TIP3    H253107   2.613   5.533   8.133  1.1217  0.3921 -2.0704
 9638TIP3   OH253108   3.988   0.140   2.589 -0.2182 -0.5849  0.1723
 9638TIP3    H153109   4.039   0.061   2.607 -0.1761 -0.4249  0.7841
 9638TIP3    H253110   3.934   0.152   2.668  1.8925  1.6559  1.4119
 9639TIP3   OH253111   1.456   4.436   8.032 -0.0299 -0.7987  0.2715
 9639TIP3    H153112   1.415   4.522   8.023  3.3077  0.7886 -2.3019
 9639TIP3    H253113   1.487   4.433   8.123  0.3519  1.0754  0.2449
 9640TIP3   OH253114   1.020   6.627   0.239  0.4887  0.4378  0.2610
 9640TIP3    H153115   1.083   6.638   0.310  1.8493  1.1202 -0.9934
 9640TIP3    H253116   1.054   6.682   0.168 -1.5462  0.8470 -0.4693
 9641TIP3   OH253117   2.213   3.180   7.379  0.2809 -0.8359  0.2450
 9641TIP3    H153118   2.296   3.212   7.414  0.7115 -1.2532 -0.3721
 9641TIP3    H253119   2.238   3.123   7.306 -0.5445 -1.0400  0.1108
 9642TIP3   OH253120   0.634   0.864   8.189  0.3222  0.2523  0.2055
 9642TIP3    H153121   0.622   0.806   8.114  0.5736  2.1223 -1.3652
 9642TIP3    H253122   0.549   0.907   8.200  0.9289  1.7429 -0.6125
 9643TIP3   OH253123   4.148   1.536   9.087 -0.1400 -0.2419 -0.4968
 9643TIP3    H153124   4.202   1.508   9.161  1.0835  0.3559 -1.1474
 9643TIP3    H253125   4.181   1.485   9.013 -0.2175  0.4012 -0.9798
 9644TIP3   OH253126   5.831   0.464   9.403 -0.4258 -0.0543 -0.4601
 9644TIP3    H153127   5.899   0.463   9.470 -1.6848 -1.9541  0.8912
 9644TIP3    H253128   5.803   0.373   9.395 -2.5702  0.5960 -1.1992
 9645TIP3   OH253129   3.290   4.495   0.625 -0.4127  0.4423  0.3666
 9645TIP3    H153130   3.293   4.568   0.686  2.7841  1.7762 -1.1291
 9645TIP3    H253131   3.281   4.536   0.539  1.4018 -0.8629 -0.5021
 9646TIP3   OH253132   0.748   3.362   7.566 -0.4105 -0.1309  0.2037
 9646TIP3    H153133   0.824   3.400   7.609  0.2507 -0.2131 -0.8530
 9646TIP3    H253134   0.689   3.339   7.637  0.3143  0.4371  1.0098
 9647TIP3   OH253135   3.911   7.353   7.231  0.2434  0.3182  0.4584
 9647TIP3    H153136   3.902   7.297   7.154 -0.4040  1.2470 -0.1615
 9647TIP3    H253137   3.911   7.292   7.305  0.5160 -0.5629 -0.2426
 9648TIP3   OH253138   3.843   6.509   9.609 -0.0006 -0.3376  0.0039
 9648TIP3    H153139   3.786   6.517   9.533 -0.5248  0.2275  0.4490
 9648TIP3    H253140   3.922   6.464   9.576  0.7208  1.8226 -1.3759
 9649TIP3   OH253141   0.165   1.659   7.987  0.2729  0.2617 -0.3683
 9649TIP3    H153142   0.212   1.732   7.947 -0.5623  0.7336 -0.5101
 9649TIP3    H253143   0.205   1.581   7.950  0.9374  0.6552 -0.4843
 9650TIP3   OH253144   0.735   6.012   2.196 -0.2664  0.6067 -0.5155
 9650TIP3    H153145   0.748   6.106   2.198  1.1896  0.5347 -2.6133
 9650TIP3    H253146   0.819   5.977   2.166 -0.6668 -1.3921  0.5383
 9651TIP3   OH253147   0.926   3.643   7.069 -0.1894  0.7263 -0.1006
 9651TIP3    H153148   1.019   3.654   7.088  0.4276 -0.9431 -1.8178
 9651TIP3    H253149   0.905   3.715   7.009 -0.3367  1.7989  1.2081
 9652TIP3   OH253150   0.770   2.869   0.545  0.1699  0.2545  0.0691
 9652TIP3    H153151   0.743   2.785   0.581 -2.5868  0.1897 -1.8086
 9652TIP3    H253152   0.717   2.934   0.592 -0.3916  0.5445 -0.9260
 9653TIP3   OH253153   5.116   7.401   0.441 -0.9358  0.1903 -0.4020
 9653TIP3    H153154   5.171   7.350   0.501 -0.8886  1.6428  0.8533
 9653TIP3    H253155   5.178   7.437   0.377 -0.6761  0.3027 -0.0945
 9654TIP3   OH253156   0.914   1.557   2.104  0.2073 -0.2955 -0.2518
 9654TIP3    H153157   0.824   1.588   2.101 -0.1496 -1.3023 -0.3729
 9654TIP3    H253158   0.907   1.467   2.137  1.0702 -0.7176 -1.1825
 9655TIP3   OH253159   2.444   3.990   9.647 -0.2830  0.1775 -0.2783
 9655TIP3    H153160   2.521   4.046   9.656 -1.7039  2.0071  1.0456
 9655TIP3    H253161   2.476   3.902   9.670  2.0510  0.2690 -2.7036
 9656TIP3   OH253162   4.299   5.508   8.053  0.1035 -0.8066  0.2491
 9656TIP3    H153163   4.305   5.589   8.001 -0.3166 -0.2501  1.0548
 9656TIP3    H253164   4.277   5.441   7.989 -2.5645  0.2323 -0.0350
 9657TIP3   OH253165   3.996   7.241   1.451 -0.0196  0.1023  0.2868
 9657TIP3    H153166   3.984   7.151   1.422  0.8180  0.3020 -0.7580
 9657TIP3    H253167   3.946   7.294   1.388  0.4705  0.4406  0.1760
 9658TIP3   OH253168   6.781   6.293   1.489  0.5932 -0.8366 -0.2509
 9658TIP3    H153169   6.696   6.322   1.521  0.4762  0.6930 -1.7851
 9658TIP3    H253170   6.768   6.200   1.467 -0.7156 -0.6022 -0.5517
 9659TIP3   OH253171   4.292   4.901   9.876 -0.1891  0.8737  0.0561
 9659TIP3    H153172   4.250   4.960   9.814  0.7721  2.5173  0.9042
 9659TIP3    H253173   4.223   4.877   9.937 -0.6578  0.8656 -0.4659
 9660TIP3   OH253174   3.735   3.659   8.125  0.7115 -0.5471  0.1953
 9660TIP3    H153175   3.712   3.689   8.037 -1.2116 -1.0313  0.4841
 9660TIP3    H253176   3.700   3.570   8.129  0.0161 -0.2276  1.7220
 9661TIP3   OH253177   3.179   1.296   9.610 -0.1398 -0.0671 -0.1360
 9661TIP3    H153178   3.149   1.384   9.587  0.9031  0.0951 -0.9474
 9661TIP3    H253179   3.222   1.264   9.531 -1.4174 -1.7439 -0.2189
 9662TIP3   OH253180   1.410   0.656   1.093 -0.2644  0.0853 -0.3050
 9662TIP3    H153181   1.491   0.670   1.140 -0.7197 -0.3702  0.6420
 9662TIP3    H253182   1.346   0.711   1.137 -0.4971  0.3705 -0.9827
 9663TIP3   OH253183   7.609   6.912   7.577  0.0060  0.0811  0.3784
 9663TIP3    H153184   7.551   6.858   7.524 -0.7305  1.4944 -0.3263
 9663TIP3    H253185   7.570   7.000   7.573  1.8837  0.9615  0.3433
 9664TIP3   OH253186   2.031   4.165   0.087  0.1535 -0.2188 -0.3096
 9664TIP3    H153187   2.066   4.253   0.080  0.4777  0.1919  3.9349
 9664TIP3    H253188   1.936   4.177   0.085  0.1372 -0.2171 -2.3423
 9665TIP3   OH253189   3.932   2.946   0.111 -0.1062  0.6268 -0.8488
 9665TIP3    H153190   3.930   3.023   0.168  0.6032  0.6193 -0.7997
 9665TIP3    H253191   3.884   2.972   0.033 -0.4078  0.9043 -0.5754
 9666TIP3   OH253192   7.282   5.780   7.466 -0.5813 -0.6803 -0.2673
 9666TIP3    H153193   7.316   5.702   7.422  0.4020 -0.4051 -0.0395
 9666TIP3    H253194   7.359   5.836   7.476 -1.2507  0.2575 -0.2991
 9667TIP3   OH253195   1.171   0.840   2.348  0.3924  0.2953 -0.0428
 9667TIP3    H153196   1.255   0.835   2.303  0.2625 -0.0114 -0.2574
 9667TIP3    H253197   1.177   0.775   2.418  0.5653  0.7177  0.3300
 9668TIP3   OH253198   6.515   7.678   7.262 -0.0795 -0.0378  0.0311
 9668TIP3    H153199   6.552   7.763   7.286 -0.0092 -0.2293  0.6168
 9668TIP3    H253200   6.585   7.635   7.212  0.6205 -0.5013  1.3617
 9669TIP3   OH253201   0.928   7.020   8.002 -0.4886 -0.0659  0.3029
 9669TIP3    H153202   1.001   7.010   8.063  0.5363 -0.7800 -0.9911
 9669TIP3    H253203   0.915   7.115   7.996  0.7882  0.1151  0.0636
 9670TIP3   OH253204   7.407   2.388   2.609  0.8143 -0.8143 -0.6364
 9670TIP3    H153205   7.383   2.417   2.521 -1.6852 -1.6604 -0.3060
 9670TIP3    H253206   7.342   2.428   2.666  2.0462 -0.7606  0.7786
 9671TIP3   OH253207   3.689   4.805   8.218 -0.0194  0.2307  0.0639
 9671TIP3    H153208   3.719   4.719   8.190  2.1513  1.2324 -0.9638
 9671TIP3    H253209   3.673   4.796   8.312  0.3658 -1.2355  0.0149
 9672TIP3   OH253210   1.875   7.494   0.324 -0.1005 -0.0045  0.1434
 9672TIP3    H153211   1.798   7.505   0.268  0.7809 -0.0635 -1.1271
 9672TIP3    H253212   1.931   7.432   0.277  0.3491 -0.6444  1.4592
 9673TIP3   OH253213   2.983   0.179   7.002 -0.2078 -0.1680 -0.1992
 9673TIP3    H153214   3.066   0.225   6.987 -0.3108  0.3231  0.7062
 9673TIP3    H253215   2.920   0.248   7.020 -0.1918 -0.6653  1.9928
 9674TIP3   OH253216   3.874   1.679   1.213  0.3286 -0.3801  1.1800
 9674TIP3    H153217   3.960   1.688   1.172 -1.6864 -0.3299 -3.7231
 9674TIP3    H253218   3.859   1.584   1.217 -0.0282 -0.3659  0.3586
 9675TIP3   OH253219   6.524   7.370   7.665  0.2681  0.2152  0.7538
 9675TIP3    H153220   6.548   7.357   7.574 -2.2936  1.4589 -0.1784
 9675TIP3    H253221   6.512   7.465   7.673 -0.4344  0.0355  2.1457
 9676TIP3   OH253222   4.281   3.833   0.007 -0.1956 -0.4634  0.3226
 9676TIP3    H153223   4.186   3.823   0.012 -0.0018 -1.5972  3.3233
 9676TIP3    H253224   4.311   3.752  -0.035 -0.5023 -0.0794 -0.6829
 9677TIP3   OH253225   2.197   2.661   0.363 -0.7003 -0.5148  0.5834
 9677TIP3    H153226   2.140   2.693   0.433 -3.8108 -1.0481 -1.4888
 9677TIP3    H253227   2.202   2.733   0.300 -2.7497 -1.8102 -1.2371
 9678TIP3   OH253228   5.832   5.944   8.053 -0.4284 -0.5771  0.1338
 9678TIP3    H153229   5.739   5.957   8.071 -0.1436  0.0632  1.2064
 9678TIP3    H253230   5.877   6.008   8.107  0.5684  0.8282 -2.2094
 9679TIP3   OH253231   3.351   6.486   8.899  0.3586  0.6045  0.5132
 9679TIP3    H153232   3.419   6.488   8.966  0.5803  0.6664  0.2860
 9679TIP3    H253233   3.272   6.515   8.945  0.2558 -0.4529  1.0382
 9680TIP3   OH253234   2.114   6.670   9.896 -0.1080 -0.3635  0.3561
 9680TIP3    H153235   2.068   6.632   9.821  0.3283 -0.9703  0.3896
 9680TIP3    H253236   2.183   6.724   9.857 -1.8515  1.9297  0.2596
 9681TIP3   OH253237   5.637   2.515   9.643  0.4571  0.2539 -0.4091
 9681TIP3    H153238   5.595   2.593   9.607  1.7169  0.2732 -1.9030
 9681TIP3    H253239   5.713   2.500   9.587  1.1355 -1.1348  0.8144
 9682TIP3   OH253240   5.457   6.686   8.911  0.5938  0.0052 -0.3394
 9682TIP3    H153241   5.418   6.685   8.824 -0.9208  3.6817  0.0954
 9682TIP3    H253242   5.411   6.617   8.959  0.1404 -0.8471 -1.9250
 9683TIP3   OH253243   0.738   6.362   2.722  0.7427 -0.1936 -0.2863
 9683TIP3    H153244   0.778   6.298   2.781  0.0301  0.4958  1.0129
 9683TIP3    H253245   0.808   6.388   2.662  1.4867 -0.9593  0.2329
 9684TIP3   OH253246   4.093   1.548   9.548  0.1940  0.4154 -0.1261
 9684TIP3    H153247   4.104   1.519   9.639  1.0103  0.3258 -0.2410
 9684TIP3    H253248   4.183   1.552   9.514 -0.0128  1.5508 -0.5887
 9685TIP3   OH253249   0.909   1.905   7.719  0.0041 -0.5067 -0.0073
 9685TIP3    H153250   0.912   1.810   7.731  1.4521 -0.8617 -2.4735
 9685TIP3    H253251   0.820   1.922   7.689 -0.3018 -1.0342  0.5508
 9686TIP3   OH253252   2.390   3.563   1.356  0.0016  0.7714 -0.1365
 9686TIP3    H153253   2.408   3.500   1.426  1.0132  2.1275  0.8570
 9686TIP3    H253254   2.469   3.561   1.301 -0.3823  0.4597 -0.6986
 9687TIP3   OH253255   3.690   5.741   0.673 -0.3926 -0.0844  0.1901
 9687TIP3    H153256   3.688   5.796   0.594  0.4240 -0.6375 -0.2293
 9687TIP3    H253257   3.783   5.721   0.686 -0.4874  0.2275  1.4630
 9688TIP3   OH253258   2.793   5.182   9.466  0.1961 -0.0719  0.0192
 9688TIP3    H153259   2.846   5.221   9.536  1.7402 -0.7450 -0.7292
 9688TIP3    H253260   2.851   5.118   9.425 -1.2148 -0.8353 -0.8575
 9689TIP3   OH253261   5.305   4.490   9.730 -0.3982 -0.1587  0.6124
 9689TIP3    H153262   5.240   4.504   9.661  0.9647 -1.5491 -1.0170
 9689TIP3    H253263   5.380   4.543   9.704  0.1697 -0.7766  0.9691
 9690TIP3   OH253264   5.700   5.177   7.560 -0.2379  0.4408  0.5204
 9690TIP3    H153265   5.725   5.193   7.468  1.1200 -1.6897  0.4692
 9690TIP3    H253266   5.605   5.167   7.557 -0.3600  1.5893 -0.4423
 9691TIP3   OH253267   0.674   5.757   7.395 -0.3917  0.2948 -0.0703
 9691TIP3    H153268   0.603   5.774   7.457 -1.5389 -0.2247 -1.1898
 9691TIP3    H253269   0.719   5.680   7.430 -1.2038 -0.1646 -0.0249
 9692TIP3   OH253270   1.862   0.794   0.460 -0.3632 -0.0293 -0.0618
 9692TIP3    H153271   1.844   0.737   0.534  0.6921  1.4474  1.3987
 9692TIP3    H253272   1.952   0.774   0.435 -0.7615 -0.6320 -1.0902
 9693TIP3   OH253273   1.504   6.993   0.256 -1.6206 -0.7247 -0.4767
 9693TIP3    H153274   1.545   7.037   0.182 -1.8731  0.0272 -0.1773
 9693TIP3    H253275   1.550   6.909   0.263 -1.0423 -0.4520 -0.9726
 9694TIP3   OH253276   4.654   4.382   9.221 -0.0984  0.2662  0.1183
 9694TIP3    H153277   4.688   4.365   9.309 -0.1006  0.7249  0.2130
 9694TIP3    H253278   4.681   4.307   9.169 -2.8841 -1.6969  1.2371
 9695TIP3   OH253279   5.871   2.921   9.830 -0.1911  0.1320 -0.4450
 9695TIP3    H153280   5.945   2.962   9.874  0.3079  1.3651 -2.3143
 9695TIP3    H253281   5.899   2.831   9.814  1.1594  0.7306 -1.6014
 9696TIP3   OH253282   3.361   6.719   8.709 -0.1387  0.6117 -0.4731
 9696TIP3    H153283   3.451   6.718   8.676  0.5667  2.5755  1.1714
 9696TIP3    H253284   3.365   6.669   8.790 -0.5494  0.7173 -0.3895
 9697TIP3   OH253285   5.792   3.412   9.540 -0.0631  0.0374  0.1897
 9697TIP3    H153286   5.816   3.495   9.497 -0.0953 -0.2134 -0.3195
 9697TIP3    H253287   5.698   3.419   9.556 -0.0890  0.0458  0.0331
 9698TIP3   OH253288   0.983   4.515   3.247  0.4861  0.4551 -0.3434
 9698TIP3    H153289   1.061   4.544   3.200  0.1256  0.4629 -0.9388
 9698TIP3    H253290   0.979   4.421   3.232 -0.7814  0.7481 -2.0939
 9699TIP3   OH253291   6.302   7.016   2.732  0.0168 -0.0723  0.0755
 9699TIP3    H153292   6.331   7.102   2.703  0.6388  0.0403  1.0105
 9699TIP3    H253293   6.294   7.023   2.827  0.4335 -1.1399  0.2131
 9700TIP3   OH253294   2.003   3.095   2.782  0.8457  0.2519  0.3608
 9700TIP3    H153295   2.038   3.006   2.791 -0.6913 -0.3263  0.9314
 9700TIP3    H253296   1.915   3.089   2.818  0.6430  1.9720  0.1906
 9701TIP3   OH253297   3.777   5.008   7.678 -0.0670  0.2183  0.2749
 9701TIP3    H153298   3.763   5.099   7.706  0.1187 -0.0473  1.2576
 9701TIP3    H253299   3.819   4.966   7.753  0.1150 -0.6119 -0.2825
 9702TIP3   OH253300   4.494   1.279   8.714 -0.4610  0.3346  0.6934
 9702TIP3    H153301   4.515   1.271   8.807  1.1761  0.5426  0.3775
 9702TIP3    H253302   4.511   1.371   8.693 -0.0600  0.1196  0.0310
 9703TIP3   OH253303   3.640   2.366   0.568  0.3610 -0.3514  0.0570
 9703TIP3    H153304   3.584   2.443   0.564 -0.0198 -0.6788 -1.3368
 9703TIP3    H253305   3.605   2.307   0.502  1.5834 -1.0930  0.0336
 9704TIP3   OH253306   6.332   2.550   2.638  0.6578  0.0000 -0.3974
 9704TIP3    H153307   6.266   2.602   2.685  2.1739  0.6166  1.1557
 9704TIP3    H253308   6.324   2.578   2.547 -1.8606 -0.6735 -0.4627
 9705TIP3   OH253309   3.959   3.954   7.895 -0.2034  0.3647  0.4925
 9705TIP3    H153310   3.946   4.012   7.820 -1.3035  1.9361  1.8087
 9705TIP3    H253311   3.887   3.891   7.889  0.0178  0.1654 -0.0552
 9706TIP3   OH253312   1.707   3.808   0.862 -0.1713 -0.3914 -0.1754
 9706TIP3    H153313   1.636   3.860   0.824 -0.8935  0.6392  2.4213
 9706TIP3    H253314   1.785   3.862   0.849 -0.5739  0.4145  0.6302
 9707TIP3   OH253315   1.332   4.543   1.928  0.1985  0.0430 -0.1605
 9707TIP3    H153316   1.372   4.628   1.941 -1.9505  1.6223 -2.7899
 9707TIP3    H253317   1.405   4.485   1.907  1.5729  1.5417  0.2582
 9708TIP3   OH253318   4.684   7.450   8.234  0.0586  0.0632  0.4770
 9708TIP3    H153319   4.631   7.427   8.310  1.9878 -2.0329  1.3017
 9708TIP3    H253320   4.770   7.471   8.270  0.9732 -0.7989 -1.0782
 9709TIP3   OH253321   6.321   1.841   9.449  0.4733 -0.2072  0.4215
 9709TIP3    H153322   6.404   1.801   9.423  1.0148  0.2037  1.4373
 9709TIP3    H253323   6.347   1.922   9.494 -0.5433  0.6207 -0.4282
 9710TIP3   OH253324   2.880   1.745   9.808 -0.5904  0.1734  0.7397
 9710TIP3    H153325   2.797   1.791   9.792 -0.5801 -0.4786 -1.4840
 9710TIP3    H253326   2.855   1.654   9.820 -0.2674  0.1207  1.0192
 9711TIP3   OH253327   3.909   3.023   0.410  0.1922 -0.4559  0.0759
 9711TIP3    H153328   3.871   3.089   0.467  0.0138 -0.0609 -0.4959
 9711TIP3    H253329   3.865   2.942   0.435  0.0036 -0.2604  0.3880
 9712TIP3   OH253330   0.160   0.914   8.606  0.4900 -0.5352  0.0639
 9712TIP3    H153331   0.091   0.971   8.643  0.0765 -0.5602 -0.6477
 9712TIP3    H253332   0.218   0.974   8.561 -0.4743 -0.7375 -1.5168
 9713TIP3   OH253333   7.392   0.190   7.090 -0.1957  0.4526  0.1719
 9713TIP3    H153334   7.479   0.217   7.119 -1.5803  2.1184  3.2084
 9713TIP3    H253335   7.399   0.096   7.077  1.7694  0.3746  1.4982
 9714TIP3   OH253336   3.614   2.440   2.235  0.2655 -0.9377  0.1189
 9714TIP3    H153337   3.544   2.465   2.295 -0.5071 -1.0799 -0.6979
 9714TIP3    H253338   3.617   2.344   2.240 -1.5948 -1.1724 -1.9670
 9715TIP3   OH253339   2.803   3.985   2.554 -0.1346 -0.1194 -0.4139
 9715TIP3    H153340   2.788   4.070   2.513  0.7747  0.9315  1.2897
 9715TIP3    H253341   2.897   3.971   2.546 -0.2481 -0.8679 -0.4949
 9716TIP3   OH253342   3.924   0.871   7.787  0.4655  0.0434  0.8915
 9716TIP3    H153343   3.860   0.900   7.852  1.5162  2.0096  1.1055
 9716TIP3    H253344   3.901   0.921   7.708 -0.3417 -1.7782 -0.1058
 9717TIP3   OH253345   0.170   6.514   7.828 -0.1591 -0.4611 -0.3058
 9717TIP3    H153346   0.078   6.540   7.819  0.4835  2.4090  0.3760
 9717TIP3    H253347   0.191   6.474   7.744 -1.7138  0.0174 -0.9650
 9718TIP3   OH253348   4.291   1.380   2.039  0.1857 -0.1926  0.0966
 9718TIP3    H153349   4.286   1.359   1.946 -1.6252  0.1682  0.0850
 9718TIP3    H253350   4.276   1.475   2.042  2.2959  0.1836  0.6268
 9719TIP3   OH253351   1.018   0.484   0.520  0.6628  0.4285  0.5841
 9719TIP3    H153352   0.981   0.572   0.515  1.4900  0.7295 -0.4120
 9719TIP3    H253353   0.944   0.428   0.544  0.2715  1.4733  1.9095
 9720TIP3   OH253354   0.784   4.607   9.007 -0.3033  0.1318 -0.1467
 9720TIP3    H153355   0.740   4.641   9.085  2.1399  0.1984  1.3035
 9720TIP3    H253356   0.818   4.684   8.963  2.2889 -0.0770  1.3016
 9721TIP3   OH253357   4.882   3.510   9.820  0.0312 -0.2002  0.0707
 9721TIP3    H153358   4.875   3.471   9.907 -0.1087  1.4432  0.8419
 9721TIP3    H253359   4.932   3.447   9.769 -0.9846 -1.8005  0.9500
 9722TIP3   OH253360   2.279   7.376   1.720  0.2150  0.3308  0.1313
 9722TIP3    H153361   2.271   7.283   1.741  0.5926  0.7707  2.5976
 9722TIP3    H253362   2.248   7.384   1.630 -1.7772 -1.8776  0.5307
 9723TIP3   OH253363   6.523   3.091   9.462  0.7480 -0.1418 -0.3814
 9723TIP3    H153364   6.470   3.077   9.384  0.7158 -0.7845 -0.2535
 9723TIP3    H253365   6.467   3.062   9.534  0.2847  1.6424  0.0220
 9724TIP3   OH253366   6.362   4.872   7.388 -0.0043  0.1217  0.5801
 9724TIP3    H153367   6.454   4.860   7.412 -0.0383 -0.5003  0.3951
 9724TIP3    H253368   6.364   4.913   7.302  0.0938 -0.2194  0.4222
 9725TIP3   OH253369   6.639   3.988   9.591  0.3695  0.8279 -0.1168
 9725TIP3    H153370   6.693   3.910   9.578 -0.5315  0.2350 -0.4148
 9725TIP3    H253371   6.629   4.026   9.504  0.1975  0.8550 -0.0870
 9726TIP3   OH253372   3.969   0.650   0.616  0.2492 -0.3565  0.2359
 9726TIP3    H153373   4.037   0.624   0.555  0.2132  1.1038 -0.4516
 9726TIP3    H253374   4.001   0.621   0.702  1.1377 -0.7897 -0.2348
 9727TIP3   OH253375   1.024   5.875   0.704 -0.1154 -0.5997  0.6459
 9727TIP3    H153376   0.996   5.889   0.794 -0.7195 -1.1240  0.5482
 9727TIP3    H253377   1.106   5.924   0.696 -1.2652  1.4321  0.7899
 9728TIP3   OH253378   3.702   1.446   2.199 -0.3892  0.0213  0.0518
 9728TIP3    H153379   3.727   1.367   2.152  1.3567  0.5898 -0.0599
 9728TIP3    H253380   3.616   1.469   2.164 -0.3729 -1.1335 -0.8036
 9729TIP3   OH253381   3.763   3.504   7.062 -0.4787 -0.5180 -0.4353
 9729TIP3    H153382   3.821   3.449   7.009 -0.0480 -1.1036  0.6105
 9729TIP3    H253383   3.676   3.469   7.046 -0.4025 -0.4697 -1.0043
 9730TIP3   OH253384   5.509   6.732   8.423 -0.1632  0.3392 -0.7136
 9730TIP3    H153385   5.500   6.827   8.418 -0.6053  0.4408  1.3027
 9730TIP3    H253386   5.589   6.718   8.474 -0.5508 -0.3580 -0.2861
 9731TIP3   OH253387   0.352   1.274   1.815 -0.4244  0.0393 -0.3861
 9731TIP3    H153388   0.338   1.218   1.739  0.3839 -0.3334 -0.2675
 9731TIP3    H253389   0.407   1.223   1.874  3.8671  2.3342 -2.0088
 9732TIP3   OH253390   0.077   4.804   0.394 -0.2629 -0.4302 -0.6597
 9732TIP3    H153391   0.095   4.723   0.443 -0.9583 -0.2537 -0.1069
 9732TIP3    H253392  -0.015   4.798   0.371 -0.4447  0.4355 -0.1873
 9733TIP3   OH253393   2.869   4.357   1.487  0.1830 -0.0439 -0.1626
 9733TIP3    H153394   2.902   4.310   1.410  1.4192 -1.3460  1.0828
 9733TIP3    H253395   2.784   4.316   1.505  0.0588  0.0115 -0.6098
 9734TIP3   OH253396   3.504   7.153   9.688  0.0195 -0.3959  0.0848
 9734TIP3    H153397   3.414   7.186   9.682  0.8617  2.0809 -0.0018
 9734TIP3    H253398   3.528   7.134   9.598  0.0090  0.2269 -0.0552
 9735TIP3   OH253399   4.676   2.994   7.638 -0.1152  0.2864 -0.2767
 9735TIP3    H153400   4.734   2.953   7.702 -1.7406 -1.2206  0.2962
 9735TIP3    H253401   4.665   2.927   7.570  0.1655  1.2090 -1.2631
 9736TIP3   OH253402   7.647   4.119   2.521 -0.2284  0.1203 -0.5225
 9736TIP3    H153403   7.649   4.209   2.490 -0.1460  0.6464  0.9366
 9736TIP3    H253404   7.559   4.088   2.499 -1.0090  1.2642  0.8302
 9737TIP3   OH253405   3.591   3.269   8.643  0.3072  0.0536  0.4837
 9737TIP3    H153406   3.668   3.249   8.697  0.8562 -0.6783 -0.5331
 9737TIP3    H253407   3.540   3.330   8.696  1.5432  0.4874  1.2249
 9738TIP3   OH253408   6.235   0.520   2.997 -0.0807  0.9200  0.2313
 9738TIP3    H153409   6.235   0.573   3.077 -0.8290 -0.4418  1.1703
 9738TIP3    H253410   6.235   0.430   3.028 -0.2925  0.3633 -1.3170
 9739TIP3   OH253411   0.085   6.043   1.091  0.0839  0.0341  0.2193
 9739TIP3    H153412   0.164   5.988   1.088  0.4605  0.5427  0.6858
 9739TIP3    H253413   0.017   5.986   1.126  0.4694 -0.1450  0.6794
 9740TIP3   OH253414   2.055   3.677   8.005  0.3710  0.4915 -0.2581
 9740TIP3    H153415   2.015   3.590   8.001  2.1200 -0.3159 -2.1431
 9740TIP3    H253416   2.135   3.664   8.056 -0.3955  1.4941  1.2459
 9741TIP3   OH253417   1.147   5.891   7.729  0.1996 -0.2182 -0.2801
 9741TIP3    H153418   1.233   5.932   7.743 -0.5335  0.6191  2.3341
 9741TIP3    H253419   1.094   5.961   7.689  0.2189 -0.1101 -0.1190
 9742TIP3   OH253420   0.632   6.775   8.761  0.1431 -1.0393 -0.4584
 9742TIP3    H153421   0.561   6.753   8.821  0.8789  0.5658  1.0689
 9742TIP3    H253422   0.589   6.821   8.689 -0.3589  0.6092  0.8163
 9743TIP3   OH253423   2.058   0.484   1.127 -0.2774  0.3282  0.3388
 9743TIP3    H153424   2.106   0.521   1.201  0.2324  0.0077  0.1735
 9743TIP3    H253425   2.084   0.538   1.052  0.6398 -0.4764  0.0560
 9744TIP3   OH253426   3.125   2.467   8.678  0.6591 -0.1963  0.4841
 9744TIP3    H153427   3.161   2.453   8.766  1.9806  0.7588  0.1137
 9744TIP3    H253428   3.165   2.400   8.624  0.4111 -0.3212  0.4528
 9745TIP3   OH253429   5.418   1.756   8.892 -0.3414  0.1239 -0.0309
 9745TIP3    H153430   5.372   1.691   8.839 -0.7159  0.3955 -0.0389
 9745TIP3    H253431   5.367   1.763   8.972  0.8921 -1.1935  0.9252
 9746TIP3   OH253432   7.282   4.933   9.605 -0.2342  0.1382 -0.5635
 9746TIP3    H153433   7.224   4.934   9.681  0.7510 -1.1635  0.2430
 9746TIP3    H253434   7.247   5.002   9.548 -2.8350 -0.8417 -0.3337
 9747TIP3   OH253435   7.368   6.973   0.030 -0.0637  0.0753  0.2974
 9747TIP3    H153436   7.402   6.884   0.043  1.4725  0.7097  0.8771
 9747TIP3    H253437   7.402   7.000  -0.055 -0.6717  0.0544  0.0442
 9748TIP3   OH253438   6.068   7.587   9.049  0.7395 -0.7567 -0.4233
 9748TIP3    H153439   5.993   7.622   9.001  1.1291  1.0266  0.1740
 9748TIP3    H253440   6.128   7.556   8.981 -0.3088 -1.7912 -0.9174
 9749TIP3   OH253441   2.006   5.176   1.727  0.5542 -0.2206  1.0424
 9749TIP3    H153442   2.053   5.252   1.693  2.1955 -1.4120  0.5311
 9749TIP3    H253443   2.067   5.134   1.786  0.7236 -2.5725 -0.6777
 9750TIP3   OH253444   3.319   3.571   7.242 -0.1627  0.6115  0.2440
 9750TIP3    H153445   3.228   3.562   7.214 -0.0216  1.0611 -0.3709
 9750TIP3    H253446   3.334   3.665   7.242  0.2052  0.5510  0.6649
 9751TIP3   OH253447   1.913   2.075   2.736  0.4673  0.5505  0.1925
 9751TIP3    H153448   1.960   1.994   2.753 -0.1754  0.0386 -0.3971
 9751TIP3    H253449   1.821   2.052   2.746  0.0889  0.5165 -2.5087
 9752TIP3   OH253450   3.808   0.720   1.846 -0.4057  0.1002  0.6440
 9752TIP3    H153451   3.774   0.689   1.763  0.6323  0.9058 -0.1115
 9752TIP3    H253452   3.736   0.707   1.908 -1.4159  0.0776 -0.5003
 9753TIP3   OH253453   2.832   4.907   0.217 -0.7559 -0.5976 -0.2340
 9753TIP3    H153454   2.822   4.954   0.300  0.6107 -1.1535  0.2750
 9753TIP3    H253455   2.766   4.837   0.221 -0.7735 -0.5486  0.3338
 9754TIP3   OH253456   7.130   5.415   9.764 -0.5133  0.3055  0.1263
 9754TIP3    H153457   7.069   5.371   9.824 -1.5260 -0.5566 -1.4544
 9754TIP3    H253458   7.204   5.441   9.819 -1.5897 -0.0421  1.8130
 9755TIP3   OH253459   3.494   2.033   1.665 -0.2431 -0.0671 -0.0058
 9755TIP3    H153460   3.417   2.090   1.662  1.1864  1.9374 -0.2554
 9755TIP3    H253461   3.478   1.976   1.741 -2.4105 -0.4189 -0.6433
 9756TIP3   OH253462   3.369   5.974   8.378  0.2845 -1.1126  0.1238
 9756TIP3    H153463   3.449   6.026   8.381 -1.2356  1.3777  0.4098
 9756TIP3    H253464   3.341   5.979   8.286 -1.7686  1.9050  0.7418
 9757TIP3   OH253465   1.163   6.693   9.195 -0.1520 -0.3808  0.3344
 9757TIP3    H153466   1.200   6.635   9.262 -1.0184  0.5605  1.6964
 9757TIP3    H253467   1.070   6.700   9.219  0.0774  2.1655  0.7092
 9758TIP3   OH253468   5.065   6.069   9.082 -0.1305  0.1954  0.3899
 9758TIP3    H153469   5.004   6.088   9.011  0.2827  1.0806  0.2558
 9758TIP3    H253470   5.035   6.123   9.155 -0.2644 -0.3417  0.7434
 9759TIP3   OH253471   6.635   5.140   7.051 -0.1648  0.1844  0.3161
 9759TIP3    H153472   6.611   5.226   7.084 -0.6032 -0.0017  0.4898
 9759TIP3    H253473   6.552   5.092   7.046  0.1267 -0.3552  0.6018
 9760TIP3   OH253474   4.274   0.201   2.065 -0.1355 -0.2688 -0.0938
 9760TIP3    H153475   4.244   0.153   2.142  0.1754  0.0285  0.2125
 9760TIP3    H253476   4.352   0.248   2.094 -2.0331  2.7997  0.5100
 9761TIP3   OH253477   2.265   1.363   0.541  0.2463 -0.0233 -0.2628
 9761TIP3    H153478   2.357   1.354   0.517  0.1346  1.8756 -1.6587
 9761TIP3    H253479   2.253   1.302   0.614  2.4984 -0.5987 -0.2974
 9762TIP3   OH253480   0.185   3.972   2.664  0.5674  0.1235 -0.4061
 9762TIP3    H153481   0.268   3.953   2.709  0.3760 -1.5401 -0.6806
 9762TIP3    H253482   0.179   4.067   2.665  1.0297  0.2198  2.2898
 9763TIP3   OH253483   0.696   2.358   1.028 -0.3015  0.1266  0.3673
 9763TIP3    H153484   0.767   2.396   1.079 -0.7470 -1.0266  1.8924
 9763TIP3    H253485   0.737   2.286   0.980 -0.0334  0.7822 -0.4328
 9764TIP3   OH253486   5.120   2.866   0.176  0.0129 -0.2013 -0.8810
 9764TIP3    H153487   5.121   2.844   0.269 -0.5563  0.2501 -0.7617
 9764TIP3    H253488   5.189   2.930   0.165  1.5363 -1.8252 -1.1878
 9765TIP3   OH253489   2.160   4.511   2.682 -0.0023  0.0324  0.0346
 9765TIP3    H153490   2.226   4.516   2.752  0.1423  0.7820 -0.1493
 9765TIP3    H253491   2.149   4.601   2.652 -2.0942  0.1306  0.9406
 9766TIP3   OH253492   7.100   0.607   1.046  0.0953  0.3494 -0.1292
 9766TIP3    H153493   7.028   0.658   1.082  0.8299  1.7473 -0.5654
 9766TIP3    H253494   7.068   0.575   0.962 -0.3160  0.2628  0.0625
 9767TIP3   OH253495   5.336   5.515   7.513  0.0466 -0.0635  0.0240
 9767TIP3    H153496   5.292   5.431   7.506 -1.2843  0.5788  0.4380
 9767TIP3    H253497   5.325   5.555   7.427  0.2227 -0.0766 -0.0067
 9768TIP3   OH253498   0.219   2.807   0.527 -0.2418 -0.1751 -0.8945
 9768TIP3    H153499   0.129   2.840   0.523 -0.7316 -1.3502 -0.1699
 9768TIP3    H253500   0.272   2.884   0.546 -1.0899  0.5334 -1.3279
 9769TIP3   OH253501   5.444   6.086   0.102 -0.7744  0.5824  0.3430
 9769TIP3    H153502   5.426   6.055   0.013  0.5440 -1.2874  0.6562
 9769TIP3    H253503   5.366   6.134   0.128 -0.7387  2.2078 -2.2354
 9770TIP3   OH253504   1.567   6.566   0.889 -0.5332  0.3642 -0.5503
 9770TIP3    H153505   1.593   6.523   0.808  1.6464 -0.8631  0.7188
 9770TIP3    H253506   1.613   6.650   0.889  1.7786 -0.8073  0.5995
 9771TIP3   OH253507   7.670   7.562   9.123  0.6162  0.3828 -0.2930
 9771TIP3    H153508   7.653   7.645   9.168 -2.8226 -0.6927  0.7398
 9771TIP3    H253509   7.632   7.573   9.036 -2.6937 -0.8864  0.8246
 9772TIP3   OH253510   5.271   0.513   1.883  0.0804  0.4363 -0.2227
 9772TIP3    H153511   5.236   0.567   1.954  2.3918  1.7072  0.0766
 9772TIP3    H253512   5.259   0.565   1.804  0.0212  0.2675 -0.3259
 9773TIP3   OH253513   1.619   5.548   1.097 -0.4760  0.1702 -0.3778
 9773TIP3    H153514   1.545   5.501   1.059 -0.3982  0.2489 -0.6297
 9773TIP3    H253515   1.584   5.635   1.118 -0.9749 -0.3808  1.2799
 9774TIP3   OH253516   6.739   1.326   2.440 -0.1203  0.3164  0.5082
 9774TIP3    H153517   6.666   1.369   2.483 -0.7266  0.2848 -0.4702
 9774TIP3    H253518   6.778   1.394   2.385 -0.0292  0.0703  0.2660
 9775TIP3   OH253519   1.981   1.192   8.324 -0.2461 -0.2177 -0.0893
 9775TIP3    H153520   1.933   1.136   8.385  0.4614 -1.2905 -0.4882
 9775TIP3    H253521   1.977   1.279   8.362  1.1723 -1.0403  2.1095
 9776TIP3   OH253522   6.053   3.241   0.059  0.0228  0.6329  0.1459
 9776TIP3    H153523   6.146   3.241   0.084 -0.0857  1.2312  0.5697
 9776TIP3    H253524   6.047   3.175  -0.010  0.4042 -0.7719  1.4159
 9777TIP3   OH253525   1.172   0.135   9.436 -0.0523 -0.1826 -0.3341
 9777TIP3    H153526   1.129   0.182   9.507 -0.4430  2.2481 -2.0745
 9777TIP3    H253527   1.111   0.139   9.363  0.5022 -2.2570 -0.9869
 9778TIP3   OH253528   3.193   2.734   8.664  0.1678 -0.2115  0.2125
 9778TIP3    H153529   3.152   2.794   8.602  1.1538  0.4803  0.1934
 9778TIP3    H253530   3.161   2.647   8.639  1.8080 -0.1776 -2.3735
 9779TIP3   OH253531   5.034   2.097   8.926 -0.1986  0.3761 -0.3747
 9779TIP3    H153532   4.948   2.099   8.968 -0.6477 -1.1252 -1.1286
 9779TIP3    H253533   5.091   2.056   8.991 -0.4657 -0.2106 -0.4978
 9780TIP3   OH253534   5.137   7.587   7.977  0.2703  0.5680  0.1236
 9780TIP3    H153535   5.103   7.501   7.951 -0.5636  1.1111 -0.6613
 9780TIP3    H253536   5.148   7.634   7.894  0.6358  1.2454  0.5478
 9781TIP3   OH253537   1.078   4.793   0.496 -0.0381 -0.2634  0.0326
 9781TIP3    H153538   1.162   4.800   0.452 -0.2725 -1.3588 -0.6385
 9781TIP3    H253539   1.029   4.870   0.468  0.5851  0.1611  0.0948
 9782TIP3   OH253540   0.149   6.652   0.563 -0.0789 -0.3517  0.1477
 9782TIP3    H153541   0.236   6.668   0.600  0.7407 -0.5376 -1.6399
 9782TIP3    H253542   0.163   6.644   0.469 -2.1600  0.5053 -0.2940
 9783TIP3   OH253543   3.042   4.263   8.263  0.3635  0.3187  0.6561
 9783TIP3    H153544   3.023   4.355   8.242 -1.1823 -0.1237 -0.0218
 9783TIP3    H253545   2.956   4.221   8.269  0.9022 -0.5667  3.6291
 9784TIP3   OH253546   7.382   1.310   1.321  0.7438  0.1235 -0.2595
 9784TIP3    H153547   7.327   1.317   1.399 -0.7198 -1.0238 -1.1347
 9784TIP3    H253548   7.428   1.394   1.316 -1.3603  1.3647  0.2095
 9785TIP3   OH253549   4.294   6.461   1.895  0.6003  0.1481 -0.5254
 9785TIP3    H153550   4.342   6.492   1.817  1.6990 -1.6059 -0.6082
 9785TIP3    H253551   4.363   6.445   1.960 -0.2329  0.7665  0.5359
 9786TIP3   OH253552   5.104   4.722   8.309  0.2852  0.4454 -0.5017
 9786TIP3    H153553   5.140   4.742   8.396  0.4405 -1.5511 -0.0487
 9786TIP3    H253554   5.010   4.736   8.319  0.3261  0.4410 -0.0616
 9787TIP3   OH253555   6.953   3.742   0.465 -0.0702 -0.2878 -0.4493
 9787TIP3    H153556   7.045   3.769   0.460  0.4159 -1.4930  1.3281
 9787TIP3    H253557   6.917   3.791   0.539 -0.8036 -0.0479 -0.9494
 9788TIP3   OH253558   1.073   1.610   1.903 -0.6091  0.3323  0.4050
 9788TIP3    H153559   1.021   1.583   1.979 -1.0814 -2.9687 -0.9628
 9788TIP3    H253560   1.164   1.598   1.931 -0.7331  0.5177  0.9037
 9789TIP3   OH253561   0.238   1.776   1.426  0.1788 -0.0895 -0.0668
 9789TIP3    H153562   0.265   1.761   1.335 -1.3502 -0.0016 -0.5717
 9789TIP3    H253563   0.259   1.694   1.471  1.3912  0.0356 -0.3652
 9790TIP3   OH253564   7.399   2.329   8.465 -0.0458 -0.1765 -0.3393
 9790TIP3    H153565   7.410   2.237   8.443 -1.1464 -1.1581  2.6343
 9790TIP3    H253566   7.364   2.369   8.386 -1.4311 -2.7362 -1.1214
 9791TIP3   OH253567   6.399   4.977   8.247 -0.2543  0.6417  0.2880
 9791TIP3    H153568   6.416   4.955   8.339 -0.6148  1.8913  0.6749
 9791TIP3    H253569   6.439   5.063   8.235 -0.8780  0.8286 -0.5147
 9792TIP3   OH253570   7.039   4.987   8.470  0.6246  0.0022 -0.7448
 9792TIP3    H153571   7.100   4.959   8.538 -0.3951 -1.5251 -0.4014
 9792TIP3    H253572   7.059   5.080   8.457  2.6347 -0.3178 -0.2867
 9793TIP3   OH253573   0.870   7.367   8.165 -0.4783  0.1693 -0.1770
 9793TIP3    H153574   0.797   7.428   8.155  0.7887  2.0129  1.2445
 9793TIP3    H253575   0.831   7.290   8.207 -1.5333  1.3414  1.0727
 9794TIP3   OH253576   2.179   3.261   9.261  0.4972  0.3597 -0.3167
 9794TIP3    H153577   2.121   3.228   9.192  2.3601  1.0887 -2.3075
 9794TIP3    H253578   2.240   3.319   9.217  2.9965 -0.6026  1.6003
 9795TIP3   OH253579   6.541   1.279   7.214 -0.2390  0.4077 -0.1980
 9795TIP3    H153580   6.613   1.294   7.152  0.2822  1.6587  0.6790
 9795TIP3    H253581   6.465   1.319   7.171 -0.3684 -0.6698 -1.0029
 9796TIP3   OH253582   4.036   3.569   8.039  0.6025 -0.0612  0.2268
 9796TIP3    H153583   4.034   3.584   7.944  2.5865  1.1399  0.3238
 9796TIP3    H253584   3.957   3.613   8.072 -0.0520 -0.4052 -0.8380
 9797TIP3   OH253585   0.977   6.348   2.542  0.5905  0.2357  0.4944
 9797TIP3    H153586   0.972   6.282   2.474  1.5955  0.9376 -0.2953
 9797TIP3    H253587   1.070   6.352   2.565  0.3894  0.6267  1.2931
 9798TIP3   OH253588   0.348   3.260   2.150  0.0342  0.0476  0.4665
 9798TIP3    H153589   0.416   3.193   2.143  1.4660  1.5421 -0.5379
 9798TIP3    H253590   0.306   3.260   2.064 -2.2793 -1.8013  1.4586
 9799TIP3   OH253591   4.719   0.561   2.106 -0.3221  0.3858  0.2358
 9799TIP3    H153592   4.660   0.605   2.167 -0.7859 -0.2566  0.2639
 9799TIP3    H253593   4.738   0.476   2.147  0.4313  0.4857  0.1131
 9800TIP3   OH253594   7.653   2.981   7.432 -0.1745 -0.3906 -0.0821
 9800TIP3    H153595   7.584   3.000   7.496  0.2156 -0.7986  0.4573
 9800TIP3    H253596   7.633   3.039   7.358 -1.5828 -1.0899 -0.2832
 9801TIP3   OH253597   3.697   5.161   7.911  0.6838 -0.0431 -0.1225
 9801TIP3    H153598   3.608   5.169   7.878  1.0922 -0.1441 -1.2686
 9801TIP3    H253599   3.701   5.074   7.951  0.2124  0.0520  0.1376
 9802TIP3   OH253600   4.401   5.520   0.013  0.0202  0.0889 -0.2606
 9802TIP3    H153601   4.346   5.598   0.023 -0.8797 -0.4327 -1.0836
 9802TIP3    H253602   4.487   5.555  -0.012 -0.4007  0.8092 -0.7320
 9803TIP3   OH253603   1.474   6.580   8.074 -0.1049  0.0177 -0.2465
 9803TIP3    H153604   1.546   6.597   8.134 -0.1084  1.6356 -0.6413
 9803TIP3    H253605   1.458   6.486   8.080  1.0409 -0.1175  0.9609
 9804TIP3   OH253606   7.359   2.770   7.889  0.6625  0.0774 -0.2447
 9804TIP3    H153607   7.402   2.807   7.966  0.1803  2.4560 -1.0176
 9804TIP3    H253608   7.265   2.785   7.905  0.2712 -2.3777  0.1069
 9805TIP3   OH253609   2.963   6.964   1.148  0.1828 -0.1673  0.7173
 9805TIP3    H153610   2.980   7.053   1.181  1.8359 -0.3235  0.3389
 9805TIP3    H253611   3.047   6.920   1.153 -0.1111 -1.0361 -1.2046
 9806TIP3   OH253612   1.564   0.459   0.140 -0.0557 -0.1321  0.0410
 9806TIP3    H153613   1.610   0.466   0.224  0.2511 -0.6946 -0.0717
 9806TIP3    H253614   1.487   0.406   0.160 -1.0237  1.3427  0.3659
 9807TIP3   OH253615   2.776   1.132   1.318  0.1852 -0.2015 -0.2825
 9807TIP3    H153616   2.739   1.098   1.237 -3.1578  0.6952  0.7400
 9807TIP3    H253617   2.806   1.055   1.366 -4.0185 -1.5777  0.4680
 9808TIP3   OH253618   0.153   2.574   3.280  0.3560 -0.4535 -0.4698
 9808TIP3    H153619   0.164   2.647   3.340 -0.0096 -1.4398  0.8308
 9808TIP3    H253620   0.241   2.554   3.250  0.3901  0.9467 -1.4019
 9809TIP3   OH253621   2.388   3.230   1.860 -0.1376  0.2874 -0.3066
 9809TIP3    H153622   2.407   3.140   1.835 -0.8634  0.2121 -0.6240
 9809TIP3    H253623   2.427   3.239   1.947 -1.7686 -0.9820  0.6200
 9810TIP3   OH253624   4.339   2.364   0.690 -0.0221 -0.4884 -0.0053
 9810TIP3    H153625   4.326   2.274   0.720  0.9009 -0.4581  0.5275
 9810TIP3    H253626   4.285   2.417   0.750 -0.3217 -0.6550 -0.1237
 9811TIP3   OH253627   1.873   1.676   2.244  0.1159 -0.1376 -0.4813
 9811TIP3    H153628   1.835   1.592   2.221  2.4423 -1.3490 -0.1973
 9811TIP3    H253629   1.963   1.656   2.270  0.2080  2.2057  1.4066
 9812TIP3   OH253630   1.618   6.575   8.540  0.1917  0.0083 -0.2039
 9812TIP3    H153631   1.600   6.483   8.518  0.2068 -0.1625  0.4796
 9812TIP3    H253632   1.613   6.578   8.635 -0.9424  0.9669 -0.2769
 9813TIP3   OH253633   6.977   0.918   0.017 -1.0888  0.5659  0.4389
 9813TIP3    H153634   6.897   0.950  -0.024 -0.8031 -0.6444 -1.1792
 9813TIP3    H253635   6.952   0.834   0.056 -0.4068 -0.3956 -1.0891
 9814TIP3   OH253636   7.204   6.429   9.551 -0.2274 -0.1720  0.1019
 9814TIP3    H153637   7.131   6.459   9.606 -0.0949 -0.2004  0.2912
 9814TIP3    H253638   7.213   6.498   9.485  0.6193  0.6335  1.0260
 9815TIP3   OH253639   1.584   7.667   9.971  0.2804 -0.6320 -0.2825
 9815TIP3    H153640   1.629   7.751   9.969  1.6298 -1.3407 -0.8393
 9815TIP3    H253641   1.491   7.690   9.969  0.5625  0.8774  1.3362
 9816TIP3   OH253642   2.809   6.244   7.325  0.0761 -0.1808  0.1658
 9816TIP3    H153643   2.789   6.265   7.233 -0.7015  0.4163  0.4629
 9816TIP3    H253644   2.743   6.291   7.375  0.5477 -0.4420  1.0457
 9817TIP3   OH253645   7.607   5.452   1.355 -0.5930  0.0858  0.1153
 9817TIP3    H153646   7.601   5.523   1.419  1.8259  0.3480  0.1528
 9817TIP3    H253647   7.554   5.481   1.281  1.3050  2.6411 -0.4040
 9818TIP3   OH253648   7.329   6.308   1.369 -1.2136  0.1299  0.2046
 9818TIP3    H153649   7.316   6.403   1.379  0.3533  0.1943  2.5172
 9818TIP3    H253650   7.412   6.301   1.321 -1.1692 -0.0697  0.3116
 9819TIP3   OH253651   3.509   0.509   1.436 -0.3010 -0.2832  0.5243
 9819TIP3    H153652   3.447   0.567   1.392 -0.2524 -0.5746  0.0636
 9819TIP3    H253653   3.456   0.435   1.465 -0.0001 -1.0993 -0.8955
 9820TIP3   OH253654   2.546   7.335   2.620  0.2534  0.1572 -0.1537
 9820TIP3    H153655   2.504   7.264   2.571 -1.6658  0.9265  0.2828
 9820TIP3    H253656   2.601   7.380   2.556 -0.0345 -0.5397 -0.9051
 9821TIP3   OH253657   5.822   3.230   0.186  0.0739  0.0355 -0.1201
 9821TIP3    H153658   5.849   3.149   0.228  1.1882  1.6553  2.6109
 9821TIP3    H253659   5.899   3.258   0.135  1.1915  1.2018  2.0694
 9822TIP3   OH253660   5.167   4.125   7.090  0.0799  0.1045  0.3160
 9822TIP3    H153661   5.173   4.030   7.083  1.8309  0.1496  0.8418
 9822TIP3    H253662   5.093   4.149   7.033  1.5089 -1.2785 -2.3095
 9823TIP3   OH253663   6.073   4.856   9.468 -0.2658 -0.2128 -1.0681
 9823TIP3    H153664   6.064   4.945   9.433 -0.6224 -0.0801 -0.6541
 9823TIP3    H253665   6.167   4.841   9.471 -0.1698  0.4558 -0.4165
 9824TIP3   OH253666   4.403   1.380   0.618  0.1676  0.3975  0.6993
 9824TIP3    H153667   4.379   1.328   0.694 -1.5960  1.2201  0.7617
 9824TIP3    H253668   4.325   1.377   0.562  0.8329  1.1638 -0.2993
 9825TIP3   OH253669   3.048   6.157   9.637 -0.4000 -0.1487 -0.4615
 9825TIP3    H153670   3.111   6.106   9.586 -0.9942 -1.2035 -0.1762
 9825TIP3    H253671   2.971   6.163   9.581 -0.9445 -1.0461  0.1645
 9826TIP3   OH253672   6.636   5.105   8.551  0.8000  0.1342  0.4419
 9826TIP3    H153673   6.667   5.033   8.496  0.5062 -1.2792  2.0694
 9826TIP3    H253674   6.553   5.073   8.587  0.0819  1.7629  0.3134
 9827TIP3   OH253675   4.605   2.648   7.661  0.3574  0.1363  0.3016
 9827TIP3    H153676   4.609   2.714   7.730 -0.1852  0.0279  0.4422
 9827TIP3    H253677   4.640   2.569   7.703 -1.3768 -0.3306  0.9486
 9828TIP3   OH253678   0.792   1.905   0.475  0.7045  0.1790 -0.3814
 9828TIP3    H153679   0.872   1.928   0.523  0.3148  2.2466 -0.6312
 9828TIP3    H253680   0.805   1.941   0.388  0.2361 -1.0936 -0.9962
 9829TIP3   OH253681   6.208   2.636   0.601 -0.5167  0.9682  0.5590
 9829TIP3    H153682   6.205   2.541   0.590 -1.1331  0.8768  1.3725
 9829TIP3    H253683   6.120   2.660   0.630 -0.3766  1.7919  0.3359
 9830TIP3   OH253684   4.113   1.734   7.943  0.7900  0.2664 -0.2039
 9830TIP3    H153685   4.104   1.639   7.954  0.2504  0.4239  0.7812
 9830TIP3    H253686   4.208   1.750   7.950  0.8122 -0.1076  0.3429
 9831TIP3   OH253687   7.656   4.601   1.212 -0.4619  0.6171  0.2753
 9831TIP3    H153688   7.623   4.690   1.199 -0.8284  0.0704 -3.9868
 9831TIP3    H253689   7.751   4.611   1.217 -0.4360  1.2281 -1.0816
 9832TIP3   OH253690   7.078   6.424   8.583 -0.4686  1.0589 -0.2030
 9832TIP3    H153691   6.994   6.462   8.560 -0.8353  0.7854  0.6378
 9832TIP3    H253692   7.142   6.473   8.532 -1.0358  2.0107 -0.0067
 9833TIP3   OH253693   4.905   6.579   8.450  0.9025 -0.0406 -0.2407
 9833TIP3    H153694   4.828   6.635   8.451  1.2680  0.4798 -0.5751
 9833TIP3    H253695   4.880   6.504   8.396  0.5738  0.0407 -0.2017
 9834TIP3   OH253696   0.201   0.337   1.098 -0.5075  0.2838 -0.3675
 9834TIP3    H153697   0.195   0.411   1.159 -3.0303 -1.4020  1.6072
 9834TIP3    H253698   0.118   0.341   1.049  0.3601  0.0664 -1.9174
 9835TIP3   OH253699   2.927   2.110   8.097 -0.4411  0.5117  0.7704
 9835TIP3    H153700   2.897   2.076   8.181 -2.0062  0.2866  0.1436
 9835TIP3    H253701   2.973   2.037   8.056 -2.0476 -0.2805  0.2937
 9836TIP3   OH253702   2.998   7.120   7.741 -0.3511  0.3800  0.3334
 9836TIP3    H153703   3.047   7.195   7.773  1.6444 -0.3407 -0.8640
 9836TIP3    H253704   3.064   7.063   7.701 -2.1263 -0.8183 -1.0614
 9837TIP3   OH253705   2.549   2.215   0.589  0.4642  0.6929 -0.1712
 9837TIP3    H153706   2.550   2.261   0.505  1.8184  1.9264  0.4860
 9837TIP3    H253707   2.573   2.282   0.653  0.5535 -0.4967  1.0746
 9838TIP3   OH253708   5.041   7.482   1.537  0.2273 -0.2142  0.2733
 9838TIP3    H153709   5.089   7.401   1.519 -1.5472 -1.1711 -0.4043
 9838TIP3    H253710   4.951   7.453   1.552 -0.2362  1.5480  1.1574
 9839TIP3   OH253711   4.123   0.404   2.574 -0.3334  0.4312  0.4160
 9839TIP3    H153712   4.118   0.403   2.670 -1.4367 -1.7859  0.3934
 9839TIP3    H253713   4.067   0.332   2.547  2.6206 -1.2441 -1.7862
 9840TIP3   OH253714   5.514   0.140   0.033  0.2180 -0.2212  0.1186
 9840TIP3    H153715   5.498   0.217   0.087 -2.7772 -1.8582  1.8394
 9840TIP3    H253716   5.604   0.114   0.053  0.0178  0.6837  2.4280
 9841TIP3   OH253717   6.123   2.444   2.381 -0.4837 -0.5298  0.1311
 9841TIP3    H153718   6.145   2.360   2.421 -0.0602 -0.5038 -0.0390
 9841TIP3    H253719   6.207   2.489   2.371 -0.5573 -0.6187 -0.9677
 9842TIP3   OH253720   2.642   0.874   7.767  0.1397  0.3914  0.9131
 9842TIP3    H153721   2.664   0.918   7.685 -0.8000  1.0438  1.0057
 9842TIP3    H253722   2.692   0.922   7.833  1.7473 -0.7951  0.6372
 9843TIP3   OH253723   6.996   3.582   0.749  0.2669 -0.4969 -0.4108
 9843TIP3    H153724   7.089   3.583   0.725 -0.1343 -1.0589 -2.1274
 9843TIP3    H253725   6.964   3.668   0.721 -0.0413 -0.8731 -1.2483
 9844TIP3   OH253726   0.369   1.078   9.378 -0.3313  0.4365 -0.5745
 9844TIP3    H153727   0.298   1.051   9.437 -0.8645  0.5011 -1.1697
 9844TIP3    H253728   0.333   1.151   9.329  0.0812  0.3456 -1.0219
 9845TIP3   OH253729   2.247   2.814   1.917 -0.5182  0.2602  0.7984
 9845TIP3    H153730   2.212   2.903   1.918 -1.7571 -0.1938 -0.0438
 9845TIP3    H253731   2.205   2.772   1.992 -2.6888 -0.5791 -0.7936
 9846TIP3   OH253732   0.878   7.578   0.451  0.1001 -0.3665  0.0138
 9846TIP3    H153733   0.901   7.486   0.441 -0.3853 -0.4211 -0.7394
 9846TIP3    H253734   0.904   7.600   0.540  1.3252 -0.9083 -0.1762
 9847TIP3   OH253735   6.317   6.819   2.544  0.6161 -0.3395 -0.1061
 9847TIP3    H153736   6.308   6.899   2.596 -0.5285 -0.8371  0.4779
 9847TIP3    H253737   6.249   6.761   2.576  1.4546 -1.5832 -0.4916
 9848TIP3   OH253738   6.418   0.888   8.392  0.4082 -0.0897 -0.0527
 9848TIP3    H153739   6.326   0.865   8.398  0.5081 -0.4610  0.0600
 9848TIP3    H253740   6.452   0.880   8.481  0.5526  0.0281 -0.0957
 9849TIP3   OH253741   4.079   4.978   8.347 -0.0038  0.2638  0.3535
 9849TIP3    H153742   4.145   4.913   8.374  0.4482  1.3206  1.9035
 9849TIP3    H253743   4.049   5.017   8.428 -0.5372  1.7678 -0.5322
 9850TIP3   OH253744   3.797   2.706   9.364 -0.3631  0.2743  0.2837
 9850TIP3    H153745   3.807   2.611   9.377  0.4806  0.3881  0.5206
 9850TIP3    H253746   3.768   2.714   9.273  1.3207 -0.1298 -0.3194
 9851TIP3   OH253747   1.177   4.366   0.728  0.3752 -0.0306 -0.1367
 9851TIP3    H153748   1.172   4.461   0.732 -1.3555 -0.1275  1.3251
 9851TIP3    H253749   1.207   4.339   0.815 -0.9828 -0.8707  0.1008
 9852TIP3   OH253750   6.158   1.568   7.437  0.0725 -0.2567  0.1287
 9852TIP3    H153751   6.164   1.568   7.532 -2.5617  0.2118  0.3812
 9852TIP3    H253752   6.172   1.477   7.412 -1.9006 -0.9258  1.2662
 9853TIP3   OH253753   4.108   3.258   7.965 -0.6691  0.4127 -0.2140
 9853TIP3    H153754   4.075   3.311   8.037 -0.8623  1.5363 -1.0976
 9853TIP3    H253755   4.202   3.276   7.963 -0.3591 -0.9631  0.8236
 9854TIP3   OH253756   2.130   2.689   2.415  0.1126 -0.5919 -0.4865
 9854TIP3    H153757   2.150   2.632   2.490 -2.0204 -0.5787  0.1492
 9854TIP3    H253758   2.142   2.778   2.448  0.9023 -0.6053 -0.7123
 9855TIP3   OH253759   3.100   1.766   1.891  0.4172 -0.1598  0.2279
 9855TIP3    H153760   3.068   1.705   1.824 -1.0462 -1.0278  1.6531
 9855TIP3    H253761   3.136   1.709   1.959  0.7226  0.6560  0.7552
 9856TIP3   OH253762   3.298   0.465   7.574 -0.0316 -0.2353  0.3291
 9856TIP3    H153763   3.217   0.428   7.608 -0.0976 -0.3256  0.0746
 9856TIP3    H253764   3.273   0.550   7.539  0.1925  0.2280  1.2698
 9857TIP3   OH253765   0.266   6.006   8.911 -0.3597 -0.3027 -0.3393
 9857TIP3    H153766   0.290   5.920   8.876  1.5084  0.7100 -1.7336
 9857TIP3    H253767   0.294   6.068   8.843 -0.8653  1.4732  0.9958
 9858TIP3   OH253768   5.754   5.346   8.381 -0.3551  0.3294 -0.1847
 9858TIP3    H153769   5.735   5.439   8.364  0.2075  0.4646 -0.0962
 9858TIP3    H253770   5.842   5.333   8.346 -0.5395 -0.2427 -0.4323
 9859TIP3   OH253771   0.020   5.183   1.556  0.0146  0.2234  0.4115
 9859TIP3    H153772   0.042   5.205   1.466  0.5557 -2.1035 -0.0837
 9859TIP3    H253773  -0.050   5.118   1.549 -0.9474  1.0422  1.7438
 9860TIP3   OH253774   7.001   3.921   8.384 -0.3842  0.3553 -0.3624
 9860TIP3    H153775   7.002   3.855   8.314 -1.4852 -1.0844  0.9131
 9860TIP3    H253776   6.934   3.983   8.358  0.7335  1.0962 -1.6302
 9861TIP3   OH253777   5.151   5.583   9.416 -0.2893  0.4930 -0.5204
 9861TIP3    H153778   5.169   5.514   9.480 -1.9152 -0.0345 -0.5949
 9861TIP3    H253779   5.193   5.661   9.453  0.6003 -0.2603  0.1199
 9862TIP3   OH253780   1.771   5.937   1.336  0.3317 -0.3459  0.4335
 9862TIP3    H153781   1.762   5.954   1.242 -0.0831  0.3000  0.5844
 9862TIP3    H253782   1.681   5.918   1.364  0.7192 -2.6087  0.3212
 9863TIP3   OH253783   0.618   3.205   7.389  0.5527 -1.3829  0.1489
 9863TIP3    H153784   0.685   3.185   7.323  0.3627 -1.8319  0.0938
 9863TIP3    H253785   0.664   3.260   7.453 -0.0470  1.9665 -2.0255
 9864TIP3   OH253786   0.481   1.277   7.683  0.1468  0.1740 -0.0336
 9864TIP3    H153787   0.522   1.204   7.636  0.0731  1.7743 -2.7847
 9864TIP3    H253788   0.438   1.329   7.615 -2.1694  1.3283  2.1493
 9865TIP3   OH253789   5.144   6.090   8.105 -0.4141 -0.0677 -0.2946
 9865TIP3    H153790   5.079   6.087   8.035  1.4147  1.4461 -2.1804
 9865TIP3    H253791   5.226   6.062   8.064  0.4224 -0.7737  1.6931
 9866TIP3   OH253792   1.506   3.604   8.771  0.3286 -0.3460  0.1648
 9866TIP3    H153793   1.586   3.643   8.737  0.5189 -1.2557 -0.4527
 9866TIP3    H253794   1.535   3.550   8.845  0.2059 -0.2240  0.3044
 9867TIP3   OH253795   0.427   6.236   9.343  0.2594 -0.3528  0.4498
 9867TIP3    H153796   0.517   6.245   9.377 -0.0678  1.9406  0.9228
 9867TIP3    H253797   0.435   6.250   9.249  0.3773  0.1736  0.5351
 9868TIP3   OH253798   0.513   6.485   2.356 -0.2026  0.2840  0.3360
 9868TIP3    H153799   0.441   6.534   2.396 -1.1454 -1.6169  1.0497
 9868TIP3    H253800   0.560   6.447   2.431  0.6056  0.1997 -0.2047
 9869TIP3   OH253801   7.499   6.561   6.862  0.1956  0.1941  0.1606
 9869TIP3    H153802   7.423   6.507   6.840  0.6710 -1.1291  1.5716
 9869TIP3    H253803   7.572   6.499   6.867  0.9394  1.1006  0.9782
 9870TIP3   OH253804   5.998   2.256   7.827  0.1391  0.3195 -0.1456
 9870TIP3    H153805   5.965   2.263   7.737 -1.1426 -0.7153  0.2163
 9870TIP3    H253806   6.001   2.346   7.859 -2.6081  0.4994 -0.1415
 9871TIP3   OH253807   5.545   0.766   6.992  0.0185  0.4390 -0.4555
 9871TIP3    H153808   5.474   0.780   6.930 -0.2566 -1.9687 -0.7764
 9871TIP3    H253809   5.613   0.723   6.941 -0.5736 -2.4578  0.9663
 9872TIP3   OH253810   3.965   2.239   8.050  0.1239  0.1286  0.1384
 9872TIP3    H153811   3.930   2.237   8.139  2.3211 -1.0765  1.0492
 9872TIP3    H253812   3.971   2.147   8.024 -0.0583  0.4456 -1.0970
 9873TIP3   OH253813   4.468   1.719   2.515 -0.0680  0.0427  0.1774
 9873TIP3    H153814   4.487   1.738   2.423  1.3665 -2.0991 -0.0582
 9873TIP3    H253815   4.384   1.762   2.532  0.3739  1.7659 -1.6729
 9874TIP3   OH253816   3.625   4.351   8.442 -0.1897 -1.0738  0.2397
 9874TIP3    H153817   3.539   4.392   8.431  1.2637  2.1006 -0.5544
 9874TIP3    H253818   3.648   4.320   8.355  1.5137  2.8925 -0.9522
 9875TIP3   OH253819   2.950   5.886   9.777 -0.3097 -0.2323 -0.5511
 9875TIP3    H153820   2.913   5.930   9.700  0.1155 -1.3377 -1.4172
 9875TIP3    H253821   3.020   5.831   9.741  1.6659  1.1667  0.9331
 9876TIP3   OH253822   7.544   5.919   9.197 -0.0457 -0.4979 -0.0529
 9876TIP3    H153823   7.620   5.951   9.149 -0.5886  0.8876 -0.0238
 9876TIP3    H253824   7.541   5.971   9.277 -0.2409 -1.4971  0.6215
 9877TIP3   OH253825   2.352   3.030   9.783 -0.2625 -0.1944  0.7212
 9877TIP3    H153826   2.390   2.982   9.710  1.0001  0.2148  1.0880
 9877TIP3    H253827   2.284   2.971   9.818  0.2910 -1.1038  0.2876
 9878TIP3   OH253828   7.572   4.503   0.210  0.1383 -0.1785 -0.4651
 9878TIP3    H153829   7.524   4.559   0.149 -0.3469  0.5584  0.5764
 9878TIP3    H253830   7.525   4.511   0.293  2.5363  1.2734  0.8432
 9879TIP3   OH253831   2.525   0.979   2.951 -0.5284  0.1433 -0.0643
 9879TIP3    H153832   2.437   1.000   2.983 -0.4086  1.2016 -0.3971
 9879TIP3    H253833   2.554   1.059   2.907  0.6564 -0.1477  0.1646
 9880TIP3   OH253834   2.068   0.805   1.650 -0.1338 -0.1322  0.5036
 9880TIP3    H153835   2.124   0.879   1.624 -0.4988 -0.8353 -2.6572
 9880TIP3    H253836   2.128   0.731   1.657 -0.1271 -0.0714  1.1256
 9881TIP3   OH253837   0.999   4.857   9.887  0.0515 -0.3144 -0.0671
 9881TIP3    H153838   0.914   4.855   9.842 -0.5190 -0.6913  0.9906
 9881TIP3    H253839   0.976   4.856   9.980  1.2248 -0.4232  0.2274
 9882TIP3   OH253840   6.387   2.517   1.303  0.6990 -0.0332 -0.4949
 9882TIP3    H153841   6.419   2.582   1.365  0.7633  0.3958 -0.9797
 9882TIP3    H253842   6.454   2.512   1.235 -0.0838  0.6289 -1.3382
 9883TIP3   OH253843   0.347   5.019   0.611 -0.0067  0.3386 -0.0478
 9883TIP3    H153844   0.282   5.075   0.569  0.6179  2.1126  1.2001
 9883TIP3    H253845   0.349   5.050   0.702  0.1883 -1.9318  0.7698
 9884TIP3   OH253846   7.579   7.191   7.539 -0.3665 -0.3405  0.1642
 9884TIP3    H153847   7.541   7.200   7.452  0.4270 -2.0590 -0.4032
 9884TIP3    H253848   7.623   7.275   7.554 -1.0602  0.2193 -0.8083
 9885TIP3   OH253849   1.907   5.772   2.132  0.4996  0.1759  0.1484
 9885TIP3    H153850   1.962   5.721   2.192 -1.5133 -0.2229  1.7665
 9885TIP3    H253851   1.924   5.863   2.156 -2.2400  0.0102  3.3834
 9886TIP3   OH253852   4.954   1.617   8.471 -0.0165 -0.3054 -0.0301
 9886TIP3    H153853   4.957   1.625   8.567 -1.0031  0.2169 -0.0211
 9886TIP3    H253854   5.025   1.557   8.449  0.1283 -0.5507  1.0473
 9887TIP3   OH253855   1.394   6.241   1.948  0.2380  0.5610 -0.2308
 9887TIP3    H153856   1.453   6.183   1.995  1.1156  0.7953 -1.0121
 9887TIP3    H253857   1.330   6.268   2.013  0.1494 -0.8209  0.2846
 9888TIP3   OH253858   1.009   3.130   3.000 -0.2603 -0.1873 -0.1291
 9888TIP3    H153859   0.961   3.207   2.968 -1.5721 -0.9849 -0.1535
 9888TIP3    H253860   0.980   3.120   3.091 -0.3678 -0.8622 -0.2360
 9889TIP3   OH253861   0.624   6.584   2.825  0.0054 -0.2780  0.0084
 9889TIP3    H153862   0.641   6.503   2.776 -0.0326 -0.8810  0.9675
 9889TIP3    H253863   0.529   6.586   2.836  0.2224 -2.0647  3.1573
 9890TIP3   OH253864   7.152   2.052   2.958 -0.2238 -0.1007  0.0345
 9890TIP3    H153865   7.244   2.058   2.934 -0.2265  0.2218  0.1071
 9890TIP3    H253866   7.111   2.127   2.915 -0.0209  1.2274  2.0517
 9891TIP3   OH253867   1.271   1.090   2.241  0.6628 -0.2956 -0.3090
 9891TIP3    H153868   1.227   1.063   2.161  1.3980  0.6190 -1.0488
 9891TIP3    H253869   1.245   1.025   2.306 -3.5033  1.3333 -0.0976
 9892TIP3   OH253870   0.463   2.466   8.067 -0.8858 -0.6842  0.6305
 9892TIP3    H153871   0.523   2.405   8.026 -1.5988 -1.2218  0.3673
 9892TIP3    H253872   0.460   2.440   8.159  0.9266  0.6928  1.1389
 9893TIP3   OH253873   6.589   1.929   0.406  0.3589  0.1033  0.5412
 9893TIP3    H153874   6.581   1.935   0.311  0.9478  2.9605  0.5935
 9893TIP3    H253875   6.500   1.916   0.437  0.1313 -0.6111 -0.3787
 9894TIP3   OH253876   3.699   1.017   7.285  0.0464 -0.0819  0.1972
 9894TIP3    H153877   3.748   0.935   7.275  0.6416  0.2199  0.5730
 9894TIP3    H253878   3.657   1.030   7.200  2.1740  0.6288 -0.8113
 9895TIP3   OH253879   0.848   0.540   3.314 -0.1890 -0.4838  0.5887
 9895TIP3    H153880   0.826   0.577   3.399  0.4257  0.1435  0.4831
 9895TIP3    H253881   0.800   0.593   3.251  0.3891 -0.1069  0.4611
 9896TIP3   OH253882   2.827   1.210   0.833  0.6552 -0.5777 -0.2861
 9896TIP3    H153883   2.826   1.121   0.796  0.9236 -1.1464  1.0152
 9896TIP3    H253884   2.866   1.199   0.920  1.9606  1.0319 -0.6266
 9897TIP3   OH253885   2.007   2.722   8.472 -0.0093 -0.3456 -0.1873
 9897TIP3    H153886   1.961   2.675   8.403 -2.8625  1.0692  0.6134
 9897TIP3    H253887   1.953   2.710   8.550  2.0955 -0.2893  1.3567
 9898TIP3   OH253888   0.270   6.874   2.459  0.5276  0.7186 -0.6100
 9898TIP3    H153889   0.334   6.920   2.403 -0.6167  2.9771 -0.1721
 9898TIP3    H253890   0.228   6.943   2.509 -1.5194 -0.8169 -0.0765
 9899TIP3   OH253891   4.000   7.459   8.674 -0.3082 -0.2229  0.6810
 9899TIP3    H153892   3.980   7.393   8.608  1.2046  1.9239 -2.1497
 9899TIP3    H253893   4.096   7.457   8.682 -0.0633  2.2571 -0.4016
 9900TIP3   OH253894   2.605   2.867   0.282  0.2054 -0.1153 -0.5707
 9900TIP3    H153895   2.690   2.845   0.244  0.2864 -1.3849  0.2854
 9900TIP3    H253896   2.616   2.852   0.376 -0.7265  0.5340 -0.3414
 9901TIP3   OH253897   7.657   1.210   0.791  0.7783  0.3018 -0.1182
 9901TIP3    H153898   7.732   1.252   0.832  1.5108 -0.0614 -1.0470
 9901TIP3    H253899   7.625   1.275   0.728  0.6879  0.2255 -0.1518
 9902TIP3   OH253900   1.464   7.228   9.648 -0.6906  1.2665  0.4061
 9902TIP3    H153901   1.435   7.246   9.559  0.2905 -0.9350 -0.4418
 9902TIP3    H253902   1.387   7.244   9.702 -1.4355  2.2041 -0.8939
 9903TIP3   OH253903   5.695   6.444   8.784 -0.3668 -0.2303  0.2132
 9903TIP3    H153904   5.790   6.450   8.785 -0.4167  1.6386  1.9954
 9903TIP3    H253905   5.673   6.413   8.872 -1.4000 -1.3989 -0.4295
 9904TIP3   OH253906   2.640   0.951   1.823 -0.0443 -0.7584 -0.0410
 9904TIP3    H153907   2.698   1.027   1.827  2.0795 -2.3502  1.5041
 9904TIP3    H253908   2.592   0.963   1.741  2.8473  0.4251 -1.7401
 9905TIP3   OH253909   2.964   0.757   7.104 -0.0160 -0.0569  0.5030
 9905TIP3    H153910   2.889   0.701   7.122  0.5374 -0.9696  0.0433
 9905TIP3    H253911   2.990   0.735   7.014  0.5585  0.5335  0.5092
 9906TIP3   OH253912   4.390   7.139   2.169 -0.0214 -0.5154 -0.1261
 9906TIP3    H153913   4.383   7.062   2.112  2.0976 -0.7775 -0.1236
 9906TIP3    H253914   4.443   7.201   2.118 -0.3382  0.2935  0.5139
 9907TIP3   OH253915   1.139   1.680   2.364  0.6313 -0.9542  0.4118
 9907TIP3    H153916   1.059   1.704   2.410 -0.3679 -0.2248 -1.6188
 9907TIP3    H253917   1.205   1.671   2.434 -0.6826  0.5491  1.9242
 9908TIP3   OH253918   7.378   3.939   8.860  0.0144  0.0425  0.1441
 9908TIP3    H153919   7.461   3.928   8.907  1.0693 -1.5613 -1.9190
 9908TIP3    H253920   7.401   3.987   8.781 -0.8549 -1.0280 -0.7950
 9909TIP3   OH253921   7.071   5.745   3.152 -0.2532  0.2407  0.1364
 9909TIP3    H153922   7.048   5.801   3.078 -1.6816 -0.0901  0.2953
 9909TIP3    H253923   6.993   5.692   3.167  0.0170  0.2474  1.8270
 9910TIP3   OH253924   5.461   1.899   2.664  0.0132 -0.0145 -0.0057
 9910TIP3    H153925   5.506   1.881   2.746 -0.8110 -0.6412  0.3174
 9910TIP3    H253926   5.465   1.817   2.615  1.3666  0.6277 -1.0402
 9911TIP3   OH253927   5.491   7.235   2.725 -0.1611 -0.3507  0.0468
 9911TIP3    H153928   5.457   7.183   2.798  1.2119 -0.2978  0.7554
 9911TIP3    H253929   5.564   7.284   2.762 -0.3062  0.7368 -1.0466
 9912TIP3   OH253930   5.395   6.170   8.301 -0.2276  0.3662  0.1818
 9912TIP3    H153931   5.383   6.141   8.211  0.6574  1.4569 -0.3012
 9912TIP3    H253932   5.377   6.091   8.353 -0.2736 -0.4108 -0.9632
 9913TIP3   OH253933   7.565   0.229   1.866 -0.0736  0.3659  0.4973
 9913TIP3    H153934   7.635   0.294   1.869  1.6608 -1.4489  1.4415
 9913TIP3    H253935   7.522   0.235   1.952 -0.9910  1.3310 -0.0045
 9914TIP3   OH253936   4.839   2.443   8.919 -0.1876 -0.1970 -0.0835
 9914TIP3    H153937   4.773   2.377   8.941 -0.2656  0.4330  1.7180
 9914TIP3    H253938   4.878   2.467   9.003 -0.6238  2.5365 -0.5531
 9915TIP3   OH253939   3.105   7.281   6.745  0.4134 -0.0150 -0.2906
 9915TIP3    H153940   3.123   7.202   6.693  0.7974 -0.9991  1.2578
 9915TIP3    H253941   3.041   7.252   6.809  2.7525  0.0374  2.2416
 9916TIP3   OH253942   5.690   3.323   8.556 -0.4419  0.4982 -0.2476
 9916TIP3    H153943   5.723   3.383   8.623 -2.5279  1.4191  0.0407
 9916TIP3    H253944   5.709   3.236   8.590  1.2919  0.9474  0.0424
 9917TIP3   OH253945   6.260   2.983   9.587  0.0094 -0.0086  0.4001
 9917TIP3    H153946   6.311   3.038   9.646  0.3208  1.8979 -1.5499
 9917TIP3    H253947   6.175   3.025   9.583 -0.0032 -0.1123 -0.5051
 9918TIP3   OH253948   1.774   1.592   6.926  0.2795 -0.2327  0.2320
 9918TIP3    H153949   1.756   1.515   6.979 -0.1510  1.2339  2.3409
 9918TIP3    H253950   1.747   1.568   6.838  0.8059 -2.6924  0.6908
 9919TIP3   OH253951   0.927   5.809   0.968 -0.6745 -0.4431 -0.3678
 9919TIP3    H153952   0.843   5.854   0.960 -1.4367 -1.6756  0.3694
 9919TIP3    H253953   0.905   5.716   0.964  0.6889 -0.7835 -0.4006
 9920TIP3   OH253954   0.681   6.778   2.615 -0.0602  0.0415  0.1836
 9920TIP3    H153955   0.678   6.725   2.694 -0.9904 -0.5116 -0.2113
 9920TIP3    H253956   0.705   6.716   2.546  0.2847  0.4267 -0.0455
 9921TIP3   OH253957   6.756   1.900   0.084 -0.2967  0.2094 -0.6218
 9921TIP3    H153958   6.713   1.821   0.117  0.3347  0.1750  0.1621
 9921TIP3    H253959   6.684   1.959   0.064 -0.7476  0.4238  1.3596
 9922TIP3   OH253960   4.201   0.696   6.902  0.5575  0.4452  0.0462
 9922TIP3    H153961   4.146   0.617   6.902 -0.1350  0.8725 -1.9637
 9922TIP3    H253962   4.289   0.663   6.884 -0.0262  0.2046 -2.9054
 9923TIP3   OH253963   4.830   3.367   0.054  0.2631  0.0465  0.5770
 9923TIP3    H153964   4.880   3.304   0.106 -1.1967 -0.5240  1.3436
 9923TIP3    H253965   4.760   3.397   0.112 -0.6913  0.3139 -0.6576
 9924TIP3   OH253966   1.051   0.200   8.700  0.2431 -0.4246  0.0044
 9924TIP3    H153967   1.040   0.272   8.762  0.3807  0.0416 -0.5140
 9924TIP3    H253968   0.975   0.205   8.642  1.6127  1.0527 -1.7891
 9925TIP3   OH253969   0.760   3.031   8.048  0.5192  0.6720 -0.4333
 9925TIP3    H153970   0.665   3.025   8.037  0.3678  0.9838  0.5882
 9925TIP3    H253971   0.771   3.070   8.135  1.5788  1.0283 -0.7156
 9926TIP3   OH253972   6.963   1.670   8.590  0.6960  0.1350  0.1131
 9926TIP3    H153973   6.965   1.723   8.510 -0.3752  2.0671  1.2544
 9926TIP3    H253974   6.871   1.646   8.600  0.4638  1.4739  1.6510
 9927TIP3   OH253975   5.126   2.263   2.584  0.3122  0.2938  0.7729
 9927TIP3    H153976   5.153   2.353   2.603 -0.7455  0.9693 -0.7761
 9927TIP3    H253977   5.208   2.215   2.573  1.0123  1.9197 -2.1659
 9928TIP3   OH253978   1.675   1.134   9.568 -0.4997 -0.0016  0.3334
 9928TIP3    H153979   1.588   1.093   9.570 -2.0795  3.0446  0.4763
 9928TIP3    H253980   1.684   1.166   9.479  0.6255 -0.4927  0.2600
 9929TIP3   OH253981   6.820   2.670   7.948 -0.6594 -0.4640  0.0860
 9929TIP3    H153982   6.816   2.600   7.883 -2.7861  0.6394 -1.0940
 9929TIP3    H253983   6.801   2.626   8.032  1.0416 -1.7298 -0.1559
 9930TIP3   OH253984   3.551   5.954   9.244  0.8623 -0.2489  0.1546
 9930TIP3    H153985   3.604   6.033   9.240  0.8845 -0.2702  0.0144
 9930TIP3    H253986   3.608   5.885   9.209  0.7198 -0.2586 -0.0638
 9931TIP3   OH253987   7.331   4.238   0.578  0.3337  0.1083  0.2624
 9931TIP3    H153988   7.290   4.201   0.657 -0.4192  0.8357  0.2226
 9931TIP3    H253989   7.401   4.294   0.611  0.1285  0.2805  0.4039
 9932TIP3   OH253990   6.479   0.369   0.242  0.1741  0.2549  0.2089
 9932TIP3    H153991   6.476   0.464   0.254  0.4993  0.1686  1.0095
 9932TIP3    H253992   6.432   0.334   0.317 -3.2659 -0.1314 -1.9468
 9933TIP3   OH253993   2.414   2.742   1.404  0.0870 -0.2595  0.3995
 9933TIP3    H153994   2.384   2.727   1.493  0.7624  0.7300  0.8124
 9933TIP3    H253995   2.353   2.807   1.369 -0.9472 -1.5675 -0.3160
 9934TIP3   OH253996   7.229   4.499   8.186  0.0519 -0.4325  0.4362
 9934TIP3    H153997   7.137   4.525   8.171 -0.3124 -0.8253  1.8776
 9934TIP3    H253998   7.226   4.404   8.195  0.6550 -0.4758  0.2385
 9935TIP3   OH253999   1.367   0.363   7.429 -0.5974 -0.0065 -0.5038
 9935TIP3    H154000   1.391   0.407   7.347  1.8026  1.2298  0.7371
 9935TIP3    H254001   1.346   0.434   7.489  2.1248 -0.4612  1.1849
 9936TIP3   OH254002   6.875   7.282   1.895 -0.2567  0.1124  0.3248
 9936TIP3    H154003   6.868   7.353   1.831 -0.3708  0.1250  0.3507
 9936TIP3    H254004   6.939   7.222   1.858  0.6171  0.7291  0.7725
 9937TIP3   OH254005   3.334   4.747   0.819  0.8752  0.0413 -1.3068
 9937TIP3    H154006   3.296   4.688   0.884  0.1788 -0.3879 -2.0910
 9937TIP3    H254007   3.420   4.771   0.856  0.0617  0.6703  0.2848
 9938TIP3   OH254008   2.814   3.727   2.226  0.5251 -0.2020 -0.0801
 9938TIP3    H154009   2.756   3.779   2.282  2.5176  1.5715  0.4717
 9938TIP3    H254010   2.834   3.786   2.153 -0.0748 -1.5965 -1.4325
 9939TIP3   OH254011   1.403   4.596   7.755  0.7352  0.7482 -0.6883
 9939TIP3    H154012   1.380   4.624   7.844  2.8592  1.3510 -0.2639
 9939TIP3    H254013   1.406   4.677   7.704 -1.0421  0.3451 -1.4954
 9940TIP3   OH254014   2.998   0.626   3.279 -0.0291  0.0141 -0.3836
 9940TIP3    H154015   3.064   0.687   3.312  1.3023 -1.3929 -0.3311
 9940TIP3    H254016   2.927   0.632   3.342  0.4681  0.8366  0.1200
 9941TIP3   OH254017   0.350   7.286   9.134  0.5779 -0.3301 -0.0539
 9941TIP3    H154018   0.268   7.253   9.096 -0.0268  1.2726 -0.2481
 9941TIP3    H254019   0.344   7.381   9.122  1.3089  0.0485  2.2217
 9942TIP3   OH254020   5.005   5.663   8.751 -0.6029  0.7642 -0.2555
 9942TIP3    H154021   5.091   5.639   8.787 -0.8937  1.9743  1.3555
 9942TIP3    H254022   5.023   5.740   8.696 -0.5556  0.5371 -0.5630
 9943TIP3   OH254023   2.722   4.550   8.127 -0.2624  0.1240  0.1919
 9943TIP3    H154024   2.652   4.509   8.077 -1.8182  2.0888  0.6139
 9943TIP3    H254025   2.730   4.638   8.090 -0.2063  1.0155  2.1649
 9944TIP3   OH254026   7.108   2.175   8.217 -0.4210 -0.2101  0.4801
 9944TIP3    H154027   7.124   2.123   8.138 -1.0962 -2.2303  1.5828
 9944TIP3    H254028   7.187   2.164   8.270 -0.4390  0.1448  0.5795
 9945TIP3   OH254029   1.000   4.854   1.185  1.0094 -0.0224  0.3416
 9945TIP3    H154030   0.968   4.943   1.199 -0.0325 -0.4867  1.1407
 9945TIP3    H254031   1.061   4.839   1.257 -0.4286 -0.6494  1.4804
 9946TIP3   OH254032   3.688   7.622   8.740 -0.1643 -0.1109  0.1037
 9946TIP3    H154033   3.697   7.593   8.650  0.6145 -1.3836  0.5638
 9946TIP3    H254034   3.697   7.718   8.736  1.0926 -0.2442 -1.0293
 9947TIP3   OH254035   3.614   1.416   0.364 -0.0366 -0.1100  0.2761
 9947TIP3    H154036   3.607   1.370   0.280 -0.0998 -1.1582  0.8319
 9947TIP3    H254037   3.589   1.506   0.344 -1.3870 -0.6385 -0.5714
 9948TIP3   OH254038   4.141   7.652   1.445 -0.1569  0.3246 -0.2257
 9948TIP3    H154039   4.071   7.635   1.507  0.4676  1.7404  0.9302
 9948TIP3    H254040   4.102   7.635   1.359 -1.2332 -1.0325  0.4830
 9949TIP3   OH254041   3.979   3.276   0.655  0.0762 -0.1752 -0.3067
 9949TIP3    H154042   3.888   3.297   0.676  0.7823  1.3598  1.4654
 9949TIP3    H254043   3.996   3.195   0.703  0.0613  0.3523  0.6102
 9950TIP3   OH254044   2.019   7.276   1.941  1.0325  0.1095  0.1993
 9950TIP3    H154045   2.049   7.191   1.909 -2.9386 -1.3118 -0.1797
 9950TIP3    H254046   2.014   7.331   1.863 -1.2046 -0.9513 -0.4625
 9951TIP3   OH254047   6.207   2.491   0.955  0.0918  0.3755  0.2403
 9951TIP3    H154048   6.246   2.404   0.940  0.4338  0.5113  0.3310
 9951TIP3    H254049   6.142   2.500   0.886  0.4483  0.2796 -0.1130
 9952TIP3   OH254050   7.498   7.001   2.882  0.6286  0.0605 -0.4621
 9952TIP3    H154051   7.516   7.094   2.873 -0.9358  0.4607  0.2500
 9952TIP3    H254052   7.534   6.978   2.968  0.0369  0.2639 -0.1590
 9953TIP3   OH254053   1.666   5.716   7.449  0.5029 -0.1483  0.2337
 9953TIP3    H154054   1.628   5.745   7.366  0.7105 -0.7454 -0.0765
 9953TIP3    H254055   1.667   5.621   7.443  3.5507 -0.1691 -0.4844
 9954TIP3   OH254056   2.159   7.580   2.841 -0.7264  0.5850  0.6591
 9954TIP3    H154057   2.097   7.508   2.856 -1.2055  1.3548  2.6708
 9954TIP3    H254058   2.127   7.651   2.897  0.1683  2.1287 -0.7026
 9955TIP3   OH254059   6.341   6.631   2.329 -0.6218 -0.6494  0.1406
 9955TIP3    H154060   6.379   6.569   2.390 -1.6657 -2.7692 -1.2307
 9955TIP3    H254061   6.333   6.713   2.378  1.6009 -1.3280  1.7480
 9956TIP3   OH254062   6.606   7.522   0.263 -0.0090  0.6240 -0.2101
 9956TIP3    H154063   6.511   7.525   0.269 -0.0668  0.7328 -1.1343
 9956TIP3    H254064   6.624   7.476   0.182  0.7394 -0.0830  0.3436
 9957TIP3   OH254065   6.928   2.772   9.827 -0.5736  0.0449  0.9744
 9957TIP3    H154066   6.975   2.855   9.838  1.4136 -0.7886 -0.5848
 9957TIP3    H254067   6.853   2.794   9.773  0.9783  0.5918 -1.0881
 9958TIP3   OH254068   2.506   0.318   1.951 -0.2514  0.4653  0.6844
 9958TIP3    H154069   2.554   0.265   1.886 -1.2451 -0.0645  0.3684
 9958TIP3    H254070   2.503   0.406   1.913 -0.8929  0.1414 -0.0340
 9959TIP3   OH254071   5.080   3.498   6.936 -0.1970 -0.0489 -0.3488
 9959TIP3    H154072   5.110   3.408   6.944  0.4845  0.0837 -1.1723
 9959TIP3    H254073   4.986   3.491   6.920  0.0765 -0.7209 -1.9329
 9960TIP3   OH254074   7.152   1.568   2.434  0.7672 -0.3082  0.0865
 9960TIP3    H154075   7.104   1.649   2.453 -0.0124 -0.9742  1.0720
 9960TIP3    H254076   7.227   1.571   2.494  2.2555  0.9057 -1.7010
 9961TIP3   OH254077   3.192   7.335   8.767  0.4417 -0.1172  0.2737
 9961TIP3    H154078   3.271   7.383   8.792  0.7495 -0.5462  0.1537
 9961TIP3    H254079   3.120   7.383   8.807  0.7990  0.0765  0.6910
 9962TIP3   OH254080   4.930   1.322   1.804  0.0437  0.2146  0.0713
 9962TIP3    H154081   5.006   1.309   1.747 -0.7120 -2.2200 -0.5280
 9962TIP3    H254082   4.855   1.323   1.744 -0.5434  0.6660  0.7924
 9963TIP3   OH254083   3.257   0.395   1.913 -0.5991 -0.8235 -0.5075
 9963TIP3    H154084   3.258   0.475   1.964 -0.0456 -1.8782  1.2322
 9963TIP3    H254085   3.349   0.376   1.895 -0.6756 -1.3742 -0.3595
 9964TIP3   OH254086   0.752   6.494   8.330  0.0406 -0.4458  0.3163
 9964TIP3    H154087   0.726   6.402   8.343 -0.7191 -0.2993 -0.0649
 9964TIP3    H254088   0.830   6.489   8.275 -0.9383 -0.8452 -1.1146
 9965TIP3   OH254089   7.396   0.312   0.947 -0.3478  0.1930 -0.5443
 9965TIP3    H154090   7.314   0.290   0.993 -0.7951  0.5609 -1.1461
 9965TIP3    H254091   7.397   0.254   0.871  1.3439 -1.7812  0.8975
 9966TIP3   OH254092   7.089   4.611   0.270  0.1571  0.2076 -0.1546
 9966TIP3    H154093   7.104   4.539   0.332  3.3894  0.7467 -0.1191
 9966TIP3    H254094   7.127   4.580   0.188 -1.0013  0.8139 -0.9406
 9967TIP3   OH254095   1.335   6.795   1.971  0.3384  0.1655  0.1341
 9967TIP3    H154096   1.420   6.806   1.928  0.7366 -0.6538  0.6944
 9967TIP3    H254097   1.310   6.704   1.952  0.3123 -0.0739  1.2379
 9968TIP3   OH254098   0.215   3.977   9.619 -0.1487 -0.2523 -0.3256
 9968TIP3    H154099   0.309   3.974   9.603 -0.2969 -0.9935 -1.1889
 9968TIP3    H254100   0.189   4.066   9.596 -0.1481 -0.9211 -3.3722
 9969TIP3   OH254101   0.994   0.243   2.291 -0.0207  0.2519 -0.5768
 9969TIP3    H154102   0.912   0.291   2.301  0.0796  0.4120 -0.5222
 9969TIP3    H254103   0.995   0.182   2.365  0.2750  0.7890 -0.1244
 9970TIP3   OH254104   0.064   2.645   3.050 -0.3398 -0.2782  0.2270
 9970TIP3    H154105   0.099   2.617   3.135 -0.6894  3.3828  1.7945
 9970TIP3    H254106  -0.017   2.597   3.039 -0.4720 -0.5715  2.2034
 9971TIP3   OH254107   6.348   5.031   8.727  0.6733  0.8631  0.2051
 9971TIP3    H154108   6.300   5.103   8.685 -1.0666 -1.2200 -1.5975
 9971TIP3    H254109   6.281   4.983   8.776  1.6638  0.0575  0.8074
 9972TIP3   OH254110   2.541   5.938   9.131  0.1103  0.0293 -0.1471
 9972TIP3    H154111   2.541   5.931   9.036 -1.4745 -1.2862 -0.0869
 9972TIP3    H254112   2.477   5.874   9.160  0.2047  0.7471  1.7976
 9973TIP3   OH254113   4.307   1.432   9.324 -0.0909  0.2143  0.1888
 9973TIP3    H154114   4.367   1.358   9.336  0.1613  0.6855  2.0475
 9973TIP3    H254115   4.362   1.509   9.331 -0.6053  0.6167 -0.1160
 9974TIP3   OH254116   7.493   3.131   1.362  0.4609  0.3234 -0.0956
 9974TIP3    H154117   7.585   3.116   1.382 -0.1714 -2.0642  1.3980
 9974TIP3    H254118   7.483   3.102   1.271  0.6338 -2.5604  0.7077
 9975TIP3   OH254119   0.058   4.095   7.404 -0.0059  0.0945 -0.1764
 9975TIP3    H154120   0.147   4.099   7.439 -0.4926  1.8801  1.0240
 9975TIP3    H254121   0.006   4.149   7.464 -1.5070  0.7650 -1.9632
 9976TIP3   OH254122   2.257   4.380   1.622 -0.0879  0.7001 -0.2012
 9976TIP3    H154123   2.326   4.315   1.630  0.2562  1.2062  1.0884
 9976TIP3    H254124   2.193   4.356   1.689  0.2907  1.9577  0.6464
 9977TIP3   OH254125   6.624   6.794   2.547  0.0933  0.1584  0.3842
 9977TIP3    H154126   6.529   6.811   2.541  0.2105  1.3910  1.4786
 9977TIP3    H254127   6.630   6.713   2.598 -0.3648  0.7770  1.4618
 9978TIP3   OH254128   6.511   7.417   2.433  0.1417  0.6364  0.5135
 9978TIP3    H154129   6.555   7.339   2.398  0.1844  0.8598  0.0589
 9978TIP3    H254130   6.433   7.427   2.377 -1.2804 -0.5573  2.1459
 9979TIP3   OH254131   3.049   0.012   7.225 -0.3554  0.0622 -0.0678
 9979TIP3    H154132   3.013   0.039   7.141  1.8035  0.8569 -0.8086
 9979TIP3    H254133   3.111   0.081   7.248  2.5131 -2.2794 -0.1131
 9980TIP3   OH254134   6.671   1.071   9.351  0.2980  0.3664  0.4957
 9980TIP3    H154135   6.669   0.984   9.391 -0.6544 -0.1595 -0.6249
 9980TIP3    H254136   6.581   1.086   9.322  1.0623  0.4074 -2.0460
 9981TIP3   OH254137   2.519   7.036   8.786 -0.2388 -0.2446  0.0300
 9981TIP3    H154138   2.473   7.038   8.702  0.1719  1.7473 -0.2010
 9981TIP3    H254139   2.522   6.943   8.810  0.0468 -0.9126 -2.3552
 9982TIP3   OH254140   2.915   4.286   0.079  0.0328  0.0059  0.2946
 9982TIP3    H154141   2.970   4.300   0.003  0.7153 -0.8450  0.6205
 9982TIP3    H254142   2.973   4.298   0.154 -0.2625 -0.7087  0.6476
 9983TIP3   OH254143   1.076   0.896   8.307 -0.2670 -0.1524  0.6876
 9983TIP3    H154144   0.985   0.924   8.300 -0.6510 -1.3861  0.5828
 9983TIP3    H254145   1.081   0.850   8.391 -0.2073 -1.6898 -0.1241
 9984TIP3   OH254146   5.609   1.020   9.965  0.0714 -0.0065 -0.4997
 9984TIP3    H154147   5.690   1.031   9.915  1.8519 -1.0425  1.9719
 9984TIP3    H254148   5.558   0.957   9.913  2.4196 -2.0848 -0.4875
 9985TIP3   OH254149   1.238   7.155   8.407  0.2665  0.4405 -0.0126
 9985TIP3    H154150   1.308   7.219   8.418 -0.7140  1.8506 -1.5296
 9985TIP3    H254151   1.167   7.187   8.462  0.3556 -0.3057  0.5524
 9986TIP3   OH254152   1.554   5.935   2.582  0.2161 -0.0210 -0.7429
 9986TIP3    H154153   1.591   5.847   2.575  1.5023  0.4880 -0.5648
 9986TIP3    H254154   1.558   5.970   2.493  3.0932  1.1374 -0.2823
 9987TIP3   OH254155   2.181   7.154   7.047  0.6889 -0.0388  0.0639
 9987TIP3    H154156   2.092   7.181   7.025  0.1406 -1.0782  0.8842
 9987TIP3    H254157   2.230   7.236   7.056  0.4409  0.4960 -2.7088
 9988TIP3   OH254158   6.096   0.736   7.894  0.3480 -0.4614 -0.0719
 9988TIP3    H154159   6.114   0.739   7.988  0.7626 -1.6756 -0.0938
 9988TIP3    H254160   6.015   0.686   7.887  0.8087 -1.1633 -0.4137
 9989TIP3   OH254161   7.468   3.937   9.627 -0.4280  0.1060 -0.2042
 9989TIP3    H154162   7.443   3.999   9.559  0.6596  0.8684  0.0587
 9989TIP3    H254163   7.446   3.981   9.709 -0.0678 -0.0296 -0.0297
 9990TIP3   OH254164   7.611   6.460   7.652  0.5936 -0.4472 -0.0566
 9990TIP3    H154165   7.565   6.377   7.639 -1.5037  0.5677  0.3642
 9990TIP3    H254166   7.543   6.527   7.643  1.8937  1.1462  1.1934
 9991TIP3   OH254167   4.904   0.627   2.679  0.2182  0.2223  0.0270
 9991TIP3    H154168   4.901   0.585   2.765 -0.8102 -0.7710 -0.4713
 9991TIP3    H254169   4.975   0.691   2.686 -0.6611  1.0628  2.0097
 9992TIP3   OH254170   1.308   1.103   0.666 -0.5059  0.3939  0.2838
 9992TIP3    H154171   1.309   1.178   0.606 -1.2931 -1.9759 -2.9662
 9992TIP3    H254172   1.217   1.096   0.695 -0.1780  1.3764  1.6725
 9993TIP3   OH254173   4.328   2.498   2.375 -0.1023 -0.0334  0.3849
 9993TIP3    H154174   4.361   2.431   2.435 -0.1605 -0.0941  0.3484
 9993TIP3    H254175   4.400   2.561   2.369  0.5662 -0.8472 -0.7569
 9994TIP3   OH254176   1.222   3.656   8.443  0.3051  0.0026  0.9566
 9994TIP3    H154177   1.309   3.684   8.414 -1.0747  1.2252 -2.4914
 9994TIP3    H254178   1.236   3.570   8.481  2.8905 -0.3845 -0.6227
 9995TIP3   OH254179   3.230   5.282   1.943  0.7137  0.1958 -0.5431
 9995TIP3    H154180   3.205   5.193   1.970 -1.1341  1.0775  0.8987
 9995TIP3    H254181   3.278   5.317   2.018  3.0051 -0.1237 -1.7873
 9996TIP3   OH254182   2.006   3.376   1.672  0.1535 -0.4434  0.0508
 9996TIP3    H154183   1.968   3.304   1.723  1.1194 -0.8389  0.2444
 9996TIP3    H254184   1.962   3.372   1.587  0.0543 -1.1327  0.1298
 9997TIP3   OH254185   4.316   6.513   7.429 -0.2188  0.3963 -0.0908
 9997TIP3    H154186   4.299   6.422   7.451 -0.7797  0.3754 -0.5816
 9997TIP3    H254187   4.412   6.520   7.429 -0.1332 -0.4600 -1.0548
 9998TIP3   OH254188   1.611   3.359   2.045 -0.2616 -0.0099  0.0101
 9998TIP3    H154189   1.660   3.286   2.008 -0.3158 -1.1488  2.0743
 9998TIP3    H254190   1.584   3.410   1.969  1.0997 -1.2691 -1.3900
 9999TIP3   OH254191   3.216   0.790   8.942  0.5081  0.2593 -0.2422
 9999TIP3    H154192   3.263   0.743   8.873 -0.8246 -3.1311  0.9469
 9999TIP3    H254193   3.126   0.797   8.909  0.3422  0.5460  0.2605
10000TIP3   OH254194   4.409   7.596   1.276 -0.1690  0.1017 -0.0206
10000TIP3    H154195   4.349   7.544   1.329 -0.7975 -0.1318 -0.9472
10000TIP3    H254196   4.479   7.620   1.337  0.0135 -1.6028  0.4925
10001TIP3   OH254197   2.517   2.781   2.176 -0.1058 -0.7366 -0.2833
10001TIP3    H154198   2.464   2.702   2.190 -1.8590  0.5752  0.8425
10001TIP3    H254199   2.460   2.853   2.202  1.5271  0.9139 -1.0768
10002TIP3   OH254200   0.831   6.267   0.650 -0.2854  0.3457 -0.3617
10002TIP3    H154201   0.875   6.248   0.567  2.2674  3.2970  0.0989
10002TIP3    H254202   0.889   6.229   0.716  0.5019  2.3110  0.1653
10003TIP3   OH254203   6.533   2.693   9.708  0.1469 -0.0612 -0.1572
10003TIP3    H154204   6.509   2.770   9.657 -0.0477 -0.0443 -0.0408
10003TIP3    H254205   6.582   2.638   9.646 -0.3010 -0.1550 -0.4373
10004TIP3   OH254206   2.131   4.164   1.503  0.4138  0.3155 -0.4900
10004TIP3    H154207   2.129   4.259   1.514  0.4181  0.1650  1.0555
10004TIP3    H254208   2.193   4.149   1.432  1.0313  1.4205 -0.2012
10005TIP3   OH254209   7.223   6.146   9.843  0.1740 -0.8955 -0.0287
10005TIP3    H154210   7.216   6.240   9.861  0.0982 -0.9989  0.4968
10005TIP3    H254211   7.315   6.133   9.819  0.0519 -0.5935 -0.6582
10006TIP3   OH254212   2.501   4.705   2.082  0.2349 -0.1493 -0.7169
10006TIP3    H154213   2.568   4.701   2.150  0.4297 -0.0116 -0.9011
10006TIP3    H254214   2.482   4.614   2.062 -0.1691 -0.1999 -0.1381
10007TIP3   OH254215   0.629   1.564   1.430 -0.2101 -0.1477 -0.1575
10007TIP3    H154216   0.655   1.625   1.360  0.4592 -0.4192 -0.1514
10007TIP3    H254217   0.574   1.500   1.386  1.6023 -1.3179 -0.8253
10008TIP3   OH254218   1.772   3.945   9.953 -0.9026  0.1911  0.1726
10008TIP3    H154219   1.854   3.919   9.996 -0.7854 -0.2629 -0.3233
10008TIP3    H254220   1.712   3.961  10.026 -0.0265  1.7522  0.5884
10009TIP3   OH254221   4.778   0.417   0.117  0.3625  0.0270  0.2852
10009TIP3    H154222   4.822   0.459   0.190  0.7696  0.7800 -0.3794
10009TIP3    H254223   4.787   0.323   0.134 -0.4760  0.1816  1.7302
10010TIP3   OH254224   0.346   0.127   0.598 -0.4075  0.3374 -0.9173
10010TIP3    H154225   0.309   0.039   0.605  0.1981  0.0633 -1.1514
10010TIP3    H254226   0.398   0.137   0.678  1.4215 -0.4170 -1.9601
10011TIP3   OH254227   3.413   1.269   2.313  0.2210  0.0274  0.0634
10011TIP3    H154228   3.353   1.292   2.384  1.7554  0.6519  1.2138
10011TIP3    H254229   3.367   1.297   2.233 -0.7317  1.1094  0.9548
10012TIP3   OH254230   7.356   6.839   1.294 -0.1923  0.2228  0.3920
10012TIP3    H154231   7.282   6.835   1.234  0.0797  0.7551  0.0126
10012TIP3    H254232   7.325   6.889   1.369  0.4061  2.4030 -0.7196
10013TIP3   OH254233   0.570   7.649   0.082 -0.6334  0.7808 -0.0002
10013TIP3    H154234   0.587   7.654  -0.012 -0.8717  0.7872 -0.0439
10013TIP3    H254235   0.523   7.731   0.102 -0.5852  0.7788  0.1229
10014TIP3   OH254236   2.474   0.995   8.192  0.3119  0.0582 -0.4343
10014TIP3    H154237   2.548   0.945   8.156  0.0471  0.3440 -1.3888
10014TIP3    H254238   2.511   1.042   8.267  0.5004 -1.8276  0.7384
10015TIP3   OH254239   0.869   1.598   2.835 -0.0893  0.0322  0.5619
10015TIP3    H154240   0.876   1.504   2.847 -0.9490 -0.0851  0.2352
10015TIP3    H254241   0.910   1.636   2.913 -1.3116 -0.6404  1.5626
10016TIP3   OH254242   2.260   1.040   2.435  0.0266 -0.4857 -0.7195
10016TIP3    H154243   2.241   0.947   2.423 -1.2896 -0.6684  1.9492
10016TIP3    H254244   2.179   1.076   2.470  1.2160  1.1970  0.4436
10017TIP3   OH254245   2.061   6.306   2.557 -0.1826  0.2420  0.1851
10017TIP3    H154246   1.978   6.317   2.602  0.1495  0.5696  0.7334
10017TIP3    H254247   2.106   6.390   2.568 -0.2903  0.4865 -1.1771
10018TIP3   OH254248   1.750   6.913   1.589  0.2285 -0.3574 -0.3366
10018TIP3    H154249   1.730   6.820   1.587 -0.6093 -0.1756 -0.7561
10018TIP3    H254250   1.759   6.938   1.497 -3.2717  0.7317 -0.5080
10019TIP3   OH254251   6.696   3.821   8.564  0.1866  0.3020 -0.0941
10019TIP3    H154252   6.648   3.902   8.547  1.0321  0.4570 -2.0885
10019TIP3    H254253   6.775   3.850   8.610  2.6801  1.4356 -4.4551
10020TIP3   OH254254   4.304   6.133   9.061 -0.2343  0.1441  0.3081
10020TIP3    H154255   4.326   6.201   9.125 -1.4537  1.5822 -0.7263
10020TIP3    H254256   4.277   6.181   8.983  0.1775 -1.5541 -0.9518
10021TIP3   OH254257   3.609   4.102   0.593  0.1866 -0.1450  0.4189
10021TIP3    H154258   3.620   4.008   0.609 -1.4042 -0.3007  0.8127
10021TIP3    H254259   3.562   4.134   0.670  0.1292  0.8406 -0.0105
10022TIP3   OH254260   2.125   5.374   1.578  0.4643 -0.3331 -0.2007
10022TIP3    H154261   2.082   5.421   1.507  1.3512  0.3432 -0.3146
10022TIP3    H254262   2.189   5.437   1.612  0.0112 -0.6219  1.2449
10023TIP3   OH254263   4.886   6.403   3.073 -0.4137  0.1455  0.0396
10023TIP3    H154264   4.824   6.438   3.009  0.1707  0.4359 -0.3809
10023TIP3    H254265   4.836   6.338   3.123 -1.0008  0.2498 -0.4069
10024TIP3   OH254266   2.748   3.363   1.338 -0.1885  0.5288 -0.1873
10024TIP3    H154267   2.691   3.400   1.404 -0.2567  0.3939 -0.1686
10024TIP3    H254268   2.832   3.351   1.382  0.2313  1.9324 -0.5796
10025TIP3   OH254269   2.057   1.817   8.784  0.4654 -0.2609  0.1691
10025TIP3    H154270   2.083   1.907   8.806  1.6277 -0.8168  1.2044
10025TIP3    H254271   1.969   1.808   8.820  0.4864  0.3610  0.3885
10026TIP3   OH254272   6.629   0.393   9.288  0.0480 -0.3005  0.1003
10026TIP3    H154273   6.550   0.423   9.243 -0.8157 -1.9226  0.4824
10026TIP3    H254274   6.609   0.303   9.315 -0.0219  0.8606  4.8377
10027TIP3   OH254275   4.248   5.121   0.208 -0.0530  0.0756 -0.0477
10027TIP3    H154276   4.238   5.160   0.121 -0.0414  2.1450  0.8100
10027TIP3    H254277   4.294   5.039   0.193 -0.0240  0.4011 -1.9816
10028TIP3   OH254278   2.890   1.411   9.764  0.2924 -0.3363  0.2360
10028TIP3    H154279   2.929   1.459   9.692  0.8216  0.1282  0.8206
10028TIP3    H254280   2.853   1.333   9.724  1.1659 -0.4175 -0.4336
10029TIP3   OH254281   0.325   7.431   8.157 -0.5456 -0.1403 -0.3943
10029TIP3    H154282   0.382   7.499   8.192 -0.7048 -0.2523  0.0880
10029TIP3    H254283   0.381   7.354   8.146 -1.2449 -1.4707  3.5811
10030TIP3   OH254284   3.124   6.481   7.807  0.3290 -0.2981  0.2912
10030TIP3    H154285   3.204   6.429   7.794  1.1771  0.9430  0.4028
10030TIP3    H254286   3.116   6.532   7.726  0.1121  0.1969  0.6265
10031TIP3   OH254287   1.039   2.410   9.174 -0.0139  0.6486 -0.3427
10031TIP3    H154288   1.116   2.400   9.230  0.6650  2.8827 -0.7686
10031TIP3    H254289   1.013   2.502   9.184 -2.0859  0.1788 -0.9280
10032TIP3   OH254290   5.175   1.512   8.790 -0.1811 -0.1738 -0.2533
10032TIP3    H154291   5.223   1.540   8.712 -1.1669 -0.2397 -0.9058
10032TIP3    H254292   5.103   1.575   8.797  0.1134  0.0523  0.8274
10033TIP3   OH254293   3.663   3.794   0.617 -0.6281 -0.4570  0.6172
10033TIP3    H154294   3.677   3.747   0.535  1.5117 -0.7580  1.0944
10033TIP3    H254295   3.683   3.730   0.685  2.4464  1.0419  1.2795
10034TIP3   OH254296   0.088   7.212   1.623 -0.0030  0.1191  0.1294
10034TIP3    H154297   0.014   7.151   1.626 -0.0957  0.2713  1.3232
10034TIP3    H254298   0.058   7.283   1.566 -0.7292  0.1167  0.5000
10035TIP3   OH254299   3.501   7.277   7.754  0.1063  0.3103  0.3186
10035TIP3    H154300   3.440   7.289   7.827 -0.9261  3.2856 -0.8739
10035TIP3    H254301   3.583   7.314   7.785  0.6614 -1.4018  1.0303
10036TIP3   OH254302   2.704   5.893   8.256  0.0478 -0.0278 -0.0701
10036TIP3    H154303   2.774   5.878   8.193  0.3426 -2.2203  0.6777
10036TIP3    H254304   2.747   5.887   8.341 -1.1540 -2.8054  0.4538
10037TIP3   OH254305   5.158   4.657   9.032  0.6325  0.2659  0.2384
10037TIP3    H154306   5.150   4.743   9.073  0.0394 -0.2814  1.2937
10037TIP3    H254307   5.252   4.639   9.031  0.6925  0.5376  0.8236
10038TIP3   OH254308   0.257   1.122   8.470 -0.3991 -0.1204 -0.1777
10038TIP3    H154309   0.185   1.130   8.408 -0.1852  1.0385 -0.3003
10038TIP3    H254310   0.331   1.092   8.416 -0.4259  0.0824 -0.3302
10039TIP3   OH254311   0.963   2.193   1.483  0.0371 -0.1585  0.3585
10039TIP3    H154312   0.964   2.270   1.540  1.4457 -0.0131  0.1665
10039TIP3    H254313   1.055   2.171   1.470 -0.3105 -1.2129 -0.4926
10040TIP3   OH254314   6.446   3.894   7.801  0.4416  0.2415  0.3064
10040TIP3    H154315   6.520   3.837   7.779  0.8517  0.1930  1.7065
10040TIP3    H254316   6.369   3.838   7.797  0.6991 -0.1316  0.5037
10041TIP3   OH254317   1.250   3.800   9.193 -0.0734 -0.1476 -0.1313
10041TIP3    H154318   1.206   3.822   9.111  0.9794  0.7538 -0.4768
10041TIP3    H254319   1.342   3.790   9.169  0.0726 -1.0552  0.7409
10042TIP3   OH254320   2.069   2.055   1.202  0.2786  0.3999  0.8043
10042TIP3    H154321   2.055   2.143   1.167  1.4335 -0.0767 -0.9674
10042TIP3    H254322   2.093   2.069   1.293  1.0297  1.9784  0.4045
10043TIP3   OH254323   6.677   4.968   0.081 -0.8493 -0.2491 -0.1176
10043TIP3    H154324   6.752   4.912   0.059  0.3536  1.4439 -0.5746
10043TIP3    H254325   6.709   5.022   0.153 -1.4199  0.8776 -0.6810
10044TIP3   OH254326   2.029   7.507   9.133  0.2584 -0.4911 -0.5231
10044TIP3    H154327   2.072   7.447   9.071  0.9710 -2.1371  1.4374
10044TIP3    H254328   2.002   7.451   9.205 -0.2250  1.3915  0.8335
10045TIP3   OH254329   2.469   3.242   2.116 -0.2162 -0.2852 -0.4264
10045TIP3    H154330   2.438   3.225   2.205  1.6867 -2.8258 -0.1549
10045TIP3    H254331   2.486   3.336   2.114 -1.3525  0.0073  1.5084
10046TIP3   OH254332   5.847   0.253   1.357 -0.1249 -0.1839 -0.0026
10046TIP3    H154333   5.904   0.231   1.431 -1.6743  2.5872  2.1723
10046TIP3    H254334   5.766   0.206   1.374 -0.3119  0.0462 -0.2583
10047TIP3   OH254335   4.682   0.702   6.962  0.1959  0.3079 -0.6455
10047TIP3    H154336   4.736   0.772   6.997 -0.5537 -0.3471  2.0610
10047TIP3    H254337   4.744   0.631   6.943  0.4575 -0.0623  1.4238
10048TIP3   OH254338   5.176   6.506   7.268 -0.4770 -0.0701  0.2460
10048TIP3    H154339   5.187   6.457   7.187  1.2994  0.0421  0.3953
10048TIP3    H254340   5.119   6.579   7.244  0.0015 -0.0538 -0.9034
10049TIP3   OH254341   0.077   7.367   9.742 -0.6540  0.4351  0.2448
10049TIP3    H154342   0.027   7.300   9.790  0.5965 -1.4915 -1.0012
10049TIP3    H254343   0.144   7.396   9.804 -0.3982 -0.4380  0.3924
10050TIP3   OH254344   4.720   5.989   9.401  0.4105  0.0720  0.3286
10050TIP3    H154345   4.685   6.035   9.478 -0.8896 -1.2714  0.5927
10050TIP3    H254346   4.745   6.059   9.341 -0.0153  1.1355  1.3466
10051TIP3   OH254347   4.891   5.299   7.001 -0.8207  0.6043 -0.5532
10051TIP3    H154348   4.943   5.363   6.954 -1.3317  2.3849  1.1621
10051TIP3    H254349   4.952   5.226   7.018 -0.1472  0.7319 -2.2885
10052TIP3   OH254350   3.680   0.591   1.624  0.0903 -0.3192  0.1438
10052TIP3    H154351   3.614   0.573   1.556 -1.0901  0.5515  1.0101
10052TIP3    H254352   3.759   0.547   1.593 -0.4445 -0.0642 -1.7256
10053TIP3   OH254353   6.551   6.167   2.718 -0.2117 -0.1011 -0.2056
10053TIP3    H154354   6.470   6.133   2.679  0.3082  1.0167 -2.4168
10053TIP3    H254355   6.534   6.261   2.731  1.9499  1.1846 -4.6925
10054TIP3   OH254356   1.392   6.194   9.562  0.3666 -0.2072 -0.1703
10054TIP3    H154357   1.417   6.149   9.643 -0.4023 -0.9699 -0.3467
10054TIP3    H254358   1.313   6.243   9.585 -1.0008 -1.9700 -0.9196
10055TIP3   OH254359   2.316   5.091   0.927 -0.3727  0.3191 -0.6804
10055TIP3    H154360   2.268   5.135   0.996 -1.8123 -1.5817 -0.3839
10055TIP3    H254361   2.308   5.148   0.851  1.0633  2.3420  0.5873
10056TIP3   OH254362   2.649   1.501   8.462 -0.1580 -0.4887 -0.3839
10056TIP3    H154363   2.581   1.440   8.492 -0.2551 -0.7368 -1.0918
10056TIP3    H254364   2.653   1.568   8.530 -0.1663 -1.1959  0.3259
10057TIP3   OH254365   7.299   6.085   1.598  0.0215 -0.1963  0.4619
10057TIP3    H154366   7.382   6.124   1.626 -1.0270  0.1663  3.4089
10057TIP3    H254367   7.270   6.141   1.525  1.1166  1.2718  1.1050
10058TIP3   OH254368   6.449   1.790   9.105  0.0330  0.2026 -0.0038
10058TIP3    H154369   6.394   1.755   9.035 -0.3584 -1.0722  0.9103
10058TIP3    H254370   6.522   1.728   9.111 -0.6780 -0.5126  1.6585
10059TIP3   OH254371   3.808   7.487   9.756 -0.2749 -0.2473  0.0001
10059TIP3    H154372   3.772   7.507   9.670  0.3970 -1.0378 -0.4761
10059TIP3    H254373   3.879   7.551   9.768  0.8145 -1.2527 -0.8288
10060TIP3   OH254374   1.054   4.117   0.915 -0.5489 -0.1974  0.3510
10060TIP3    H154375   1.039   4.106   0.821 -1.6504  0.9626  0.3659
10060TIP3    H254376   1.136   4.166   0.920  1.9524 -3.9917  0.1775
10061TIP3   OH254377   4.648   1.580   3.131  0.3206 -0.2182 -0.0000
10061TIP3    H154378   4.687   1.590   3.218  0.9072  0.3891 -0.3166
10061TIP3    H254379   4.670   1.662   3.086  1.5296 -1.2094 -1.2987
10062TIP3   OH254380   1.687   5.239   9.401  0.0038 -0.3995  0.3201
10062TIP3    H154381   1.627   5.212   9.470 -1.0441 -0.9039 -0.7620
10062TIP3    H254382   1.641   5.311   9.356  1.1493  0.6803  0.8132
10063TIP3   OH254383   0.829   7.358   1.128  0.2121  0.2015 -0.1807
10063TIP3    H154384   0.832   7.432   1.189 -0.4852  0.7773 -0.8221
10063TIP3    H254385   0.880   7.289   1.171  0.8051  1.0198  0.4698
10064TIP3   OH254386   6.888   0.047   1.905  0.3957  0.3451 -0.3411
10064TIP3    H154387   6.874  -0.025   1.967  0.0375 -2.1931 -3.1335
10064TIP3    H254388   6.983   0.054   1.898  0.4344  0.5034  0.3416
10065TIP3   OH254389   1.470   1.002   7.139 -0.4282  0.2890  0.3067
10065TIP3    H154390   1.515   1.038   7.062  0.7056 -0.1912  0.7155
10065TIP3    H254391   1.491   0.908   7.136  0.1678  0.3754  1.5547
10066TIP3   OH254392   0.585   3.673   6.636 -0.2515  0.5286  0.2981
10066TIP3    H154393   0.624   3.644   6.553  0.5950 -1.0934  1.2247
10066TIP3    H254394   0.493   3.688   6.615  0.0723  0.7722 -1.0652
10067TIP3   OH254395   3.914   3.031   1.173  0.1044  0.3394 -0.1172
10067TIP3    H154396   3.840   2.973   1.191  0.4354 -0.2339 -0.5857
10067TIP3    H254397   3.875   3.118   1.168 -0.3327  0.2382  1.0785
10068TIP3   OH254398   6.211   2.200   9.493 -0.2883 -0.1701  0.2422
10068TIP3    H154399   6.300   2.165   9.502 -0.1227 -0.0106 -0.6739
10068TIP3    H254400   6.223   2.295   9.499 -0.2818 -0.1044 -0.6879
10069TIP3   OH254401   7.050   1.918   0.708  1.0559 -0.0748  0.0798
10069TIP3    H154402   7.026   1.839   0.660 -0.8423 -0.5700  1.6996
10069TIP3    H254403   6.990   1.920   0.783  1.6370  2.4309  0.5885
10070TIP3   OH254404   2.372   3.274   0.733 -0.4125  0.4873  0.2626
10070TIP3    H154405   2.335   3.352   0.775 -0.4742 -0.0201  1.1818
10070TIP3    H254406   2.440   3.245   0.794 -1.6649 -1.2760  0.9123
10071TIP3   OH254407   1.137   7.553   7.561  0.2449 -0.3221  0.4133
10071TIP3    H154408   1.176   7.544   7.474  0.4029 -1.9508  0.6355
10071TIP3    H254409   1.174   7.634   7.596  2.1987 -1.0017 -0.0028
10072TIP3   OH254410   1.524   4.878   2.531  0.1566  0.5575 -0.0589
10072TIP3    H154411   1.470   4.845   2.459  0.3381  0.5686 -0.2022
10072TIP3    H254412   1.514   4.813   2.600 -1.5561  1.5027  0.6466
10073TIP3   OH254413   0.319   6.553   2.053 -0.0579  0.5308  0.3977
10073TIP3    H154414   0.293   6.574   1.963 -1.8051  2.1842  1.2065
10073TIP3    H254415   0.339   6.638   2.092 -1.3453  0.1001  2.1076
10074TIP3   OH254416   5.446   6.898   1.753  0.0303  0.2301  0.4247
10074TIP3    H154417   5.384   6.893   1.680  0.0523 -0.8666  0.4629
10074TIP3    H254418   5.506   6.824   1.739  0.5352  0.4940  1.1062
10075TIP3   OH254419   1.360   3.897   2.488 -0.0361 -0.2040  0.2390
10075TIP3    H154420   1.422   3.929   2.422  0.5346  0.2671  0.9797
10075TIP3    H254421   1.356   3.802   2.474 -1.2924  0.0899 -1.6101
10076TIP3   OH254422   1.941   3.427   7.936  0.1038  0.2574 -0.1850
10076TIP3    H154423   1.873   3.410   7.871 -0.4444 -0.9460  0.6829
10076TIP3    H254424   1.975   3.341   7.959  1.0061  0.7474  0.3893
10077TIP3   OH254425   4.302   2.423   9.071 -0.2661  0.0400 -0.3277
10077TIP3    H154426   4.301   2.459   9.160 -0.5740 -0.5001 -0.1053
10077TIP3    H254427   4.216   2.383   9.061  0.2684 -1.1540 -0.3462
10078TIP3   OH254428   3.179   5.491   7.667 -0.1305  0.6281 -0.7218
10078TIP3    H154429   3.126   5.414   7.685  0.6931  0.1560 -0.2330
10078TIP3    H254430   3.120   5.565   7.680 -0.7089  0.1131 -0.3822
10079TIP3   OH254431   7.411   4.267   8.448  0.3334 -0.0342  0.2015
10079TIP3    H154432   7.450   4.303   8.529 -0.7820  0.1150  0.6862
10079TIP3    H254433   7.325   4.309   8.443  0.0590 -0.6864 -0.6226
10080TIP3   OH254434   0.384   2.984   0.298 -0.1330 -0.2128  0.1661
10080TIP3    H154435   0.389   2.960   0.390 -0.9257 -0.9742  0.0274
10080TIP3    H254436   0.290   2.991   0.280 -0.0164 -0.7168 -0.7319
10081TIP3   OH254437   5.245   0.364   7.975 -0.2165  0.2845  0.2540
10081TIP3    H154438   5.249   0.370   7.879 -0.0219  1.6633  0.3247
10081TIP3    H254439   5.174   0.423   7.999  0.6700  1.0625  1.0401
10082TIP3   OH254440   3.453   4.285   0.765  0.6324  0.4422 -0.4531
10082TIP3    H154441   3.527   4.296   0.825 -0.2890 -1.5810  1.1743
10082TIP3    H254442   3.391   4.353   0.790  0.9110  0.5967 -0.1783
10083TIP3   OH254443   3.897   4.774   8.506 -0.2876  0.2271  0.8969
10083TIP3    H154444   3.833   4.845   8.497 -1.0142 -0.4177  0.8985
10083TIP3    H254445   3.979   4.812   8.473 -1.1423  0.3959 -1.2125
10084TIP3   OH254446   0.577   6.606   9.469  0.0823 -0.2264 -0.5607
10084TIP3    H154447   0.544   6.670   9.406  2.4419  1.5964 -0.1204
10084TIP3    H254448   0.597   6.658   9.547  0.3136 -1.8545  0.5162
10085TIP3   OH254449   2.749   6.350   9.721  0.0308  0.2677  0.8243
10085TIP3    H154450   2.691   6.284   9.759 -1.6842  0.1612 -1.7043
10085TIP3    H254451   2.805   6.301   9.661  1.2918  0.6812  1.6171
10086TIP3   OH254452   3.850   6.049   8.325  0.0759 -0.4067  0.2412
10086TIP3    H154453   3.777   6.107   8.304  0.1201  0.4589  2.3006
10086TIP3    H254454   3.868   6.065   8.417  2.1380 -1.4488  0.0736
10087TIP3   OH254455   5.704   2.044   9.529 -0.7225  1.0667  0.5469
10087TIP3    H154456   5.640   1.974   9.521 -0.7142  0.7431  2.7170
10087TIP3    H254457   5.759   2.036   9.451 -0.6148 -1.4599  0.8087
10088TIP3   OH254458   2.697   3.966   9.904  0.3471 -0.2105 -0.1057
10088TIP3    H154459   2.751   3.990   9.828  1.3442  0.1417  0.6931
10088TIP3    H254460   2.715   4.034   9.968 -0.8445 -0.2522  0.3017
10089TIP3   OH254461   4.977   1.557   9.049 -0.4222 -0.4438  0.6540
10089TIP3    H154462   5.064   1.595   9.037 -1.2276  1.3918  0.2814
10089TIP3    H254463   4.952   1.580   9.138 -1.0860  0.3543  0.2872
10090TIP3   OH254464   7.026   5.621   0.623 -0.4193  0.1383  0.0634
10090TIP3    H154465   7.102   5.628   0.680 -0.7662 -1.7640  0.8638
10090TIP3    H254466   6.963   5.684   0.658 -0.7537 -1.2287  2.0981
10091TIP3   OH254467   2.050   5.106   1.317  0.4240 -0.0178 -0.1527
10091TIP3    H154468   1.974   5.100   1.258  0.3523 -1.6058  0.0529
10091TIP3    H254469   2.014   5.090   1.404  0.9234 -0.3778 -0.0052
10092TIP3   OH254470   1.890   2.211   7.200 -0.7672 -0.1527 -0.1934
10092TIP3    H154471   1.913   2.304   7.190 -1.2752  0.0566  0.5489
10092TIP3    H254472   1.811   2.200   7.148  0.7306 -0.8097 -2.5114
10093TIP3   OH254473   2.099   6.058   7.635  0.5767  0.2191 -0.3222
10093TIP3    H154474   2.014   6.015   7.629  0.1984  1.0736 -1.4150
10093TIP3    H254475   2.088   6.124   7.704  0.0446  0.9826 -1.1252
10094TIP3   OH254476   0.348   5.995   9.887 -0.3711  0.1945  0.0100
10094TIP3    H154477   0.383   6.034   9.807  1.5208 -0.1434  0.6354
10094TIP3    H254478   0.324   5.906   9.861  2.4521 -0.7427  0.2678
10095TIP3   OH254479   2.126   6.260   1.782 -0.4345 -0.4943 -0.5923
10095TIP3    H154480   2.080   6.186   1.742 -1.3959 -0.3727  0.2510
10095TIP3    H254481   2.114   6.332   1.719 -1.8219 -0.3371 -0.1965
10096TIP3   OH254482   1.752   7.002   0.782 -0.0612 -0.0676 -0.0902
10096TIP3    H154483   1.845   7.012   0.765 -0.2298 -0.2423 -1.1995
10096TIP3    H254484   1.709   7.034   0.702 -0.8699 -2.2925 -0.6338
10097TIP3   OH254485   6.102   7.127   7.918 -0.5698 -0.0955  0.4544
10097TIP3    H154486   6.186   7.162   7.887  0.3451 -0.8049  1.9857
10097TIP3    H254487   6.036   7.181   7.876  0.6292  0.1294 -1.2466
10098TIP3   OH254488   3.498   1.566   2.055 -0.3283  0.4910  0.1183
10098TIP3    H154489   3.411   1.578   2.092 -1.2070 -2.0193 -0.8795
10098TIP3    H254490   3.482   1.557   1.961  1.3134  2.1931 -0.3846
10099TIP3   OH254491   3.155   2.283   0.574  0.0433 -0.3408 -0.5312
10099TIP3    H154492   3.100   2.216   0.614  0.0074  0.1566  0.2849
10099TIP3    H254493   3.112   2.303   0.491 -0.5535 -0.5526 -0.2802
10100TIP3   OH254494   4.885   6.249   8.572  0.4933 -0.5188 -0.2529
10100TIP3    H154495   4.849   6.326   8.529 -0.2215 -0.6161  0.1580
10100TIP3    H254496   4.955   6.219   8.514 -0.4908 -0.6940 -1.3822
10101TIP3   OH254497   1.489   3.525   7.254 -0.2491  0.5717  0.0027
10101TIP3    H154498   1.473   3.619   7.244 -1.4334  0.4187  0.2977
10101TIP3    H254499   1.539   3.501   7.176 -0.4884  1.3321 -0.3972
10102TIP3   OH254500   1.266   3.606   0.158  0.4529  0.7575  0.2186
10102TIP3    H154501   1.241   3.572   0.072  0.6124  0.7893  0.1591
10102TIP3    H254502   1.342   3.553   0.183 -0.9339 -0.8284  1.3583
10103TIP3   OH254503   6.978   1.450   7.638 -0.1196  0.3635 -0.0679
10103TIP3    H154504   6.985   1.497   7.721 -0.8291 -0.3073  0.3831
10103TIP3    H254505   6.967   1.359   7.663  1.2487 -0.0649 -0.9340
10104TIP3   OH254506   0.583   0.708   7.946  0.5186  0.6357 -0.1622
10104TIP3    H154507   0.566   0.689   7.854  0.6593  0.0103 -0.0644
10104TIP3    H254508   0.582   0.622   7.988 -1.4319  1.0475  0.7434
10105TIP3   OH254509   5.404   1.139   0.752 -0.0426 -0.1818  0.0365
10105TIP3    H154510   5.331   1.147   0.691  0.1972 -1.1672 -0.3960
10105TIP3    H254511   5.440   1.228   0.759 -1.3442  0.3396  0.3466
10106TIP3   OH254512   1.948   0.530   1.558  0.3657  0.3944  0.0814
10106TIP3    H154513   1.944   0.450   1.505 -1.2112  0.6145 -0.1777
10106TIP3    H254514   2.042   0.544   1.572  0.6774 -2.0346  0.9693
10107TIP3   OH254515   6.156   6.413   0.267 -0.3574  0.4069 -0.0597
10107TIP3    H154516   6.232   6.387   0.215  0.7821  1.0783  1.1914
10107TIP3    H254517   6.112   6.479   0.213  0.2186  0.3510 -0.6098
10108TIP3   OH254518   0.850   3.489   2.395 -0.3774  0.3060  0.5358
10108TIP3    H154519   0.918   3.449   2.342 -1.0607 -1.1253  0.6876
10108TIP3    H254520   0.871   3.463   2.485 -1.7791 -1.2391  0.4648
10109TIP3   OH254521   0.948   3.654   1.400 -0.7317  0.0977  0.4682
10109TIP3    H154522   0.985   3.719   1.340 -0.3497 -0.2680  0.3120
10109TIP3    H254523   1.000   3.575   1.387 -1.0948 -0.1991  0.7746
10110TIP3   OH254524   7.194   5.471   7.840 -0.0208 -0.0582 -0.3506
10110TIP3    H154525   7.181   5.481   7.746 -1.1158  3.1163  0.0448
10110TIP3    H254526   7.288   5.487   7.852 -0.2831  1.9374 -0.7013
10111TIP3   OH254527   6.024   7.096   7.438  0.8033 -0.3014 -0.4040
10111TIP3    H154528   5.989   7.058   7.519  0.2755  0.6509 -0.1705
10111TIP3    H254529   5.954   7.084   7.374  1.2781 -1.1867 -0.7661
10112TIP3   OH254530   7.549   4.670   9.253  0.0547  0.0237  0.0353
10112TIP3    H154531   7.470   4.667   9.308  0.7428  0.8938  1.0965
10112TIP3    H254532   7.556   4.581   9.219 -0.8834 -0.3107  0.6477
10113TIP3   OH254533   0.662   5.952   8.746 -0.9537 -0.0021  0.0941
10113TIP3    H154534   0.585   5.961   8.690 -1.9072 -1.2734  1.1376
10113TIP3    H254535   0.725   6.014   8.709 -0.8605 -1.9459 -3.4666
10114TIP3   OH254536   2.803   3.713   9.969  0.2674 -0.2929 -0.1070
10114TIP3    H154537   2.767   3.798   9.943  0.0608 -0.1065  0.7760
10114TIP3    H254538   2.743   3.649   9.931  0.2080 -0.0406 -0.4442
10115TIP3   OH254539   6.942   0.855   8.821  0.2970  0.2154 -0.0087
10115TIP3    H154540   6.971   0.939   8.784 -3.4070  0.5163 -2.8080
10115TIP3    H254541   7.007   0.792   8.791  1.5110  1.6308 -0.4984
10116TIP3   OH254542   2.304   6.483   9.357  0.6093 -0.4473  0.7757
10116TIP3    H154543   2.366   6.432   9.409  1.4131 -0.8136 -0.4700
10116TIP3    H254544   2.343   6.484   9.269 -0.2458  0.8813  0.3859
10117TIP3   OH254545   5.146   2.701   7.616  0.4976 -0.0024  0.1704
10117TIP3    H154546   5.129   2.633   7.551  4.1352 -0.2281 -0.7485
10117TIP3    H254547   5.149   2.654   7.700 -0.9611 -0.2519  0.1059
10118TIP3   OH254548   6.631   7.410   9.995  0.9881  0.1112  0.3183
10118TIP3    H154549   6.574   7.352   9.944 -0.4998  2.2968 -0.6496
10118TIP3    H254550   6.718   7.372   9.985  0.2068 -1.5034 -0.9135
10119TIP3   OH254551   1.333   2.683   2.927 -0.5032 -0.4513 -0.2170
10119TIP3    H154552   1.420   2.720   2.940 -0.4391 -1.5543  3.4340
10119TIP3    H254553   1.348   2.589   2.920 -1.3423 -0.5557 -0.7509
10120TIP3   OH254554   5.225   0.603   9.414 -0.0230 -0.2502 -0.0764
10120TIP3    H154555   5.237   0.508   9.414  0.7354 -0.3745  4.0544
10120TIP3    H254556   5.308   0.638   9.381 -0.6206 -0.9041 -2.4686
10121TIP3   OH254557   1.839   6.430   2.667  0.3361  0.2833 -0.4491
10121TIP3    H154558   1.821   6.496   2.600 -1.6633  0.1554 -0.1179
10121TIP3    H254559   1.799   6.466   2.747  1.0734 -0.3817  0.2373
10122TIP3   OH254560   6.277   1.268   9.097 -0.5700 -0.3402 -0.3358
10122TIP3    H154561   6.319   1.307   9.020  0.7601 -0.2875  0.3984
10122TIP3    H254562   6.248   1.343   9.149 -0.2519 -0.3560 -0.1340
10123TIP3   OH254563   7.153   5.841   0.927 -0.3711 -0.4005 -0.2209
10123TIP3    H154564   7.193   5.928   0.921 -0.6320 -0.1465  1.3623
10123TIP3    H254565   7.072   5.848   0.877 -0.7616  0.5028  0.5231
10124TIP3   OH254566   3.735   6.315   7.094  0.4896 -0.1009 -0.0398
10124TIP3    H154567   3.682   6.386   7.058  0.3341 -0.9210 -1.4801
10124TIP3    H254568   3.822   6.354   7.108  0.6073  0.2017 -1.4979
10125TIP3   OH254569   6.446   0.977   0.799 -0.5914 -0.5462 -0.2375
10125TIP3    H154570   6.508   0.911   0.766 -0.0825 -1.2464  1.9501
10125TIP3    H254571   6.432   0.952   0.890  0.6613  3.1485  1.1208
10126TIP3   OH254572   2.234   4.014   2.082 -0.3718  0.6764  0.0913
10126TIP3    H154573   2.230   4.026   2.177 -1.8675 -1.8295  0.4305
10126TIP3    H254574   2.146   4.040   2.052  0.0242  1.2358 -0.6069
10127TIP3   OH254575   1.943   2.670   9.256  0.5822  0.0035 -0.8071
10127TIP3    H154576   2.036   2.688   9.246  1.0474 -1.5525  0.3026
10127TIP3    H254577   1.914   2.733   9.323  0.9902  0.0273 -0.6505
10128TIP3   OH254578   5.655   6.318   6.824 -0.6949  0.2488  0.4347
10128TIP3    H154579   5.694   6.236   6.855 -0.6012  0.3831  0.6716
10128TIP3    H254580   5.653   6.374   6.901  0.1526  0.8177  0.0563
10129TIP3   OH254581   0.580   2.749   2.867  0.1611 -0.5630  0.2042
10129TIP3    H154582   0.486   2.755   2.881  0.2467 -0.1086  0.6276
10129TIP3    H254583   0.614   2.833   2.898  0.6830 -0.6457 -0.1285
10130TIP3   OH254584   2.514   1.866   2.856  0.2193 -0.1334 -0.1555
10130TIP3    H154585   2.594   1.911   2.828  0.3007  1.1216  1.8770
10130TIP3    H254586   2.545   1.792   2.907  0.1313  0.5180  0.8791
10131TIP3   OH254587   4.302   1.085   1.611  0.0936 -0.3888 -0.2680
10131TIP3    H154588   4.334   1.013   1.666 -0.8038 -0.2287  0.4718
10131TIP3    H254589   4.382   1.130   1.584  0.6446 -1.3591 -0.3414
10132TIP3   OH254590   6.956   4.807   7.994 -0.3111 -0.3395  0.6107
10132TIP3    H154591   6.991   4.825   8.081 -0.5870 -0.4569  0.7484
10132TIP3    H254592   6.863   4.829   8.000 -0.3335 -0.3501  0.3469
10133TIP3   OH254593   5.116   7.591   2.257 -0.3635 -0.0293  0.4457
10133TIP3    H154594   5.165   7.512   2.235 -1.3169 -0.3023 -0.7836
10133TIP3    H254595   5.153   7.658   2.199  1.1071  0.7236  2.1403
10134TIP3   OH254596   4.005   4.095   8.817  0.6948  0.0576  0.1969
10134TIP3    H154597   4.005   4.003   8.790  0.8349  0.5014 -1.4510
10134TIP3    H254598   3.949   4.138   8.753  1.4230  1.2755  0.3513
10135TIP3   OH254599   0.006   6.909   7.189 -0.6598  0.4678  0.1480
10135TIP3    H154600   0.099   6.916   7.213 -0.1551  3.1706 -2.0108
10135TIP3    H254601   0.003   6.838   7.125 -0.5568 -1.1469  1.8565
10136TIP3   OH254602   6.456   6.478   0.399 -0.1913 -0.4534  0.0829
10136TIP3    H154603   6.457   6.397   0.451  0.6339 -1.3598 -1.2746
10136TIP3    H254604   6.435   6.449   0.310  0.1573  0.8271 -0.4415
10137TIP3   OH254605   5.477   1.792   0.062  0.0668 -0.3785 -0.0094
10137TIP3    H154606   5.466   1.778  -0.032  0.5671  1.1454 -0.3234
10137TIP3    H254607   5.489   1.704   0.099 -4.6600 -1.5753 -0.6695
10138TIP3   OH254608   1.341   6.015   0.339  0.2987  0.1240 -0.3035
10138TIP3    H154609   1.260   6.031   0.292 -0.2150  1.8879  1.0575
10138TIP3    H254610   1.397   6.090   0.318  1.2994 -0.6940 -0.6329
10139TIP3   OH254611   3.649   3.998   9.671  0.5642 -0.6664  0.5749
10139TIP3    H154612   3.567   3.964   9.707  0.0435 -0.2601 -0.2244
10139TIP3    H254613   3.715   3.935   9.702 -0.2438 -1.8537 -0.0106
10140TIP3   OH254614   2.937   0.060   3.020 -0.3079  0.9557  0.2047
10140TIP3    H154615   2.886   0.126   2.972  0.2599  0.2912 -1.3735
10140TIP3    H254616   3.026   0.071   2.988 -0.1518 -0.3845  0.1348
10141TIP3   OH254617   0.181   6.797   8.258  0.4647  0.4059  0.7348
10141TIP3    H154618   0.107   6.815   8.315 -0.4564  1.1078 -0.6349
10141TIP3    H254619   0.233   6.878   8.261  2.4335 -0.7772  3.3616
10142TIP3   OH254620   2.361   5.873   1.129 -0.3909  0.5432  0.5067
10142TIP3    H154621   2.274   5.909   1.110  0.1227  1.3902 -0.3468
10142TIP3    H254622   2.420   5.949   1.126  0.6203 -0.2396 -0.6571
10143TIP3   OH254623   4.496   2.768   0.215 -0.1364  0.1197 -0.0428
10143TIP3    H154624   4.518   2.722   0.133  0.0989  0.7779 -0.3571
10143TIP3    H254625   4.518   2.705   0.284 -1.8404 -1.0610 -0.5108
10144TIP3   OH254626   0.789   5.082   2.630  0.2989  0.6118 -0.0049
10144TIP3    H154627   0.849   5.137   2.681  0.0978  0.7967  0.0296
10144TIP3    H254628   0.731   5.144   2.586 -0.5674  0.3903  0.8160
10145TIP3   OH254629   2.444   6.947   1.534 -0.4751 -0.1187 -0.2664
10145TIP3    H154630   2.535   6.918   1.537  0.1561  1.2080 -3.2693
10145TIP3    H254631   2.394   6.870   1.508  0.1805 -0.2371 -1.2008
10146TIP3   OH254632   2.484   0.624   7.969 -0.3163  0.1468  0.1612
10146TIP3    H154633   2.416   0.655   7.910 -0.8227 -0.9747  0.1135
10146TIP3    H254634   2.567   0.644   7.925 -0.6343  0.8900 -0.1069
10147TIP3   OH254635   0.500   3.026   2.115 -0.4155  0.4197  0.2556
10147TIP3    H154636   0.595   3.029   2.104 -0.6739  4.2561 -4.0183
10147TIP3    H254637   0.483   2.937   2.147  4.5547 -0.0392  2.6392
10148TIP3   OH254638   5.063   2.088   8.643  0.2311  0.1476  0.0484
10148TIP3    H154639   5.035   2.171   8.603  0.5929  1.0891  1.6683
10148TIP3    H254640   5.059   2.104   8.737  1.9858 -1.1218  0.3797
10149TIP3   OH254641   1.715   0.564   8.214 -0.0835  0.0671 -0.5151
10149TIP3    H154642   1.786   0.566   8.150 -2.4964  0.8981 -3.4227
10149TIP3    H254643   1.646   0.515   8.170 -1.5153 -0.2646  1.9694
10150TIP3   OH254644   7.312   1.482   8.643 -0.2295  0.5012 -0.5759
10150TIP3    H154645   7.335   1.529   8.723  1.0132 -1.3397  0.2020
10150TIP3    H254646   7.222   1.452   8.658  0.5691 -1.2897  0.8990
10151TIP3   OH254647   1.879   3.497   7.655  0.4521 -0.0468 -0.5406
10151TIP3    H154648   1.847   3.408   7.639  1.1583 -0.3725 -0.2049
10151TIP3    H254649   1.801   3.548   7.676 -0.0054 -0.5036 -1.0828
10152TIP3   OH254650   5.948   2.529   0.797 -0.4003 -0.3885 -0.4411
10152TIP3    H154651   5.896   2.609   0.812 -0.6801 -0.2057 -2.1695
10152TIP3    H254652   5.891   2.474   0.743 -0.5910 -2.2210  1.4688
10153TIP3   OH254653   7.135   4.832   7.373  0.2702  0.3625  0.3102
10153TIP3    H154654   7.210   4.807   7.319 -0.5328 -1.4959 -0.0140
10153TIP3    H254655   7.075   4.758   7.366 -2.9590  2.9171 -1.7582
10154TIP3   OH254656   2.281   5.405   8.804 -0.3023  0.3969  0.0426
10154TIP3    H154657   2.283   5.369   8.715 -0.3384  0.4287  0.0291
10154TIP3    H254658   2.300   5.329   8.860  0.8763  0.5916 -0.0526
10155TIP3   OH254659   6.251   3.395   8.245  0.2502  0.1033  0.3932
10155TIP3    H154660   6.262   3.315   8.194  0.3714  0.2005  0.2647
10155TIP3    H254661   6.339   3.414   8.278  0.2858  0.3665  0.1483
10156TIP3   OH254662   7.389   0.784   9.244 -0.1306  0.4129 -0.2924
10156TIP3    H154663   7.367   0.835   9.322 -1.5977  1.0045 -1.0686
10156TIP3    H254664   7.441   0.844   9.190 -1.3308  0.9000 -0.9272
10157TIP3   OH254665   0.088   0.877   2.878  0.4792 -0.1887 -0.1206
10157TIP3    H154666   0.160   0.907   2.934  0.3258 -0.8536  0.4416
10157TIP3    H254667   0.112   0.787   2.855  0.3040 -0.0811 -0.7322
10158TIP3   OH254668   4.396   5.248   8.677  0.6788 -0.2720 -0.2755
10158TIP3    H154669   4.309   5.279   8.652  0.1239 -1.5133  0.0329
10158TIP3    H254670   4.448   5.327   8.685 -0.5373  0.5358 -0.0641
10159TIP3   OH254671   1.549   2.625   7.600  0.4632 -0.5321 -0.2968
10159TIP3    H154672   1.517   2.597   7.514  0.3158  1.5635 -0.9770
10159TIP3    H254673   1.517   2.558   7.660 -0.2222 -1.5633 -1.7427
10160TIP3   OH254674   1.318   1.249   7.778  0.0231 -0.4573 -0.2845
10160TIP3    H154675   1.274   1.321   7.734 -0.3040  0.8502  2.0333
10160TIP3    H254676   1.249   1.203   7.825  0.4738 -1.3516 -0.4611
10161TIP3   OH254677   2.388   2.935   3.075 -0.6951 -0.0182  0.3162
10161TIP3    H154678   2.293   2.936   3.091 -0.8683  1.8483 -0.5239
10161TIP3    H254679   2.424   2.882   3.146 -1.9444  2.8829  3.3809
10162TIP3   OH254680   5.421   7.052   0.347 -0.2341 -0.2491  0.0623
10162TIP3    H154681   5.448   7.139   0.318  0.3936 -0.1416  0.9243
10162TIP3    H254682   5.481   7.030   0.418  0.0230 -1.6585 -0.5502
10163TIP3   OH254683   7.540   1.217   9.225  0.4807  0.5172 -0.0742
10163TIP3    H154684   7.616   1.269   9.251 -0.2398  0.7537  1.7363
10163TIP3    H254685   7.465   1.276   9.237 -0.2361 -0.5401  0.8991
10164TIP3   OH254686   6.493   0.985   2.250 -0.5914 -0.4343  0.3585
10164TIP3    H154687   6.506   0.999   2.157  0.7654 -0.9366  0.4528
10164TIP3    H254688   6.481   1.073   2.286  0.4017 -0.1075 -0.0810
10165TIP3   OH254689   3.057   5.407   9.117 -0.1527 -0.0651 -0.5130
10165TIP3    H154690   3.140   5.363   9.134 -0.1038 -0.0646 -0.7422
10165TIP3    H254691   3.079   5.474   9.051 -0.4827 -0.5878 -1.1658
10166TIP3   OH254692   1.196   1.602   8.110 -0.4738  0.4116 -0.1102
10166TIP3    H154693   1.109   1.607   8.069 -0.7991  0.7992  0.6079
10166TIP3    H254694   1.203   1.682   8.162 -0.0571 -0.0426  0.5534
10167TIP3   OH254695   2.114   3.138   9.507  0.5888 -0.6213  0.2094
10167TIP3    H154696   2.143   3.202   9.442 -1.1530  1.2006  1.1083
10167TIP3    H254697   2.154   3.056   9.479  3.0814  0.8571 -0.8891
10168TIP3   OH254698   5.399   1.368   2.334  0.9216  0.1605 -0.1467
10168TIP3    H154699   5.471   1.391   2.392  0.0400  0.6004  0.8085
10168TIP3    H254700   5.320   1.388   2.385  0.1021 -1.7891 -0.5452
10169TIP3   OH254701   2.488   5.258   7.212  0.3050 -0.2331 -0.6556
10169TIP3    H154702   2.557   5.192   7.215 -0.2853 -0.8900 -1.0799
10169TIP3    H254703   2.423   5.227   7.276 -0.6977 -0.9306 -1.9429
10170TIP3   OH254704   2.995   7.437   0.881 -0.1562 -0.4042  0.4925
10170TIP3    H154705   3.017   7.473   0.967  0.7011 -1.1730  0.6063
10170TIP3    H254706   2.972   7.346   0.898  2.0592 -1.1800 -0.3174
10171TIP3   OH254707   7.553   0.115   8.651 -0.0273  0.3715  0.1420
10171TIP3    H154708   7.494   0.083   8.719 -0.8550 -3.7938 -2.1552
10171TIP3    H254709   7.631   0.144   8.698 -1.2625 -0.4709  2.9258
10172TIP3   OH254710   3.970   6.329   7.568 -0.0549 -0.5611 -0.5221
10172TIP3    H154711   4.037   6.346   7.634 -2.3719 -0.4004  1.9645
10172TIP3    H254712   4.001   6.250   7.523  1.4689 -0.8945  0.9858
10173TIP3   OH254713   5.222   2.729   9.583  0.3293 -0.3951  0.0242
10173TIP3    H154714   5.185   2.803   9.630 -0.1115  0.8514 -2.1331
10173TIP3    H254715   5.207   2.654   9.640 -0.1166  1.0052  1.8417
10174TIP3   OH254716   3.189   3.525   9.983  1.0254  0.3486 -0.6378
10174TIP3    H154717   3.130   3.470   9.932  0.8568 -0.8314  0.7433
10174TIP3    H254718   3.141   3.607   9.995  0.0890 -0.2158 -0.4056
10175TIP3   OH254719   3.838   1.880   1.802 -0.0225 -0.1923  0.1205
10175TIP3    H154720   3.822   1.798   1.754  0.6016  0.0104 -0.4479
10175TIP3    H254721   3.894   1.931   1.744 -2.4536  1.7397 -0.6782
10176TIP3   OH254722   1.229   2.179   8.936 -0.7003 -0.2654  0.6060
10176TIP3    H154723   1.193   2.182   8.847 -0.6042  0.1824  0.5828
10176TIP3    H254724   1.276   2.261   8.946  0.7015 -1.0245  0.4927
10177TIP3   OH254725   6.025   1.560   2.180 -0.0443  0.4210  0.4960
10177TIP3    H154726   5.932   1.583   2.178 -0.1359  0.0371 -0.3874
10177TIP3    H254727   6.058   1.599   2.260 -0.6992  1.6088  0.2163
10178TIP3   OH254728   0.821   4.488   8.083  0.1347 -0.0318 -0.4288
10178TIP3    H154729   0.863   4.493   7.997 -0.6436  0.2902 -0.7963
10178TIP3    H254730   0.893   4.499   8.145  0.3610  2.7230 -1.0466
10179TIP3   OH254731   3.372   4.763   7.591  1.0944  0.2176 -0.0360
10179TIP3    H154732   3.419   4.688   7.554  0.6855 -0.0019 -0.1247
10179TIP3    H254733   3.285   4.757   7.553  1.1185  0.8632 -0.1992
10180TIP3   OH254734   1.283   2.287   9.330 -0.4310  0.0196  0.3491
10180TIP3    H154735   1.371   2.311   9.301 -0.8468  0.0623 -0.9510
10180TIP3    H254736   1.297   2.235   9.409  0.6284  2.1144  1.6346
10181TIP3   OH254737   0.551   1.426   8.623 -0.0773  0.0869  0.2018
10181TIP3    H154738   0.457   1.415   8.638  0.4484 -1.2854  3.4444
10181TIP3    H254739   0.563   1.521   8.618 -1.4318  0.4608  2.3138
10182TIP3   OH254740   2.149   3.930   2.350  0.0675  0.5850  0.1107
10182TIP3    H154741   2.228   3.912   2.400  0.1387  2.4227  0.7157
10182TIP3    H254742   2.100   3.993   2.402 -0.7962  1.0728 -1.2181
10183TIP3   OH254743   5.516   5.529   9.142  0.0878  0.6620 -0.1130
10183TIP3    H154744   5.578   5.530   9.215 -0.9155  2.8991  0.8014
10183TIP3    H254745   5.446   5.589   9.169 -2.4586 -1.5979 -1.1492
10184TIP3   OH254746   5.647   4.920   7.721 -0.3636 -0.4820  0.1522
10184TIP3    H154747   5.664   5.007   7.686  1.3487 -0.2965  1.2972
10184TIP3    H254748   5.598   4.936   7.802  0.1423 -0.5645  0.4760
10185TIP3   OH254749   2.583   0.671   9.478  0.3175 -0.0697  0.0070
10185TIP3    H154750   2.621   0.758   9.492 -2.2708  1.2531 -0.5369
10185TIP3    H254751   2.579   0.662   9.382  1.0496 -1.0581  0.0516
10186TIP3   OH254752   7.153   1.934   8.005  0.1998 -0.3719 -0.2275
10186TIP3    H154753   7.215   1.959   7.937 -0.6523 -0.4880 -1.0818
10186TIP3    H254754   7.067   1.949   7.965 -0.3182 -0.7762  0.7027
10187TIP3   OH254755   5.993   0.415   0.320  0.8552  0.2683  0.1355
10187TIP3    H154756   6.055   0.469   0.369  1.0432  0.2594 -0.0959
10187TIP3    H254757   5.917   0.409   0.378  0.6428  1.1729 -0.0373
10188TIP3   OH254758   1.433   7.025   1.322  0.5055  0.1664  0.7654
10188TIP3    H154759   1.404   6.942   1.359 -0.1135  0.0996  0.1598
10188TIP3    H254760   1.436   7.010   1.228  0.2808  0.8581  0.6401
10189TIP3   OH254761   5.438   5.371   8.692 -0.4815  1.4626 -0.1078
10189TIP3    H154762   5.512   5.319   8.661 -2.0795 -0.6669 -0.6350
10189TIP3    H254763   5.429   5.440   8.627  0.1588  0.8814 -0.8368
10190TIP3   OH254764   3.043   0.034   8.886  0.4467  0.0069  0.5094
10190TIP3    H154765   3.011   0.120   8.913  1.7495  0.1622  1.6602
10190TIP3    H254766   3.104   0.052   8.815 -3.3480 -0.4317 -3.2854
10191TIP3   OH254767   4.547   6.015   0.223  0.6576 -0.0932  0.0762
10191TIP3    H154768   4.462   6.059   0.226  0.0488 -1.2333  0.0887
10191TIP3    H254769   4.610   6.082   0.252 -0.0421  1.1913 -1.2181
10192TIP3   OH254770   2.589   0.672   9.215  0.5295  0.2893  0.4839
10192TIP3    H154771   2.553   0.722   9.141 -1.2894  0.4392  1.4073
10192TIP3    H254772   2.637   0.600   9.174 -3.0575 -1.5285 -1.0052
10193TIP3   OH254773   0.583   4.579   8.020  0.0774  0.6571  0.5506
10193TIP3    H154774   0.667   4.542   8.045  0.1734  0.8936  0.5782
10193TIP3    H254775   0.603   4.667   7.989 -0.1674  0.7476  0.6412
10194TIP3   OH254776   5.257   0.085   8.145  0.2312 -0.1772 -0.1285
10194TIP3    H154777   5.221   0.002   8.114 -1.5206  0.7306 -0.6749
10194TIP3    H254778   5.306   0.120   8.070  0.1464 -0.2825 -0.2341
10195TIP3   OH254779   7.641   6.971   1.401  0.4936  0.0616 -0.5899
10195TIP3    H154780   7.664   6.992   1.310  0.0035 -0.6555 -0.8927
10195TIP3    H254781   7.545   6.963   1.400  0.0721  3.4913  0.7545
10196TIP3   OH254782   3.656   6.981   7.845 -0.1838 -0.8393  0.1344
10196TIP3    H154783   3.738   7.029   7.853 -0.3773 -0.4431 -0.1459
10196TIP3    H254784   3.611   7.024   7.771 -1.1809 -0.2263  1.0567
10197TIP3   OH254785   4.068   0.938   8.157 -0.7524  1.0001 -0.1778
10197TIP3    H154786   4.159   0.955   8.182 -0.9162  2.5050 -0.5002
10197TIP3    H254787   4.075   0.891   8.074 -0.2713 -0.0822  0.4558
10198TIP3   OH254788   2.310   4.191   1.289  0.4821  0.7121 -0.2602
10198TIP3    H154789   2.382   4.132   1.264 -0.0822 -0.3299  0.4847
10198TIP3    H254790   2.287   4.236   1.209  2.8780  2.1151 -0.2621
10199TIP3   OH254791   3.101   5.339   1.700 -0.1950 -0.1021  0.2078
10199TIP3    H154792   3.154   5.322   1.778  0.7809  0.5052 -0.2998
10199TIP3    H254793   3.151   5.301   1.628  0.4730  2.0184 -0.5225
10200TIP3   OH254794   4.026   3.984   7.450 -0.2700  0.5136  0.2979
10200TIP3    H154795   4.013   4.073   7.419 -1.1826  0.4907  0.5884
10200TIP3    H254796   4.016   3.929   7.372 -0.0921  0.6360  0.1884
10201TIP3   OH254797   2.478   7.291   6.952 -0.4251 -0.1627 -0.2925
10201TIP3    H154798   2.491   7.209   6.905 -0.1526 -1.0199  1.1952
10201TIP3    H254799   2.559   7.340   6.938  0.1968 -0.9697  0.3243
10202TIP3   OH254800   4.294   2.716   1.288  0.5133  0.1349  0.6002
10202TIP3    H154801   4.340   2.800   1.279 -0.6323  0.8006  0.8073
10202TIP3    H254802   4.248   2.723   1.372  0.4262 -0.7127  0.6258
10203TIP3   OH254803   1.563   5.006   7.396  0.1764 -0.0772  0.3724
10203TIP3    H154804   1.567   5.084   7.451 -1.4330 -0.5112  1.1305
10203TIP3    H254805   1.573   5.040   7.307  0.1896  0.9075  0.7386
10204TIP3   OH254806   2.289   1.510   8.185  0.2491  0.0580 -0.7511
10204TIP3    H154807   2.283   1.604   8.166 -0.2800  0.0879 -0.4582
10204TIP3    H254808   2.224   1.496   8.254  1.5756 -0.1851  0.5016
10205TIP3   OH254809   2.127   3.185   1.435 -0.1175  0.1156  0.1804
10205TIP3    H154810   2.216   3.163   1.461  0.3581  1.0301 -0.5865
10205TIP3    H254811   2.071   3.130   1.490  0.9287 -1.0769  0.1066
10206TIP3   OH254812   7.287   4.524   8.589  0.3460  0.8455 -0.1648
10206TIP3    H154813   7.337   4.472   8.652  1.6807  0.9691 -1.0759
10206TIP3    H254814   7.328   4.610   8.590 -0.9697  1.5050  0.3119
10207TIP3   OH254815   2.830   2.474   9.233  0.0373  0.1701  0.0231
10207TIP3    H154816   2.742   2.485   9.268  0.8610  0.1195  2.2118
10207TIP3    H254817   2.851   2.559   9.194 -0.0189  1.0516  1.8366
10208TIP3   OH254818   1.932   6.966   0.342 -0.1571  0.2944  0.3191
10208TIP3    H154819   1.982   6.974   0.260  0.3081  1.0989  0.6643
10208TIP3    H254820   1.951   7.047   0.389  0.1245 -0.4436  1.5281
10209TIP3   OH254821   0.554   5.704   8.821  0.3152 -0.1030 -0.0397
10209TIP3    H154822   0.559   5.798   8.807  0.5273 -0.4117 -2.5185
10209TIP3    H254823   0.586   5.691   8.910  1.4850  2.0486 -0.0808
10210TIP3   OH254824   1.496   5.086   0.772  0.9676 -0.2987  0.2181
10210TIP3    H154825   1.569   5.049   0.822  0.4773 -0.3651  0.8969
10210TIP3    H254826   1.468   5.015   0.715  2.0223  0.0134 -0.7365
10211TIP3   OH254827   1.151   5.689   7.088  0.8915  0.4271 -0.3667
10211TIP3    H154828   1.117   5.683   7.178  3.0795  0.6665  0.5343
10211TIP3    H254829   1.095   5.755   7.046  0.2814  0.8549  1.0490
10212TIP3   OH254830   3.657   5.922   0.457 -0.2335  0.3068 -0.3079
10212TIP3    H154831   3.689   6.010   0.439  0.3672 -0.1859 -1.8911
10212TIP3    H254832   3.675   5.873   0.376 -2.1651 -0.8159 -0.1397
10213TIP3   OH254833   4.341   3.275   9.264 -0.2416  0.4555 -0.1322
10213TIP3    H154834   4.426   3.266   9.221 -1.5339  1.9583 -3.3099
10213TIP3    H254835   4.337   3.200   9.324  2.8214 -0.2945 -0.6872
10214TIP3   OH254836   4.022   0.480   8.166  0.1952 -0.3658 -0.0460
10214TIP3    H154837   3.989   0.421   8.233  0.9956 -1.7845 -0.8464
10214TIP3    H254838   4.062   0.552   8.214 -1.0152 -0.3224  0.9500
10215TIP3   OH254839   5.423   5.135   7.574  0.2543 -0.1390 -0.9190
10215TIP3    H154840   5.380   5.052   7.592  1.3994 -0.3394  1.1654
10215TIP3    H254841   5.375   5.171   7.499  0.3805 -3.1145 -2.5914
10216TIP3   OH254842   6.896   7.319   9.611 -0.6249 -0.0349  0.3185
10216TIP3    H154843   6.899   7.391   9.548  0.0122 -1.6110 -1.5324
10216TIP3    H254844   6.803   7.310   9.632 -0.8421  0.5214 -0.3826
10217TIP3   OH254845   5.432   7.083   1.481  0.6657  0.0878 -0.0779
10217TIP3    H154846   5.504   7.113   1.537  0.1822  0.3284  0.4195
10217TIP3    H254847   5.475   7.056   1.400  1.3731 -0.2219  0.3853
10218TIP3   OH254848   1.083   3.808   0.191 -0.3960  0.1440  0.4480
10218TIP3    H154849   1.117   3.720   0.173 -0.5877  0.3682 -1.1577
10218TIP3    H254850   1.155   3.853   0.234  0.4019 -0.2322 -0.4405
10219TIP3   OH254851   3.414   6.909   7.137  0.0435 -0.1758  0.6025
10219TIP3    H154852   3.482   6.956   7.186  0.0890 -0.4875  0.8428
10219TIP3    H254853   3.453   6.824   7.117  0.1746  0.0880 -0.3306
10220TIP3   OH254854   3.180   6.956   8.826  0.2297  0.1861 -0.3631
10220TIP3    H154855   3.138   6.910   8.899  0.6387 -0.9586 -0.8310
10220TIP3    H254856   3.241   6.892   8.789  1.6984  1.4781 -0.2973
10221TIP3   OH254857   3.287   2.212   8.653 -0.1434  0.7104 -0.1590
10221TIP3    H154858   3.373   2.196   8.692  0.4259  2.5857 -0.5588
10221TIP3    H254859   3.228   2.153   8.700  1.2374 -0.1196  0.5879
10222TIP3   OH254860   6.557   1.483   0.999  0.1825 -0.9166 -0.2264
10222TIP3    H154861   6.521   1.464   1.086 -2.7317  2.3115 -0.4969
10222TIP3    H254862   6.483   1.470   0.939  1.7103 -1.6096 -2.0932
10223TIP3   OH254863   4.748   6.106   1.780  0.4088 -0.1145 -0.1408
10223TIP3    H154864   4.703   6.161   1.716  0.6892  0.6034  0.2686
10223TIP3    H254865   4.694   6.027   1.786  1.1360 -0.8535 -2.3338
10224TIP3   OH254866   5.392   7.148   2.472 -0.3311 -0.2986 -0.6927
10224TIP3    H154867   5.442   7.191   2.542 -2.8928  1.4506  0.2405
10224TIP3    H254868   5.308   7.127   2.512 -0.3704 -3.3184 -2.1052
10225TIP3   OH254869   2.062   5.354   0.198 -0.1161  0.8179  0.0616
10225TIP3    H154870   2.003   5.363   0.273  0.8545  0.6571  0.8607
10225TIP3    H254871   2.011   5.387   0.124 -1.1166  0.9252  0.7731
10226TIP3   OH254872   0.609   5.684   9.101  0.5094 -0.0384 -0.1895
10226TIP3    H154873   0.678   5.706   9.164 -0.4475 -0.7534  1.1534
10226TIP3    H254874   0.541   5.750   9.116  1.2725  1.3161 -2.2397
10227TIP3   OH254875   1.129   5.514   1.442 -0.4354  0.4967 -0.0847
10227TIP3    H154876   1.034   5.516   1.437 -0.3761  0.9845 -1.3039
10227TIP3    H254877   1.154   5.599   1.478 -0.5440 -0.5840  2.7883
10228TIP3   OH254878   1.910   5.121   0.783  0.4444 -0.0862  0.5164
10228TIP3    H154879   1.845   5.162   0.840  1.0997  0.2557  1.0258
10228TIP3    H254880   1.981   5.185   0.776 -0.3778  0.6634 -2.1559
10229TIP3   OH254881   4.552   6.948   0.293 -0.0833  0.0696 -0.7098
10229TIP3    H154882   4.647   6.949   0.300 -0.1335  1.0393  0.0283
10229TIP3    H254883   4.534   6.975   0.203  0.3663 -2.7075 -1.7274
10230TIP3   OH254884   7.357   4.684   7.620  0.0061  0.3175  0.4602
10230TIP3    H154885   7.396   4.597   7.628  0.3344  0.5149  1.1483
10230TIP3    H254886   7.329   4.691   7.529  0.4514 -0.3107  0.2748
10231TIP3   OH254887   5.349   7.459   3.301  0.1766 -0.2279  0.2954
10231TIP3    H154888   5.372   7.418   3.218 -0.0171  0.3539 -0.0466
10231TIP3    H254889   5.255   7.472   3.297  0.4637  1.9455 -0.3870
10232TIP3   OH254890   5.891   6.711   3.005  0.1845  0.4709  0.8573
10232TIP3    H154891   5.975   6.748   2.979  0.2082 -0.8916 -1.2669
10232TIP3    H254892   5.866   6.761   3.082  1.7986  2.5394  0.1517
10233TIP3   OH254893   4.935   6.705   9.518  0.4908  0.3471 -0.3215
10233TIP3    H154894   4.968   6.784   9.561  0.1549  1.5507 -2.1793
10233TIP3    H254895   4.840   6.712   9.526  0.4729 -0.1616 -0.0349
10234TIP3   OH254896   3.140   5.072   9.781 -0.3242 -0.3119  0.4712
10234TIP3    H154897   3.065   5.032   9.737 -2.6591  2.1883  1.8981
10234TIP3    H254898   3.117   5.071   9.874  1.4820  0.4860  0.9755
10235TIP3   OH254899   1.221   3.331   3.646  0.1778  0.3160 -0.1336
10235TIP3    H154900   1.161   3.335   3.720 -1.1215 -0.1129 -1.1151
10235TIP3    H254901   1.202   3.247   3.604 -0.4639  1.3048 -1.9806
10236TIP3   OH254902   4.802   6.896   0.161  0.0184 -0.3827 -0.1806
10236TIP3    H154903   4.877   6.939   0.119 -0.1337  0.3671  0.2950
10236TIP3    H254904   4.750   6.863   0.089  0.8155 -0.9332 -0.5189
10237TIP3   OH254905   4.312   6.720   8.214 -0.2285  0.1018 -0.2210
10237TIP3    H154906   4.307   6.705   8.119 -0.1891  1.0381 -0.3859
10237TIP3    H254907   4.225   6.697   8.247  0.0386 -1.1020 -0.3458
10238TIP3   OH254908   1.903   4.296   8.760  0.3969 -0.0075 -0.1516
10238TIP3    H154909   1.963   4.354   8.713 -0.4043  1.4322  0.5522
10238TIP3    H254910   1.879   4.345   8.839 -0.1858 -1.3688  0.5467
10239TIP3   OH254911   1.831   0.174   1.771 -0.1652 -0.0207  0.1311
10239TIP3    H154912   1.783   0.116   1.712 -1.1100  0.5101  0.3710
10239TIP3    H254913   1.921   0.172   1.738 -0.9128  1.3089 -2.1939
10240TIP3   OH254914   1.004   7.200   0.473 -0.2373 -0.0271 -0.1048
10240TIP3    H154915   1.068   7.240   0.413  0.6512 -1.4718 -0.1637
10240TIP3    H254916   1.005   7.107   0.451 -1.1943 -0.3188  0.9885
10241TIP3   OH254917   4.055   3.036   1.423 -0.0166  0.5398 -0.2350
10241TIP3    H154918   4.017   3.047   1.336  2.7242  1.3104 -1.4305
10241TIP3    H254919   3.983   3.057   1.483 -2.0239 -0.1231 -2.2528
10242TIP3   OH254920   3.895   6.612   8.955 -0.2804 -0.0494 -0.1761
10242TIP3    H154921   3.828   6.624   9.023  0.1298 -0.6555  0.3502
10242TIP3    H254922   3.959   6.553   8.995 -0.7080 -1.5010 -1.5579
10243TIP3   OH254923   2.790   1.511   0.442  0.0869  0.3085  0.0626
10243TIP3    H154924   2.823   1.428   0.475 -1.8467 -0.1681  0.9443
10243TIP3    H254925   2.865   1.570   0.445  1.5132 -1.4089 -0.6875
10244TIP3   OH254926   1.830   5.186   8.382 -0.4435  0.4885  0.1309
10244TIP3    H154927   1.868   5.265   8.419  0.1719 -0.0936  0.7648
10244TIP3    H254928   1.824   5.204   8.288  0.1086  1.1100  0.2104
10245TIP3   OH254929   2.836   2.170   2.222  0.4662  0.0171  0.5255
10245TIP3    H154930   2.880   2.084   2.222 -0.5992 -0.5432  0.3372
10245TIP3    H254931   2.801   2.178   2.311  0.2653  0.1116  0.4357
10246TIP3   OH254932   3.053   0.909   9.424 -0.0014  0.0197  0.5370
10246TIP3    H154933   3.042   0.814   9.424 -0.9838  0.0615 -1.8260
10246TIP3    H254934   3.115   0.926   9.495  3.9093 -2.8547 -1.7373
10247TIP3   OH254935   5.079   5.234   8.489 -0.1348 -0.0852 -0.2155
10247TIP3    H154936   5.103   5.251   8.580  0.2007 -1.4374 -0.0189
10247TIP3    H254937   4.985   5.247   8.486 -0.0977  0.3013  0.2473
10248TIP3   OH254938   7.297   3.771   0.166  0.4140  0.1587 -0.2243
10248TIP3    H154939   7.254   3.801   0.086 -3.3699 -1.3368  1.0077
10248TIP3    H254940   7.289   3.845   0.226 -0.2341 -0.0333 -0.0724
10249TIP3   OH254941   5.064   1.590   1.629  0.1697  0.1814 -0.1635
10249TIP3    H154942   5.042   1.508   1.584  0.8869  0.6038 -1.3305
10249TIP3    H254943   5.159   1.587   1.638  0.0853  0.3838  0.8015
10250TIP3   OH254944   4.600   7.615   7.123 -0.3340  0.2864  0.3354
10250TIP3    H154945   4.656   7.538   7.127 -0.1111  0.4871  1.3974
10250TIP3    H254946   4.521   7.589   7.171 -0.1104  0.8221  1.0114
10251TIP3   OH254947   3.023   5.602   9.342  0.8954  0.1909  0.0947
10251TIP3    H154948   2.966   5.669   9.305  0.1490  0.3549  1.4760
10251TIP3    H254949   3.018   5.529   9.279 -1.9256 -0.3269  0.7776
10252TIP3   OH254950   5.948   0.186   9.239 -0.0378 -0.1153 -0.1194
10252TIP3    H154951   5.895   0.216   9.164  1.1174  1.5139 -0.3420
10252TIP3    H254952   5.885   0.174   9.309 -0.8232  1.1008 -0.5787
10253TIP3   OH254953   2.467   0.473   1.462  0.0446  0.1945  0.5078
10253TIP3    H154954   2.470   0.474   1.367  0.5821 -0.3873  0.5087
10253TIP3    H254955   2.515   0.394   1.487  0.1601  0.4896  1.2683
10254TIP3   OH254956   1.861   1.183   9.370  0.0321  0.2278 -0.2080
10254TIP3    H154957   1.799   1.237   9.322  1.0169  1.0217 -0.6215
10254TIP3    H254958   1.937   1.175   9.312  0.7449  0.1721  0.7004
10255TIP3   OH254959   1.521   4.339   2.299  0.0833  0.1178 -0.1899
10255TIP3    H154960   1.608   4.300   2.309 -0.1257  0.0336  1.7210
10255TIP3    H254961   1.463   4.265   2.281  0.3293  0.1309 -1.0940
10256TIP3   OH254962   1.785   6.744   0.033  0.0212  0.2497 -0.0700
10256TIP3    H154963   1.786   6.735  -0.062 -0.6074 -0.1026 -0.0469
10256TIP3    H254964   1.877   6.749   0.058  0.2447 -1.1478 -0.5604
10257TIP3   OH254965   6.134   0.446   9.279  0.7774  0.4606  0.2829
10257TIP3    H154966   6.121   0.476   9.370  1.5473  2.2290 -0.1293
10257TIP3    H254967   6.049   0.457   9.238  0.5075 -0.0221  0.6962
10258TIP3   OH254968   0.632   2.429   9.166  0.7309 -0.0928  0.1900
10258TIP3    H154969   0.543   2.428   9.130 -0.8017  2.2062  3.4267
10258TIP3    H254970   0.631   2.361   9.233  1.9867 -1.1194 -0.7955
10259TIP3   OH254971   6.282   1.677   8.042  0.3320 -0.1058  0.1190
10259TIP3    H154972   6.327   1.682   7.957  0.7495 -2.5735  0.1044
10259TIP3    H254973   6.258   1.585   8.050 -0.6183  0.2804  2.2430
10260TIP3   OH254974   4.545   5.956   2.136 -0.0668  0.5826 -0.4345
10260TIP3    H154975   4.584   6.039   2.163  1.5985 -0.2043 -0.2992
10260TIP3    H254976   4.465   5.981   2.090  0.6505  2.2828 -0.8422
10261TIP3   OH254977   2.059   5.622   2.340 -0.2974 -0.3591 -0.4215
10261TIP3    H154978   2.021   5.538   2.313 -0.3563 -0.3870 -0.2513
10261TIP3    H254979   2.153   5.605   2.348 -0.2056 -0.2205 -1.1222
10262TIP3   OH254980   6.794   1.445   1.257  0.3208  0.4333 -0.1185
10262TIP3    H154981   6.887   1.468   1.249 -0.1303  2.3212 -0.6492
10262TIP3    H254982   6.755   1.522   1.298 -1.1448  0.0101 -0.6723
10263TIP3   OH254983   2.478   7.401   0.329 -0.4384 -0.4613 -0.5666
10263TIP3    H154984   2.536   7.371   0.399  0.5691 -0.1141 -1.2324
10263TIP3    H254985   2.532   7.397   0.250 -1.7156 -1.3402 -1.4214
10264TIP3   OH254986   5.107   5.929   6.824 -0.6002  0.4214 -0.5124
10264TIP3    H154987   5.038   5.876   6.784 -1.1690 -0.2342  1.2440
10264TIP3    H254988   5.165   5.865   6.866  0.0456  1.0714 -0.3858
10265TIP3   OH254989   0.178   6.631   9.619  0.7217  0.0864 -0.5439
10265TIP3    H154990   0.170   6.619   9.524 -1.2860 -0.2848 -0.3588
10265TIP3    H254991   0.132   6.557   9.657 -1.8768  2.1796  0.6902
10266TIP3   OH254992   5.378   6.859   9.590  0.2691 -0.0646 -0.4509
10266TIP3    H154993   5.382   6.766   9.571 -3.3408 -0.1573 -1.4688
10266TIP3    H254994   5.402   6.902   9.507 -0.9226 -0.1819 -0.8706
10267TIP3   OH254995   7.144   0.522   2.189 -0.4662 -0.0586  0.3310
10267TIP3    H154996   7.221   0.540   2.134 -0.2262 -0.6102  0.4812
10267TIP3    H254997   7.103   0.446   2.149  0.6165 -1.4921  1.8118
10268TIP3   OH254998   5.897   6.935   7.631  0.1584  0.0901 -0.5089
10268TIP3    H154999   5.849   6.857   7.603  0.6846 -0.2580 -0.4535
10268TIP3    H255000   5.830   7.003   7.638 -0.7240 -0.9428  1.8131
10269TIP3   OH255001   4.772   2.582   0.549  0.1558  0.0515  0.1015
10269TIP3    H155002   4.713   2.657   0.560 -0.4376 -0.2222 -1.0068
10269TIP3    H255003   4.727   2.510   0.592  1.0013  0.4346  1.6846
10270TIP3   OH255004   7.490   6.644   2.119 -0.0971  0.2550 -0.1870
10270TIP3    H155005   7.429   6.578   2.152  0.9147 -0.6594 -0.1135
10270TIP3    H255006   7.525   6.607   2.038  0.4119  0.7374 -0.1964
10271TIP3   OH255007   2.600   6.968   2.639 -0.3687  0.1820  0.1465
10271TIP3    H155008   2.515   7.000   2.611 -0.8530 -0.3409  0.9736
10271TIP3    H255009   2.582   6.880   2.673  0.0506  1.0024  2.6455
10272TIP3   OH255010   5.761   0.189   9.837 -0.4797 -0.0158  0.8539
10272TIP3    H155011   5.818   0.138   9.895 -1.4942 -1.6651  0.4722
10272TIP3    H255012   5.811   0.269   9.818  1.9104 -1.5698  0.1489
10273TIP3   OH255013   3.003   7.134   0.871  0.0018  0.7788 -0.2010
10273TIP3    H155014   2.971   7.113   0.783 -2.4999  1.2516  0.5127
10273TIP3    H255015   3.097   7.118   0.867 -0.1594  0.0534 -2.7350
10274TIP3   OH255016   2.786   6.892   7.733 -0.0096 -0.6295  0.0260
10274TIP3    H155017   2.780   6.820   7.796 -3.3894 -0.3598  0.1520
10274TIP3    H255018   2.759   6.969   7.783 -0.8737 -0.0795 -1.2550
10275TIP3   OH255019   1.797   1.787   0.940  0.3361 -0.1084  0.1059
10275TIP3    H155020   1.773   1.818   1.027 -2.1577  1.3218 -0.9875
10275TIP3    H255021   1.873   1.840   0.916 -0.2658  1.0106  0.5979
10276TIP3   OH255022   2.384   4.923   1.928  0.2283  0.4135 -0.3498
10276TIP3    H155023   2.448   4.937   1.858  0.6400 -0.5051 -0.1722
10276TIP3    H255024   2.419   4.848   1.977  0.0167  1.1201  0.9108
10277TIP3   OH255025   5.463   2.576   9.889  0.8420 -0.2817  0.1324
10277TIP3    H155026   5.518   2.603   9.962  1.3223  3.3746 -1.3864
10277TIP3    H255027   5.521   2.529   9.830  1.5861  0.6964  0.0654
10278TIP3   OH255028   2.308   4.787   9.256 -0.2161 -0.1989 -0.3931
10278TIP3    H155029   2.376   4.724   9.232  0.4879  0.0017  1.0014
10278TIP3    H255030   2.350   4.846   9.318 -1.0956  1.1767 -1.0581
10279TIP3   OH255031   3.056   1.118   1.433  0.1156  0.0575  0.1508
10279TIP3    H155032   3.103   1.108   1.350  1.2872 -2.0494  0.9913
10279TIP3    H255033   3.113   1.076   1.498 -1.7508 -0.2503  1.6628
10280TIP3   OH255034   2.689   2.943   1.559 -0.1449 -0.4496 -0.2991
10280TIP3    H155035   2.693   2.849   1.573  0.0772 -0.3190  0.6033
10280TIP3    H255036   2.703   2.954   1.465 -0.7079 -1.3434 -0.4976
10281TIP3   OH255037   5.042   2.723   6.910  0.1705  0.1291  0.3035
10281TIP3    H155038   5.059   2.633   6.937 -0.8115  0.5617  2.5410
10281TIP3    H255039   5.127   2.766   6.916  0.7187 -0.6635 -1.0980
10282TIP3   OH255040   6.223   3.666   7.123  0.1188 -0.8267  0.8903
10282TIP3    H155041   6.226   3.575   7.093  0.8009 -0.8281  0.9461
10282TIP3    H255042   6.138   3.675   7.166 -1.2315 -0.6429 -1.6209
10283TIP3   OH255043   7.337   7.138   8.600 -0.1145  0.0631  0.4134
10283TIP3    H155044   7.245   7.119   8.583 -0.5393  1.0537  1.4207
10283TIP3    H255045   7.362   7.200   8.532 -0.0933 -0.4600 -0.0576
10284TIP3   OH255046   1.251   3.609   1.889  0.2189 -0.4073  0.7546
10284TIP3    H155047   1.170   3.623   1.939  0.3704  0.9983  0.6512
10284TIP3    H255048   1.230   3.641   1.801  0.9971  0.3078  0.8258
10285TIP3   OH255049   4.234   6.205   8.261 -1.0379  0.0271  0.1232
10285TIP3    H155050   4.197   6.220   8.174  1.9060  0.7576 -1.0946
10285TIP3    H255051   4.182   6.133   8.297 -2.6645  0.0507 -2.0009
10286TIP3   OH255052   4.627   6.408   0.033  1.0201 -0.4119 -0.2291
10286TIP3    H155053   4.712   6.363   0.032  0.2542 -1.9052 -0.5211
10286TIP3    H255054   4.584   6.379  -0.048 -0.4879 -1.1063  0.7837
10287TIP3   OH255055   4.872   3.918   7.194 -0.0183 -0.2395  0.1505
10287TIP3    H155056   4.818   3.923   7.273  1.6047  0.2361  1.2684
10287TIP3    H255057   4.847   3.996   7.144 -1.1534 -0.6118  0.1063
10288TIP3   OH255058   2.264   6.649   7.305 -0.0963 -0.0800 -0.2411
10288TIP3    H155059   2.227   6.690   7.227  1.3704  0.0563 -0.8827
10288TIP3    H255060   2.308   6.570   7.273  2.0180  0.8740  0.1477
10289TIP3   OH255061   3.804   5.349   8.078 -0.5271 -0.1039  0.2302
10289TIP3    H155062   3.802   5.290   8.003  2.3497  0.2207 -0.1868
10289TIP3    H255063   3.736   5.414   8.059 -0.6407 -0.7003 -1.5219
10290TIP3   OH255064   1.656   5.534   8.219 -0.0926 -0.3772 -0.2569
10290TIP3    H155065   1.741   5.554   8.180 -0.2153 -0.3538 -0.5143
10290TIP3    H255066   1.618   5.620   8.239 -1.3754 -0.2263 -2.9733
10291TIP3   OH255067   7.394   1.479   2.606 -0.6521 -0.2169  0.1807
10291TIP3    H155068   7.386   1.534   2.684 -0.5178  2.0286 -1.3093
10291TIP3    H255069   7.484   1.490   2.577 -0.2597 -2.2330  0.5039
10292TIP3   OH255070   7.478   0.264   2.144 -0.7932  0.0172  0.3647
10292TIP3    H155071   7.447   0.351   2.117 -0.6168 -0.0447 -0.0577
10292TIP3    H255072   7.453   0.257   2.236 -2.6035 -0.2857 -0.1167
10293TIP3   OH255073   2.295   4.610   0.085  0.4104  0.6285  0.6217
10293TIP3    H155074   2.264   4.659   0.009 -0.5440 -1.0165 -0.1245
10293TIP3    H255075   2.387   4.592   0.066 -0.0234 -0.4905 -0.6022
10294TIP3   OH255076   0.325   3.819   6.689  0.0040  0.0264  0.4342
10294TIP3    H155077   0.262   3.757   6.650 -0.7886  0.4396  1.0431
10294TIP3    H255078   0.310   3.812   6.783  0.3570  0.6764  0.5415
10295TIP3   OH255079   1.518   6.779   2.519  0.5796 -0.0989  0.1434
10295TIP3    H155080   1.477   6.865   2.520  0.4958 -0.1420  0.4563
10295TIP3    H255081   1.554   6.768   2.607  1.1052 -0.1373 -0.0740
10296TIP3   OH255082   5.818   1.672   0.140  0.0205  0.0977  0.4832
10296TIP3    H155083   5.758   1.597   0.135  1.6583 -1.2816  0.8329
10296TIP3    H255084   5.839   1.691   0.049 -0.8811  0.5719  0.3567
10297TIP3   OH255085   4.769   6.628   2.921  0.4281  0.6794  0.3121
10297TIP3    H155086   4.846   6.682   2.940 -0.3193  1.6756  0.6224
10297TIP3    H255087   4.699   6.692   2.905 -0.1603 -0.1970 -0.7286
10298TIP3   OH255088   5.702   0.559   1.131 -0.6786  0.1985  0.6834
10298TIP3    H155089   5.696   0.464   1.122 -0.3476  0.2673 -0.3978
10298TIP3    H255090   5.777   0.572   1.190 -2.0508 -0.2410  2.6152
10299TIP3   OH255091   4.971   1.004   1.638 -0.5882  0.2298  0.4195
10299TIP3    H155092   4.876   1.003   1.634 -0.6079  0.8434  0.6063
10299TIP3    H255093   4.996   1.080   1.585 -0.1607 -0.4121 -0.3275
10300TIP3   OH255094   1.196   4.778   9.710 -0.0366  0.4725  0.6258
10300TIP3    H155095   1.120   4.819   9.749  0.2691  1.5128  0.1530
10300TIP3    H255096   1.241   4.848   9.663  0.9901 -0.2038  0.5480
10301TIP3   OH255097   2.130   1.038   0.885  0.8310 -0.2961 -0.1349
10301TIP3    H155098   2.041   1.028   0.918 -0.0216  2.0415 -1.4492
10301TIP3    H255099   2.133   0.983   0.807  0.6135 -0.5818  0.0564
10302TIP3   OH255100   7.272   3.651   0.725  0.3205 -0.0134 -0.5110
10302TIP3    H155101   7.306   3.637   0.636 -0.1856  1.2749 -0.9276
10302TIP3    H255102   7.350   3.672   0.777  0.4725  0.4953 -0.9353
10303TIP3   OH255103   0.462   1.967   9.205 -0.3805  0.0583 -0.2489
10303TIP3    H155104   0.381   1.951   9.252 -0.5435  1.8272  0.1322
10303TIP3    H255105   0.522   2.003   9.271  0.1489  0.3729 -0.8821
10304TIP3   OH255106   3.112   7.342   9.426 -0.4994  0.8362  0.7360
10304TIP3    H155107   3.155   7.426   9.408  0.8952  0.0209  0.1416
10304TIP3    H255108   3.022   7.366   9.446 -0.0014  2.5282  1.1338
10305TIP3   OH255109   7.550   2.940   8.648 -0.6202 -0.2168  0.5467
10305TIP3    H155110   7.505   2.856   8.638  0.5700 -0.6026 -3.1716
10305TIP3    H255111   7.640   2.917   8.671 -0.4951  0.0715  0.3576
10306TIP3   OH255112   5.834   1.761   0.419 -0.1663  0.3706  0.0640
10306TIP3    H155113   5.850   1.814   0.341 -0.1243 -0.1552 -0.2919
10306TIP3    H255114   5.757   1.709   0.396 -0.4309  0.5519  0.5497
10307TIP3   OH255115   4.085   1.869   8.742  0.1882 -0.7126  0.5352
10307TIP3    H155116   4.010   1.906   8.789  1.1485 -0.5258  1.9821
10307TIP3    H255117   4.046   1.830   8.663 -1.0528  2.1088 -0.4002
10308TIP3   OH255118   6.059   6.361   2.635  0.9759 -0.0850 -0.5501
10308TIP3    H155119   5.997   6.372   2.563 -1.4343 -2.2582  1.0038
10308TIP3    H255120   6.019   6.407   2.709  1.1115 -1.6418  0.5329
10309TIP3   OH255121   3.275   2.778   1.048 -0.3810  0.2015 -0.1331
10309TIP3    H155122   3.223   2.735   1.116 -0.0026 -0.1590 -0.0655
10309TIP3    H255123   3.223   2.772   0.969  0.5983 -2.3884 -0.6565
10310TIP3   OH255124   0.644   0.464   1.799  0.4079 -0.1427  0.3957
10310TIP3    H155125   0.719   0.502   1.753 -1.0129  1.1798 -0.9496
10310TIP3    H255126   0.587   0.539   1.817 -0.3076 -1.0180  1.9861
10311TIP3   OH255127   7.597   1.849   0.303 -0.0080  0.0007 -0.2295
10311TIP3    H155128   7.594   1.944   0.298  0.1366 -0.0386 -1.1487
10311TIP3    H255129   7.567   1.819   0.217  1.5174 -0.7559 -0.5371
10312TIP3   OH255130   1.692   0.749   7.750 -0.6044 -0.0999  0.1394
10312TIP3    H155131   1.740   0.667   7.762 -0.4250 -0.0373 -0.1445
10312TIP3    H255132   1.756   0.817   7.770 -0.2854  0.0080 -1.1586
10313TIP3   OH255133   0.881   0.544   2.006  0.0473  0.6201 -0.8481
10313TIP3    H155134   0.965   0.531   2.051 -0.4275  1.0512  0.1891
10313TIP3    H255135   0.828   0.469   2.034 -0.1887  0.7932 -0.8312
10314TIP3   OH255136   2.120   2.735   8.077 -0.0956  0.2286  0.3289
10314TIP3    H155137   2.099   2.642   8.083  0.2153 -0.0714 -2.1397
10314TIP3    H255138   2.145   2.760   8.166 -1.6166 -1.6622  1.3531
10315TIP3   OH255139   4.488   7.347   2.046  0.1019 -0.2462  0.2981
10315TIP3    H155140   4.403   7.386   2.026  0.1686  0.1249  0.7182
10315TIP3    H255141   4.550   7.394   1.989  0.4109  1.3829  1.9092
10316TIP3   OH255142   2.690   1.158   2.600  0.2660  0.1263  0.2565
10316TIP3    H155143   2.622   1.164   2.667  0.3153  1.6492  0.2160
10316TIP3    H255144   2.769   1.134   2.648  0.1539  0.5144  0.6448
10317TIP3   OH255145   1.668   5.341   7.868 -0.7284  0.2640  0.1622
10317TIP3    H155146   1.727   5.406   7.904 -0.9394  0.4098  0.2495
10317TIP3    H255147   1.585   5.355   7.915 -0.8841  0.1808 -0.0844
10318TIP3   OH255148   6.698   0.544   1.347 -0.2298 -0.2650  0.3356
10318TIP3    H155149   6.629   0.583   1.293 -0.2007 -0.6382  0.0250
10318TIP3    H255150   6.652   0.497   1.416 -0.2636  0.5409  0.8814
10319TIP3   OH255151   4.372   6.893   8.759  0.2278  0.4967 -0.3839
10319TIP3    H155152   4.464   6.890   8.733  0.5202  0.3696  0.6393
10319TIP3    H255153   4.362   6.979   8.801  0.0305  0.2766  0.0240
10320TIP3   OH255154   3.703   6.879   2.410  0.2020 -0.1590 -0.1196
10320TIP3    H155155   3.697   6.876   2.505 -1.5743  1.6295 -0.1230
10320TIP3    H255156   3.661   6.961   2.385  0.9450 -0.4071 -2.4365
10321TIP3   OH255157   7.407   0.246   8.449  0.2521  0.5005  0.1331
10321TIP3    H155158   7.324   0.208   8.421 -0.1047  0.7383  0.8359
10321TIP3    H255159   7.427   0.203   8.532  2.1666 -1.4587 -1.2305
10322TIP3   OH255160   4.502   1.977   9.794  0.0398  0.8236 -0.4662
10322TIP3    H155161   4.590   2.014   9.802 -0.0540  0.9440  0.0745
10322TIP3    H255162   4.512   1.886   9.821 -0.4365  1.4420  2.0854
10323TIP3   OH255163   1.226   1.345   8.728  0.0218  0.4547 -0.8844
10323TIP3    H155164   1.238   1.438   8.706  1.3905  0.2086 -1.3040
10323TIP3    H255165   1.208   1.303   8.644  2.0127 -0.0065 -1.1432
10324TIP3   OH255166   0.578   2.138   9.010  0.2296 -0.2860 -0.0787
10324TIP3    H155167   0.518   2.212   9.010 -0.0445 -0.4869 -0.9280
10324TIP3    H255168   0.549   2.083   9.082  1.1698  0.9861  1.3175
10325TIP3   OH255169   5.404   1.694   8.322 -0.1854  0.1234 -0.4098
10325TIP3    H155170   5.391   1.607   8.283  1.9511  0.0620 -1.1356
10325TIP3    H255171   5.484   1.684   8.374  0.1293  1.6801 -0.5642
10326TIP3   OH255172   0.539   4.364   8.418  0.0340  0.0178 -0.0490
10326TIP3    H155173   0.600   4.375   8.490  1.2593 -0.3005 -1.0000
10326TIP3    H255174   0.594   4.367   8.339 -1.3374  1.1396 -1.0278
10327TIP3   OH255175   0.883   6.845   7.557  0.0757 -0.0953  0.6721
10327TIP3    H155176   0.917   6.932   7.537  2.3859 -1.1214 -0.2072
10327TIP3    H255177   0.948   6.807   7.617 -0.9619 -1.1793  1.1524
10328TIP3   OH255178   1.516   4.849   2.204 -0.2281  0.1234  0.0808
10328TIP3    H155179   1.583   4.792   2.168 -1.0477  0.7503 -2.7248
10328TIP3    H255180   1.514   4.924   2.145 -2.8812  0.4471  0.4277
10329TIP3   OH255181   1.298   3.082   6.570 -0.0743  0.3562 -0.1478
10329TIP3    H155182   1.322   3.076   6.662  0.9838  0.3437 -0.4151
10329TIP3    H255183   1.370   3.132   6.530 -0.2583 -0.0989 -1.0600
10330TIP3   OH255184   6.482   7.641   7.636  0.4160  0.2530  0.3232
10330TIP3    H155185   6.436   7.704   7.691 -0.5405 -0.8768  0.8558
10330TIP3    H255186   6.527   7.695   7.571 -1.1752  1.4680  0.1451
10331TIP3   OH255187   0.432   5.285   7.147 -0.0507  0.7068  0.0094
10331TIP3    H155188   0.342   5.315   7.138 -0.3178  0.7118  2.2474
10331TIP3    H255189   0.455   5.304   7.238  2.0681  0.3020 -0.3910
10332TIP3   OH255190   3.748   4.292   9.754  0.4042  0.0219  0.1232
10332TIP3    H155191   3.702   4.347   9.690 -0.3882  0.0109  0.6633
10332TIP3    H255192   3.715   4.203   9.737 -1.7813  0.3311  2.1304
10333TIP3   OH255193   4.823   7.052   9.730  0.1208  0.1119  0.9378
10333TIP3    H155194   4.897   6.991   9.725  1.2449  1.5250 -2.4943
10333TIP3    H255195   4.754   7.009   9.680  0.1808  0.6854  0.3488
10334TIP3   OH255196   7.338   3.505   1.090  0.1103  0.2157  0.5922
10334TIP3    H155197   7.428   3.493   1.059 -0.8791 -0.4649 -2.3259
10334TIP3    H255198   7.311   3.589   1.054 -0.1393  0.9317  2.3414
10335TIP3   OH255199   5.086   5.845   8.574 -0.2119 -0.4825  0.0244
10335TIP3    H155200   5.063   5.936   8.554 -0.0155 -0.5298 -0.4297
10335TIP3    H255201   5.026   5.793   8.520  1.5061 -0.6104 -1.8772
10336TIP3   OH255202   3.183   6.625   1.042  0.2623  0.0082 -0.2042
10336TIP3    H155203   3.101   6.662   1.073 -0.1903 -0.8266 -0.3516
10336TIP3    H255204   3.157   6.541   1.002  1.0727  0.1356 -1.0378
10337TIP3   OH255205   3.239   0.422   1.575 -0.0839 -0.0677 -0.6391
10337TIP3    H155206   3.269   0.349   1.521  1.1601  0.7698 -1.1164
10337TIP3    H255207   3.291   0.416   1.655  0.2224  0.4461 -0.7941
10338TIP3   OH255208   3.810   6.497   1.027  0.0161 -0.3445 -1.0004
10338TIP3    H155209   3.715   6.503   1.015 -0.2281 -0.2257  0.7399
10338TIP3    H255210   3.822   6.426   1.090  1.1822 -1.0981 -2.0327
10339TIP3   OH255211   3.062   2.023   0.011 -0.3879  0.5437  0.0975
10339TIP3    H155212   3.080   1.932   0.036  0.4621  0.5815 -0.3225
10339TIP3    H255213   3.101   2.031  -0.076  2.8102  2.2571  1.4835
10340TIP3   OH255214   0.697   6.066   9.715 -0.0898  0.3650  0.2818
10340TIP3    H155215   0.719   6.001   9.781  2.4061  0.7965 -0.0307
10340TIP3    H255216   0.702   6.150   9.760 -1.5902  0.4949  0.2688
10341TIP3   OH255217   2.549   5.671   9.414 -0.3106 -0.2767 -0.9549
10341TIP3    H155218   2.605   5.711   9.348 -1.2026  0.7397 -1.1125
10341TIP3    H255219   2.485   5.739   9.435 -1.1762 -1.2491 -0.4113
10342TIP3   OH255220   0.897   0.725   0.514  0.2394  0.0248  0.1141
10342TIP3    H155221   0.822   0.784   0.523  0.3912  0.0581  1.3385
10342TIP3    H255222   0.936   0.748   0.430 -0.8414  0.3297 -0.3242
10343TIP3   OH255223   5.244   3.994   9.701 -0.1952 -0.2539  0.2455
10343TIP3    H155224   5.321   4.050   9.711 -0.1948 -0.4098  1.1698
10343TIP3    H255225   5.267   3.913   9.745 -0.4293 -0.7650 -0.5523
10344TIP3   OH255226   3.428   1.415   8.617 -0.1904  0.1527 -0.2589
10344TIP3    H155227   3.365   1.486   8.604 -0.9438 -0.7669 -2.0437
10344TIP3    H255228   3.398   1.369   8.695 -1.2221  0.2527 -0.5875
10345TIP3   OH255229   3.606   4.382   0.494 -0.1379  0.7476 -0.2889
10345TIP3    H155230   3.588   4.292   0.520  0.4779  0.8716  0.6429
10345TIP3    H255231   3.552   4.435   0.553  1.7825  1.0602  1.3452
10346TIP3   OH255232   4.221   2.533   7.860  0.2930 -0.4586 -0.3419
10346TIP3    H155233   4.276   2.460   7.831 -1.4922 -1.3637 -1.6392
10346TIP3    H255234   4.210   2.587   7.781  1.1562  0.9764  0.4747
10347TIP3   OH255235   5.070   5.060   7.251  0.3477  0.0929  0.1418
10347TIP3    H155236   5.078   5.087   7.159 -0.3556  0.9704  0.3238
10347TIP3    H255237   4.986   5.096   7.279 -0.2324 -1.5768  0.6728
10348TIP3   OH255238   6.708   1.532   9.737  0.8313 -0.0680 -0.3558
10348TIP3    H155239   6.636   1.491   9.785  0.5566  0.0827 -0.6390
10348TIP3    H255240   6.691   1.626   9.744  2.1626  0.0989  1.4152
10349TIP3   OH255241   7.599   2.073   7.802 -0.3443  0.3159  0.2947
10349TIP3    H155242   7.640   2.154   7.772  1.5190 -0.2665  1.0958
10349TIP3    H255243   7.671   2.023   7.843 -1.5298 -1.5113  0.2879
10350TIP3   OH255244   0.043   5.187   8.778  0.0272  1.1318  0.1696
10350TIP3    H155245   0.057   5.281   8.790 -0.4626  1.0863  1.1676
10350TIP3    H255246  -0.051   5.175   8.786 -0.1444  0.7821 -1.7543
10351TIP3   OH255247   2.335   1.826   2.106 -0.2053  0.3622  0.6422
10351TIP3    H155248   2.269   1.850   2.170 -0.9458  0.0521  0.0078
10351TIP3    H255249   2.286   1.794   2.030  0.6881 -2.6919  1.2132
10352TIP3   OH255250   7.564   7.595   1.685 -0.0018 -0.1706  0.3150
10352TIP3    H155251   7.652   7.603   1.648  0.0564 -0.3446  0.4121
10352TIP3    H255252   7.516   7.668   1.648  0.0958 -0.2607  0.0061
10353TIP3   OH255253   6.606   7.139   0.720 -0.1764  0.3714  0.3548
10353TIP3    H155254   6.616   7.110   0.811 -0.1484  1.8681  0.8485
10353TIP3    H255255   6.685   7.107   0.676 -0.3754 -0.7108  0.7414
10354TIP3   OH255256   2.994   3.162   8.728 -0.5583  0.4811 -0.1960
10354TIP3    H155257   2.988   3.094   8.661 -0.6906 -0.3969  0.6823
10354TIP3    H255258   2.966   3.242   8.684  0.4945  0.1633 -1.5064
10355TIP3   OH255259   5.311   6.778   0.650 -0.1298 -0.6950 -0.2000
10355TIP3    H155260   5.383   6.714   0.649 -0.9574 -1.6400 -0.2327
10355TIP3    H255261   5.326   6.832   0.572 -0.7396 -2.3654 -1.5420
10356TIP3   OH255262   0.038   4.445   7.425 -0.4519  0.2710  0.0822
10356TIP3    H155263  -0.056   4.426   7.426 -0.5976  0.9559 -0.3312
10356TIP3    H255264   0.056   4.474   7.336 -0.0189  0.9862  0.3941
10357TIP3   OH255265   3.567   7.357   7.151 -0.3688 -0.5356 -0.3196
10357TIP3    H155266   3.582   7.444   7.188  1.2824 -0.6925 -0.5526
10357TIP3    H255267   3.545   7.374   7.059 -0.5091 -0.3457 -0.2524
10358TIP3   OH255268   3.709   1.290   1.948 -0.6648 -0.4237 -0.0988
10358TIP3    H155269   3.719   1.357   1.880  1.3228  0.1162  0.6455
10358TIP3    H255270   3.615   1.276   1.955 -1.1460  2.2283 -0.3372
10359TIP3   OH255271   6.900   3.346   0.689 -0.9090  0.2144 -0.1212
10359TIP3    H155272   6.853   3.370   0.609 -0.9223  0.7977  0.0606
10359TIP3    H255273   6.937   3.428   0.722  0.2341 -0.2352 -0.2458
10360TIP3   OH255274   5.767   3.837   8.897  0.3028  0.2653 -0.2353
10360TIP3    H155275   5.701   3.780   8.936  0.2442  1.3795  1.4125
10360TIP3    H255276   5.720   3.886   8.830 -0.0856 -0.2796 -0.3665
10361TIP3   OH255277   3.206   0.537   1.277  0.8656  0.1323  0.3211
10361TIP3    H155278   3.172   0.626   1.275 -0.0491 -0.0751  3.0897
10361TIP3    H255279   3.258   0.532   1.357  0.5276 -1.9288  0.4761
10362TIP3   OH255280   2.676   4.685   1.537 -0.0130  0.3982  0.4679
10362TIP3    H155281   2.759   4.645   1.566  0.1307  0.0032 -0.4620
10362TIP3    H255282   2.691   4.779   1.546 -0.2346  0.2985  2.3654
10363TIP3   OH255283   5.824   2.670   7.005 -0.9472  0.0881 -0.1538
10363TIP3    H155284   5.752   2.694   7.064 -1.1685  0.0731 -0.4163
10363TIP3    H255285   5.822   2.737   6.936 -0.7809  0.0226 -0.2230
10364TIP3   OH255286   2.443   5.834   7.836 -0.6839 -0.1945 -0.1823
10364TIP3    H155287   2.350   5.812   7.837 -1.0744  1.3704  0.5062
10364TIP3    H255288   2.458   5.882   7.918  0.0544  2.0937 -1.5547
10365TIP3   OH255289   5.446   3.355   9.766  0.1407  0.6646 -0.0250
10365TIP3    H155290   5.443   3.328   9.674 -1.5647  0.3352  0.1068
10365TIP3    H255291   5.498   3.435   9.765  0.1529  0.6616 -1.2790
10366TIP3   OH255292   0.701   1.372   1.938 -0.0198  0.4219 -0.1991
10366TIP3    H155293   0.660   1.292   1.905  0.2463  0.6528 -1.1178
10366TIP3    H255294   0.742   1.345   2.020  1.1094 -0.7170 -1.0787
10367TIP3   OH255295   1.439   3.652   1.504  0.5330 -0.0720  0.9387
10367TIP3    H155296   1.380   3.724   1.528  1.0556  0.5925  0.2856
10367TIP3    H255297   1.472   3.676   1.417  1.8895 -0.3271  1.3452
10368TIP3   OH255298   0.783   3.954   8.908  0.0503 -0.3145 -0.5113
10368TIP3    H155299   0.819   4.028   8.956 -1.3750 -0.2100  0.4709
10368TIP3    H255300   0.828   3.878   8.943 -0.0323 -0.1086  0.0465
10369TIP3   OH255301   2.148   7.047   8.014 -0.3327  0.3934 -0.0437
10369TIP3    H155302   2.059   7.066   7.985 -1.0526  0.1909  1.9439
10369TIP3    H255303   2.149   6.953   8.030 -0.3449  0.6667  1.7357
10370TIP3   OH255304   3.494   4.006   8.351  0.1696  0.4184  0.4650
10370TIP3    H155305   3.502   3.964   8.265  1.5059 -0.1752  0.8510
10370TIP3    H255306   3.422   4.068   8.341 -0.5857 -0.6133 -0.6813
10371TIP3   OH255307   0.860   3.374   2.684  0.4394 -0.0201 -0.0418
10371TIP3    H155308   0.892   3.363   2.774 -0.7015 -2.6054  0.1356
10371TIP3    H255309   0.765   3.367   2.691  0.3443 -0.5400 -1.4724
10372TIP3   OH255310   1.542   2.384   0.826 -0.2251 -0.0002 -0.2102
10372TIP3    H155311   1.560   2.478   0.817 -1.4598  0.1418 -1.4763
10372TIP3    H255312   1.602   2.343   0.763  0.7494 -0.1472  0.7727
10373TIP3   OH255313   4.406   0.051   8.843 -0.0022  0.3093 -0.4076
10373TIP3    H155314   4.465   0.087   8.910  1.7073 -0.4269 -1.4619
10373TIP3    H255315   4.439   0.087   8.760  2.8863 -4.6412 -1.7963
10374TIP3   OH255316   6.876   3.005   7.363 -0.2345  0.2576 -0.1513
10374TIP3    H155317   6.844   2.944   7.297  0.9730 -0.8374  0.2412
10374TIP3    H255318   6.956   3.042   7.325 -0.4370  0.8945  0.0197
10375TIP3   OH255319   2.537   5.933   9.636 -0.1785 -0.5251  0.0920
10375TIP3    H155320   2.494   5.917   9.551 -0.8751  0.8213  0.1547
10375TIP3    H255321   2.467   5.923   9.700  0.0477 -0.2720  0.3815
10376TIP3   OH255322   3.768   7.584   0.809  0.4056  0.2103 -0.4488
10376TIP3    H155323   3.797   7.494   0.795 -1.3618 -0.5821  0.5871
10376TIP3    H255324   3.733   7.611   0.724  2.1071  0.4079 -1.1095
10377TIP3   OH255325   0.770   6.089   1.641  0.3965 -0.3704 -0.6757
10377TIP3    H155326   0.766   5.996   1.661 -0.7094 -0.4691 -1.3155
10377TIP3    H255327   0.798   6.093   1.550  2.0117 -0.0066 -0.2153
10378TIP3   OH255328   6.054   3.752   8.226  0.9105 -0.6922 -0.5028
10378TIP3    H155329   6.079   3.674   8.275  1.4557  0.4280  1.0965
10378TIP3    H255330   6.123   3.816   8.246 -0.1338  0.5746 -0.8044
10379TIP3   OH255331   0.584   7.034   9.145 -0.1443  0.1362  0.5019
10379TIP3    H155332   0.503   7.081   9.164 -0.8596 -0.2240 -1.4271
10379TIP3    H255333   0.648   7.102   9.127  0.3514  0.4666  3.0354
10380TIP3   OH255334   7.129   2.327   3.152  0.2346 -0.8014 -0.0702
10380TIP3    H155335   7.193   2.288   3.092 -0.5582  0.6307 -1.9425
10380TIP3    H255336   7.175   2.401   3.192 -0.4610  0.9477 -2.2783
10381TIP3   OH255337   1.663   0.092   0.756 -0.2411  0.7262  0.0019
10381TIP3    H155338   1.659   0.005   0.796 -0.0867  1.4431  1.6721
10381TIP3    H255339   1.754   0.102   0.729  0.2884  1.1720  1.8095
10382TIP3   OH255340   6.079   0.718   1.120 -0.2212 -0.0847 -0.4425
10382TIP3    H155341   6.011   0.715   1.186  0.9354 -1.7948  0.7580
10382TIP3    H255342   6.121   0.803   1.132  0.1828 -0.4846  1.3174
10383TIP3   OH255343   4.876   2.068   2.690  0.2074  0.2286  0.4536
10383TIP3    H155344   4.844   2.068   2.780 -0.6333 -2.9254  0.2930
10383TIP3    H255345   4.802   2.099   2.638  0.0809  0.3605  0.7094
10384TIP3   OH255346   7.459   5.655   2.107 -0.2701  0.4355 -0.0304
10384TIP3    H155347   7.507   5.574   2.121  0.9899  0.9080 -1.3465
10384TIP3    H255348   7.449   5.693   2.194 -0.0075 -0.6421  0.4847
10385TIP3   OH255349   6.356   7.441   0.148  0.0263 -0.0512 -0.4685
10385TIP3    H155350   6.327   7.384   0.077 -0.7212 -0.6468  0.2765
10385TIP3    H255351   6.275   7.465   0.193  0.4297  0.8025 -0.1736
10386TIP3   OH255352   2.382   1.895   9.756  0.5470 -0.5853 -0.5252
10386TIP3    H155353   2.353   1.848   9.834 -0.2990  0.1912 -0.3571
10386TIP3    H255354   2.319   1.872   9.688  0.1151  0.2803 -0.4378
10387TIP3   OH255355   7.122   1.164   7.106 -0.1838 -0.2766 -0.4805
10387TIP3    H155356   7.168   1.092   7.062 -0.2046 -2.4366  2.6777
10387TIP3    H255357   7.191   1.214   7.150 -0.2914  0.9644 -1.6551
10388TIP3   OH255358   0.240   3.405   3.183 -0.2784 -0.6376  0.0960
10388TIP3    H155359   0.313   3.448   3.227 -2.1379 -0.9760  3.9537
10388TIP3    H255360   0.274   3.318   3.160  0.5804 -0.8632  1.9921
10389TIP3   OH255361   0.472   0.302   1.363  0.3322 -0.1907 -0.0545
10389TIP3    H155362   0.475   0.211   1.332  2.9554 -1.5186  3.4663
10389TIP3    H255363   0.555   0.340   1.335  0.6937  0.0266  1.2376
10390TIP3   OH255364   3.160   5.027   1.741  0.0677 -0.3576  0.4563
10390TIP3    H155365   3.225   5.081   1.694 -0.8399  0.7324  0.3977
10390TIP3    H255366   3.205   4.999   1.820  1.2155 -1.1726 -0.4532
10391TIP3   OH255367   5.511   1.347   8.259  0.1621  0.1082  0.4868
10391TIP3    H155368   5.542   1.337   8.168  0.0765  0.5684  0.4023
10391TIP3    H255369   5.590   1.371   8.308  0.1093  0.4020  0.4317
10392TIP3   OH255370   0.972   3.140   2.482  0.6685 -0.6849 -0.0355
10392TIP3    H155371   0.920   3.221   2.485  1.8686  0.0999  1.2705
10392TIP3    H255372   0.915   3.074   2.520  0.9247  0.4059  2.4811
10393TIP3   OH255373   4.921   5.658   7.372  0.0748  0.1906 -0.2269
10393TIP3    H155374   4.945   5.589   7.311 -0.2437  0.2902 -0.4665
10393TIP3    H255375   5.005   5.695   7.400  0.2215  0.1818 -0.6460
10394TIP3   OH255376   7.128   3.064   8.118  0.0052  0.0543  0.1481
10394TIP3    H155377   7.093   3.058   8.206 -1.9568  0.6523 -0.5257
10394TIP3    H255378   7.082   3.138   8.079 -1.0777 -1.6557 -2.1341
10395TIP3   OH255379   5.425   3.898   8.330  0.6126 -0.0036 -0.2212
10395TIP3    H155380   5.518   3.919   8.328  0.9336 -1.0418  1.5406
10395TIP3    H255381   5.385   3.971   8.377  0.8616 -0.4558  0.7324
10396TIP3   OH255382   3.088   6.379   0.967 -0.1539 -0.5887 -0.8780
10396TIP3    H155383   3.107   6.341   0.881 -0.3819  1.1251 -1.7450
10396TIP3    H255384   3.033   6.315   1.010  0.5293 -1.7973 -1.7371
10397TIP3   OH255385   0.742   7.429   7.106  0.1936  0.0362  0.7058
10397TIP3    H155386   0.732   7.521   7.085  0.5302 -0.5020 -2.1947
10397TIP3    H255387   0.671   7.410   7.167 -1.8816  1.5244 -1.1295
10398TIP3   OH255388   6.416   6.176   1.358  0.0664 -0.5699 -0.5691
10398TIP3    H155389   6.412   6.217   1.272 -1.1101 -5.5020 -3.2611
10398TIP3    H255390   6.501   6.131   1.359 -1.6449 -4.2115 -1.3819
10399TIP3   OH255391   7.656   0.552   8.321  0.2808 -0.1833 -0.0347
10399TIP3    H155392   7.623   0.467   8.292 -1.5823  0.1223  1.0499
10399TIP3    H255393   7.685   0.595   8.241  2.2948 -2.2028 -0.5113
10400TIP3   OH255394   6.941   1.118   9.517 -0.1284  0.0426 -0.0479
10400TIP3    H155395   6.877   1.066   9.565 -0.3339 -0.5985 -0.9867
10400TIP3    H255396   6.889   1.188   9.477  0.1472  1.0032  1.2139
10401TIP3   OH255397   0.300   5.070   1.413 -0.2318  0.1681 -0.1660
10401TIP3    H155398   0.254   5.047   1.494  1.2238  0.9792  0.9303
10401TIP3    H255399   0.313   5.165   1.419 -0.3022  0.2804 -1.4745
10402TIP3   OH255400   3.986   2.422   0.662 -0.1772 -0.4177 -0.3330
10402TIP3    H155401   3.938   2.437   0.744 -1.9651 -0.8955 -1.2463
10402TIP3    H255402   4.044   2.498   0.654 -0.3376 -0.1025  1.0960
10403TIP3   OH255403   4.758   7.183   7.469 -0.2299  0.0597  1.0146
10403TIP3    H155404   4.728   7.104   7.513  0.3570 -1.0786 -0.5553
10403TIP3    H255405   4.678   7.235   7.456 -0.4261  0.4774  3.3714
10404TIP3   OH255406   4.491   3.213   9.933 -0.1498 -0.4425 -0.0585
10404TIP3    H155407   4.521   3.300   9.906  0.0671 -0.2989  0.6159
10404TIP3    H255408   4.477   3.221  10.028 -1.1322 -0.8549 -0.1582
10405TIP3   OH255409   6.372   5.914   0.253  0.5445 -0.3114  0.1641
10405TIP3    H155410   6.454   5.962   0.239  0.8265 -0.1428  2.0398
10405TIP3    H255411   6.344   5.942   0.340 -1.7748 -0.0343 -0.6204
10406TIP3   OH255412   1.811   2.785   2.291  0.2011  0.2895 -0.5354
10406TIP3    H155413   1.847   2.818   2.209  0.3622 -0.8688 -0.9485
10406TIP3    H255414   1.880   2.802   2.356  0.2566  0.7975 -0.7209
10407TIP3   OH255415   2.455   6.434   0.406 -0.0083 -0.3632  0.0509
10407TIP3    H155416   2.485   6.434   0.315  1.0025 -1.4665  0.3618
10407TIP3    H255417   2.363   6.408   0.401  0.5715 -2.4670 -0.5404
10408TIP3   OH255418   0.592   7.516   7.456  0.3569 -0.1000  0.7524
10408TIP3    H155419   0.677   7.480   7.482  0.4655  0.6300  1.4212
10408TIP3    H255420   0.607   7.610   7.449  0.3447 -0.2154 -1.9780
10409TIP3   OH255421   6.565   0.970   1.965  0.4087 -0.1256  0.1777
10409TIP3    H155422   6.514   0.929   1.895 -0.5891  1.2881  0.0251
10409TIP3    H255423   6.652   0.930   1.958  0.4281  0.1517 -2.0583
10410TIP3   OH255424   1.557   2.332   9.273 -0.3698  0.6223 -0.2380
10410TIP3    H155425   1.612   2.301   9.345 -1.8104 -1.4351  0.0690
10410TIP3    H255426   1.605   2.405   9.236  0.7632  1.3339  2.3800
10411TIP3   OH255427   4.898   1.412   2.445  0.3634  0.0533  0.3825
10411TIP3    H155428   4.910   1.332   2.497 -0.1667 -0.1829  0.1494
10411TIP3    H255429   4.828   1.459   2.490  1.0428  0.6591  0.8320
10412TIP3   OH255430   1.985   7.320   7.833  0.2167 -0.3855  0.2122
10412TIP3    H155431   1.998   7.362   7.748  1.8243  1.4860  1.3079
10412TIP3    H255432   2.068   7.333   7.879 -0.5477 -1.5262  2.0078
10413TIP3   OH255433   1.559   5.941   6.950 -0.6911 -0.0234  0.1058
10413TIP3    H155434   1.487   5.886   6.920 -0.8028  0.6619 -0.9607
10413TIP3    H255435   1.530   6.030   6.932 -0.4046  0.3888  1.5530
10414TIP3   OH255436   3.998   6.166   9.204  0.3201 -0.7551  0.2312
10414TIP3    H155437   4.088   6.191   9.222  0.2225  0.1118 -0.3831
10414TIP3    H255438   3.972   6.112   9.278  1.3602 -1.0740  0.3730
10415TIP3   OH255439   0.793   6.678   2.066 -0.0180 -0.9057 -0.2425
10415TIP3    H155440   0.867   6.674   2.126  0.6977 -3.2634 -1.1569
10415TIP3    H255441   0.832   6.698   1.981 -0.9714  1.9944 -0.0951
10416TIP3   OH255442   3.095   5.141   0.648  0.1345  0.2230  0.1990
10416TIP3    H155443   3.153   5.065   0.648 -0.4487 -0.2544 -1.0900
10416TIP3    H255444   3.062   5.147   0.738 -2.0815 -2.8553 -0.2491
10417TIP3   OH255445   5.261   3.355   7.557 -0.1602  0.0668  0.2704
10417TIP3    H155446   5.326   3.295   7.593  0.4329 -0.7647 -2.0261
10417TIP3    H255447   5.241   3.320   7.470 -2.6476  1.0877  0.3303
10418TIP3   OH255448   0.935   4.017   7.534 -0.6047  0.4211 -0.4186
10418TIP3    H155449   0.961   4.004   7.443 -1.4361  0.5806 -0.6865
10418TIP3    H255450   1.006   4.070   7.571  0.6412 -1.1309 -0.4687
10419TIP3   OH255451   5.930   2.301   1.850  0.4656  0.9414 -0.1816
10419TIP3    H155452   5.838   2.325   1.839  0.9534  2.1730 -2.1659
10419TIP3    H255453   5.952   2.331   1.938 -1.4234 -0.9293  1.0132
10420TIP3   OH255454   2.617   1.692   1.791  0.0724 -0.3714  0.1257
10420TIP3    H155455   2.638   1.715   1.881 -0.4741  1.9930 -0.2643
10420TIP3    H255456   2.527   1.723   1.779 -0.1053 -1.2616 -1.0400
10421TIP3   OH255457   2.599   6.733   2.185 -0.1599 -0.1188  0.3019
10421TIP3    H155458   2.670   6.788   2.152 -2.5649  3.7567  1.0128
10421TIP3    H255459   2.617   6.724   2.279  0.4691 -1.0595  0.1108
10422TIP3   OH255460   3.069   1.864   1.153 -0.5663 -0.3295 -0.2933
10422TIP3    H155461   3.054   1.774   1.126  2.3722 -1.1684  0.5229
10422TIP3    H255462   3.136   1.896   1.092 -0.7351  0.9361  0.1515
10423TIP3   OH255463   5.466   7.430   1.868  0.3849 -0.3319  0.0746
10423TIP3    H155464   5.419   7.347   1.867 -0.6158  0.0854 -3.7070
10423TIP3    H255465   5.398   7.495   1.850  1.2013  1.3698  2.6329
10424TIP3   OH255466   3.452   0.780   0.414 -0.2523  0.0896 -0.2774
10424TIP3    H155467   3.519   0.801   0.478  1.7589 -0.9304 -1.9498
10424TIP3    H255468   3.393   0.856   0.415  0.5431  0.7321  1.6695
10425TIP3   OH255469   0.181   4.116   3.008  0.1081 -0.1193  0.0035
10425TIP3    H155470   0.157   4.046   3.069  1.7108 -0.0695  0.7645
10425TIP3    H255471   0.110   4.119   2.944 -0.2692 -2.0452  0.2915
10426TIP3   OH255472   4.933   3.051   0.128 -0.5258 -0.1001 -0.0590
10426TIP3    H155473   4.973   2.966   0.146 -0.5893 -0.1797 -0.2913
10426TIP3    H255474   4.884   3.072   0.208 -0.8166 -0.4540 -0.1466
10427TIP3   OH255475   3.397   0.969   7.446  0.5032  0.1277 -0.2535
10427TIP3    H155476   3.348   0.918   7.382  0.8308 -1.3254  0.6078
10427TIP3    H255477   3.480   0.990   7.402  0.7624 -0.9353 -0.2947
10428TIP3   OH255478   6.451   3.412   9.326  0.2063 -0.4295 -0.3029
10428TIP3    H155479   6.442   3.426   9.420 -0.1858 -0.4156 -0.3413
10428TIP3    H255480   6.527   3.354   9.317  0.3936 -0.2278  0.0043
10429TIP3   OH255481   3.271   4.375   1.205 -0.0374 -0.2466  1.2048
10429TIP3    H155482   3.192   4.326   1.185 -0.4156  0.8262 -0.1215
10429TIP3    H255483   3.340   4.309   1.212 -0.8662 -1.1059  1.4338
10430TIP3   OH255484   5.470   1.806   9.771 -0.2500 -0.5737 -0.1701
10430TIP3    H155485   5.423   1.734   9.729 -0.0983 -0.0545 -1.2731
10430TIP3    H255486   5.413   1.882   9.760  1.2382  0.3263 -2.5403
10431TIP3   OH255487   5.481   5.175   8.894  0.2834 -0.2103  0.1410
10431TIP3    H155488   5.465   5.212   8.807 -0.2260 -2.5060 -0.8217
10431TIP3    H255489   5.550   5.110   8.881  0.2790 -0.5293  1.4941
10432TIP3   OH255490   6.476   4.078   7.088  0.2773 -0.0795 -0.2809
10432TIP3    H155491   6.440   3.993   7.064 -0.5629  0.3699 -0.6298
10432TIP3    H255492   6.421   4.108   7.161 -0.4895  0.8931 -1.2300
10433TIP3   OH255493   7.481   7.246   0.221  0.3627 -0.0555 -0.4864
10433TIP3    H155494   7.504   7.163   0.180 -0.8644  0.2463 -1.8964
10433TIP3    H255495   7.395   7.267   0.186 -0.2998  0.7759  1.5177
10434TIP3   OH255496   1.003   3.836   9.878  0.0263 -0.3682 -0.5759
10434TIP3    H155497   0.970   3.747   9.884  0.9254 -0.6332  0.6339
10434TIP3    H255498   1.050   3.851   9.960  0.8470  0.8263 -1.2283
10435TIP3   OH255499   3.480   5.119   8.363  0.3935 -0.8559  0.3803
10435TIP3    H155500   3.571   5.149   8.371  0.2167 -0.3008  0.3406
10435TIP3    H255501   3.441   5.179   8.300  0.0396 -1.1912  0.2820
10436TIP3   OH255502   2.101   5.643   8.324  0.0052  0.5548 -0.7026
10436TIP3    H155503   2.059   5.587   8.259 -0.2457  1.0209 -0.9430
10436TIP3    H255504   2.089   5.732   8.291 -0.1279  0.7967 -0.0224
10437TIP3   OH255505   2.983   5.492   7.919 -0.2608 -0.2472  0.0763
10437TIP3    H155506   2.923   5.567   7.921 -0.0278 -0.0636  0.2475
10437TIP3    H255507   2.926   5.415   7.918 -0.5097 -0.0564 -0.6793
10438TIP3   OH255508   2.280   6.507   7.835 -0.0483 -0.1361 -0.2092
10438TIP3    H155509   2.198   6.544   7.804 -0.3698 -2.1949 -2.1284
10438TIP3    H255510   2.270   6.501   7.930 -1.1395  1.7835 -0.1678
10439TIP3   OH255511   4.733   2.970   8.795  0.0218 -0.2107  0.0679
10439TIP3    H155512   4.761   2.944   8.707  0.8573 -0.2960  0.3484
10439TIP3    H255513   4.691   2.892   8.831  1.2519 -0.7693  0.3784
   7.68049   7.68049  10.00000
