Title
20238
    1OSM      N    1   2.663   2.629  14.160
    1OSM    C15    2   2.673   2.686  14.022
    1OSM   H15A    3   2.755   2.642  13.967
    1OSM   H15B    4   2.694   2.792  14.028
    1OSM   H15C    5   2.582   2.670  13.965
    1OSM    C14    6   2.551   2.698  14.231
    1OSM   H14A    7   2.572   2.803  14.240
    1OSM   H14B    8   2.537   2.656  14.330
    1OSM   H14C    9   2.458   2.685  14.177
    1OSM    C13   10   2.628   2.484  14.144
    1OSM   H13A   11   2.707   2.430  14.093
    1OSM   H13B   12   2.540   2.476  14.081
    1OSM   H13C   13   2.607   2.438  14.239
    1OSM    C12   14   2.795   2.648  14.233
    1OSM   H12A   15   2.873   2.606  14.172
    1OSM   H12B   16   2.794   2.594  14.326
    1OSM    C11   17   2.840   2.794  14.262
    1OSM   H11A   18   2.929   2.792  14.329
    1OSM   H11B   19   2.761   2.847  14.319
    1OSM      P   20   3.002   2.834  14.063
    1OSM    O13   21   3.115   2.894  14.137
    1OSM    O14   22   3.007   2.687  14.042
    1OSM    O11   23   2.983   2.910  13.926
    1OSM    O12   24   2.868   2.867  14.142
    1OSM    C1S   25   2.860   2.976  13.892
    1OSM    H1S   26   2.855   3.076  13.941
    1OSM    H1T   27   2.771   2.918  13.925
    1OSM     NF   28   2.867   2.862  13.675
    1OSM    HNF   29   2.963   2.837  13.660
    1OSM    C2S   30   2.844   2.992  13.738
    1OSM    H2S   31   2.740   3.025  13.716
    1OSM    C3S   32   2.939   3.104  13.686
    1OSM    H3S   33   3.043   3.080  13.716
    1OSM     O3   34   2.909   3.234  13.739
    1OSM    HO3   35   2.845   3.222  13.809
    1OSM    C4S   36   2.934   3.109  13.536
    1OSM    H4S   37   3.032   3.087  13.489
    1OSM    C5S   38   2.830   3.142  13.457
    1OSM    H5S   39   2.734   3.170  13.504
    1OSM    C6S   40   2.831   3.145  13.306
    1OSM    H6S   41   2.901   3.224  13.270
    1OSM    H6T   42   2.730   3.175  13.271
    1OSM    C7S   43   2.866   3.013  13.233
    1OSM    H7S   44   2.840   3.027  13.126
    1OSM    H7T   45   2.802   2.930  13.271
    1OSM    C8S   46   3.014   2.973  13.242
    1OSM    H8S   47   3.038   2.942  13.346
    1OSM    H8T   48   3.076   3.062  13.217
    1OSM    C9S   49   3.056   2.857  13.151
    1OSM    H9S   50   2.991   2.769  13.173
    1OSM    H9T   51   3.160   2.827  13.176
    1OSM   C10S   52   3.051   2.889  13.001
    1OSM   H10S   53   3.109   2.983  12.983
    1OSM   H10T   54   2.946   2.907  12.969
    1OSM   C11S   55   3.111   2.777  12.915
    1OSM   H11S   56   3.052   2.684  12.931
    1OSM   H11T   57   3.215   2.756  12.948
    1OSM   C12S   58   3.111   2.812  12.766
    1OSM   H12S   59   3.177   2.899  12.748
    1OSM   H12T   60   3.007   2.842  12.738
    1OSM   C13S   61   3.154   2.695  12.676
    1OSM   H13S   62   3.092   2.607  12.703
    1OSM   H13T   63   3.260   2.668  12.694
    1OSM   C14S   64   3.131   2.727  12.527
    1OSM   H14S   65   3.223   2.770  12.482
    1OSM   H14T   66   3.052   2.805  12.522
    1OSM   C15S   67   3.084   2.605  12.446
    1OSM   H15S   68   2.995   2.562  12.497
    1OSM   H15T   69   3.164   2.528  12.447
    1OSM   C16S   70   3.044   2.637  12.301
    1OSM   H16S   71   2.996   2.546  12.257
    1OSM   H16T   72   3.136   2.658  12.241
    1OSM   C17S   73   2.948   2.756  12.287
    1OSM   H17S   74   3.005   2.849  12.307
    1OSM   H17T   75   2.869   2.747  12.365
    1OSM   C18S   76   2.882   2.767  12.150
    1OSM   H18S   77   2.809   2.684  12.136
    1OSM   H18T   78   2.957   2.762  12.069
    1OSM   H18U   79   2.826   2.863  12.141
    1OSM    C1F   80   2.775   2.766  13.684
    1OSM     OF   81   2.662   2.794  13.724
    1OSM    C2F   82   2.816   2.625  13.654
    1OSM    H2F   83   2.795   2.564  13.745
    1OSM    H2G   84   2.926   2.621  13.637
    1OSM    C3F   85   2.742   2.562  13.534
    1OSM    H3F   86   2.632   2.573  13.547
    1OSM    H3G   87   2.763   2.453  13.536
    1OSM    C4F   88   2.785   2.617  13.398
    1OSM    H4F   89   2.896   2.618  13.392
    1OSM    H4G   90   2.752   2.723  13.389
    1OSM    C5F   91   2.732   2.536  13.278
    1OSM    H5F   92   2.621   2.535  13.281
    1OSM    H5G   93   2.767   2.431  13.284
    1OSM    C6F   94   2.779   2.598  13.145
    1OSM    H6F   95   2.890   2.598  13.145
    1OSM    H6G   96   2.744   2.703  13.142
    1OSM    C7F   97   2.734   2.526  13.016
    1OSM    H7F   98   2.628   2.494  13.025
    1OSM    H7G   99   2.797   2.435  13.004
    1OSM    C8F  100   2.748   2.621  12.895
    1OSM    H8F  101   2.825   2.697  12.920
    1OSM    H8G  102   2.652   2.677  12.885
    1OSM    C9F  103   2.790   2.556  12.765
    1OSM    H9F  104   2.893   2.518  12.764
    1OSM   C10F  105   2.714   2.541  12.655
    1OSM   H10F  106   2.757   2.492  12.567
    1OSM   C11F  107   2.571   2.585  12.640
    1OSM   H11F  108   2.557   2.688  12.682
    1OSM   H11G  109   2.506   2.518  12.700
    1OSM   C12F  110   2.517   2.582  12.495
    1OSM   H12F  111   2.407   2.573  12.498
    1OSM   H12G  112   2.556   2.492  12.442
    1OSM   C13F  113   2.553   2.709  12.415
    1OSM   H13F  114   2.541   2.690  12.306
    1OSM   H13G  115   2.660   2.731  12.433
    1OSM   C14F  116   2.467   2.830  12.454
    1OSM   H14F  117   2.433   2.818  12.560
    1OSM   H14G  118   2.376   2.834  12.391
    1OSM   C15F  119   2.545   2.962  12.447
    1OSM   H15F  120   2.637   2.953  12.508
    1OSM   H15G  121   2.483   3.043  12.492
    1OSM   C16F  122   2.581   3.004  12.304
    1OSM   H16F  123   2.487   3.012  12.244
    1OSM   H16G  124   2.643   2.925  12.257
    1OSM   C17F  125   2.656   3.138  12.298
    1OSM   H17F  126   2.596   3.215  12.351
    1OSM   H17G  127   2.663   3.169  12.192
    1OSM   C18F  128   2.797   3.134  12.358
    1OSM   H18F  129   2.793   3.111  12.467
    1OSM   H18G  130   2.848   3.231  12.345
    1OSM   H18H  131   2.858   3.055  12.309
    2OSM      N  132   1.709   1.912  14.155
    2OSM    C15  133   1.735   2.043  14.222
    2OSM   H15A  134   1.840   2.070  14.216
    2OSM   H15B  135   1.705   2.041  14.326
    2OSM   H15C  136   1.675   2.119  14.174
    2OSM    C14  137   1.764   1.919  14.015
    2OSM   H14A  138   1.720   2.001  13.960
    2OSM   H14B  139   1.745   1.828  13.961
    2OSM   H14C  140   1.871   1.935  14.016
    2OSM    C13  141   1.780   1.803  14.229
    2OSM   H13A  142   1.740   1.788  14.328
    2OSM   H13B  143   1.885   1.826  14.241
    2OSM   H13C  144   1.776   1.709  14.176
    2OSM    C12  145   1.559   1.886  14.153
    2OSM   H12A  146   1.522   1.886  14.255
    2OSM   H12B  147   1.540   1.787  14.114
    2OSM    C11  148   1.471   1.987  14.075
    2OSM   H11A  149   1.369   1.942  14.072
    2OSM   H11B  150   1.508   1.994  13.971
    2OSM      P  151   1.344   2.207  14.120
    2OSM    O13  152   1.234   2.140  14.192
    2OSM    O14  153   1.374   2.347  14.160
    2OSM    O11  154   1.322   2.202  13.963
    2OSM    O12  155   1.472   2.116  14.138
    2OSM    C1S  156   1.426   2.251  13.876
    2OSM    H1S  157   1.526   2.251  13.923
    2OSM    H1T  158   1.402   2.356  13.847
    2OSM     NF  159   1.544   2.219  13.660
    2OSM    HNF  160   1.520   2.262  13.573
    2OSM    C2S  161   1.438   2.167  13.744
    2OSM    H2S  162   1.462   2.062  13.771
    2OSM    C3S  163   1.301   2.167  13.672
    2OSM    H3S  164   1.267   2.272  13.659
    2OSM     O3  165   1.203   2.102  13.750
    2OSM    HO3  166   1.236   2.113  13.839
    2OSM    C4S  167   1.307   2.098  13.538
    2OSM    H4S  168   1.320   1.988  13.540
    2OSM    C5S  169   1.293   2.164  13.421
    2OSM    H5S  170   1.278   2.273  13.427
    2OSM    C6S  171   1.294   2.112  13.280
    2OSM    H6S  172   1.351   2.184  13.217
    2OSM    H6T  173   1.190   2.115  13.242
    2OSM    C7S  174   1.349   1.972  13.253
    2OSM    H7S  175   1.295   1.897  13.314
    2OSM    H7T  176   1.457   1.967  13.279
    2OSM    C8S  177   1.331   1.936  13.104
    2OSM    H8S  178   1.383   2.010  13.040
    2OSM    H8T  179   1.222   1.943  13.081
    2OSM    C9S  180   1.378   1.794  13.070
    2OSM    H9S  181   1.326   1.759  12.978
    2OSM    H9T  182   1.345   1.727  13.153
    2OSM   C10S  183   1.530   1.780  13.051
    2OSM   H10S  184   1.554   1.672  13.046
    2OSM   H10T  185   1.582   1.822  13.139
    2OSM   C11S  186   1.585   1.846  12.923
    2OSM   H11S  187   1.695   1.828  12.920
    2OSM   H11T  188   1.570   1.956  12.927
    2OSM   C12S  189   1.524   1.791  12.793
    2OSM   H12S  190   1.421   1.832  12.780
    2OSM   H12T  191   1.514   1.681  12.803
    2OSM   C13S  192   1.608   1.820  12.667
    2OSM   H13S  193   1.560   1.771  12.580
    2OSM   H13T  194   1.707   1.772  12.681
    2OSM   C14S  195   1.630   1.969  12.636
    2OSM   H14S  196   1.700   1.977  12.550
    2OSM   H14T  197   1.680   2.017  12.722
    2OSM   C15S  198   1.502   2.048  12.602
    2OSM   H15S  199   1.530   2.153  12.583
    2OSM   H15T  200   1.435   2.047  12.691
    2OSM   C16S  201   1.422   1.997  12.481
    2OSM   H16S  202   1.335   2.064  12.465
    2OSM   H16T  203   1.383   1.895  12.502
    2OSM   C17S  204   1.504   1.993  12.351
    2OSM   H17S  205   1.585   1.918  12.361
    2OSM   H17T  206   1.553   2.092  12.336
    2OSM   C18S  207   1.420   1.959  12.227
    2OSM   H18S  208   1.483   1.956  12.136
    2OSM   H18T  209   1.340   2.036  12.212
    2OSM   H18U  210   1.371   1.860  12.240
    2OSM    C1F  211   1.672   2.203  13.693
    2OSM     OF  212   1.704   2.140  13.792
    2OSM    C2F  213   1.773   2.268  13.603
    2OSM    H2F  214   1.870   2.265  13.657
    2OSM    H2G  215   1.746   2.375  13.587
    2OSM    C3F  216   1.791   2.196  13.467
    2OSM    H3F  217   1.808   2.088  13.483
    2OSM    H3G  218   1.884   2.236  13.423
    2OSM    C4F  219   1.679   2.220  13.364
    2OSM    H4F  220   1.658   2.329  13.360
    2OSM    H4G  221   1.586   2.167  13.395
    2OSM    C5F  222   1.719   2.173  13.224
    2OSM    H5F  223   1.715   2.062  13.218
    2OSM    H5G  224   1.825   2.202  13.206
    2OSM    C6F  225   1.632   2.235  13.113
    2OSM    H6F  226   1.612   2.341  13.138
    2OSM    H6G  227   1.535   2.181  13.109
    2OSM    C7F  228   1.699   2.229  12.975
    2OSM    H7F  229   1.732   2.125  12.956
    2OSM    H7G  230   1.790   2.293  12.974
    2OSM    C8F  231   1.605   2.271  12.860
    2OSM    H8F  232   1.516   2.204  12.862
    2OSM    H8G  233   1.657   2.249  12.764
    2OSM    C9F  234   1.560   2.415  12.867
    2OSM    H9F  235   1.494   2.438  12.952
    2OSM   C10F  236   1.591   2.513  12.781
    2OSM   H10F  237   1.549   2.614  12.797
    2OSM   C11F  238   1.679   2.499  12.659
    2OSM   H11F  239   1.753   2.418  12.674
    2OSM   H11G  240   1.738   2.592  12.643
    2OSM   C12F  241   1.602   2.469  12.529
    2OSM   H12F  242   1.543   2.557  12.498
    2OSM   H12G  243   1.532   2.385  12.546
    2OSM   C13F  244   1.699   2.428  12.417
    2OSM   H13F  245   1.757   2.341  12.452
    2OSM   H13G  246   1.771   2.511  12.398
    2OSM   C14F  247   1.628   2.390  12.286
    2OSM   H14F  248   1.580   2.479  12.241
    2OSM   H14G  249   1.548   2.317  12.310
    2OSM   C15F  250   1.726   2.326  12.186
    2OSM   H15F  251   1.786   2.250  12.240
    2OSM   H15G  252   1.796   2.403  12.148
    2OSM   C16F  253   1.655   2.257  12.069
    2OSM   H16F  254   1.602   2.332  12.007
    2OSM   H16G  255   1.578   2.188  12.110
    2OSM   C17F  256   1.751   2.176  11.982
    2OSM   H17F  257   1.811   2.109  12.048
    2OSM   H17G  258   1.822   2.245  11.932
    2OSM   C18F  259   1.681   2.090  11.877
    2OSM   H18F  260   1.754   2.034  11.815
    2OSM   H18G  261   1.620   2.155  11.809
    2OSM   H18H  262   1.612   2.017  11.925
    3OSM      N  263   2.898   1.600  14.180
    3OSM    C15  264   2.971   1.726  14.217
    3OSM   H15A  265   2.989   1.785  14.128
    3OSM   H15B  266   3.067   1.702  14.261
    3OSM   H15C  267   2.913   1.785  14.286
    3OSM    C14  268   2.769   1.637  14.113
    3OSM   H14A  269   2.709   1.703  14.175
    3OSM   H14B  270   2.711   1.547  14.099
    3OSM   H14C  271   2.783   1.683  14.017
    3OSM    C13  272   2.981   1.521  14.083
    3OSM   H13A  273   3.000   1.576  13.992
    3OSM   H13B  274   2.928   1.431  14.054
    3OSM   H13C  275   3.075   1.489  14.127
    3OSM    C12  276   2.867   1.516  14.302
    3OSM   H12A  277   2.793   1.568  14.362
    3OSM   H12B  278   2.955   1.506  14.363
    3OSM    C11  279   2.812   1.373  14.277
    3OSM   H11A  280   2.790   1.330  14.377
    3OSM   H11B  281   2.892   1.311  14.231
    3OSM      P  282   2.629   1.234  14.156
    3OSM    O13  283   2.681   1.125  14.241
    3OSM    O14  284   2.482   1.249  14.150
    3OSM    O11  285   2.681   1.214  14.009
    3OSM    O12  286   2.693   1.373  14.198
    3OSM    C1S  287   2.701   1.322  13.918
    3OSM    H1S  288   2.789   1.382  13.949
    3OSM    H1T  289   2.612   1.390  13.914
    3OSM     NF  290   2.772   1.373  13.682
    3OSM    HNF  291   2.708   1.400  13.610
    3OSM    C2S  292   2.727   1.269  13.773
    3OSM    H2S  293   2.807   1.193  13.781
    3OSM    C3S  294   2.598   1.201  13.720
    3OSM    H3S  295   2.522   1.279  13.699
    3OSM     O3  296   2.538   1.111  13.812
    3OSM    HO3  297   2.590   1.124  13.891
    3OSM    C4S  298   2.629   1.126  13.593
    3OSM    H4S  299   2.681   1.031  13.611
    3OSM    C5S  300   2.596   1.160  13.467
    3OSM    H5S  301   2.540   1.252  13.447
    3OSM    C6S  302   2.631   1.075  13.348
    3OSM    H6S  303   2.539   1.052  13.291
    3OSM    H6T  304   2.672   0.977  13.380
    3OSM    C7S  305   2.734   1.137  13.251
    3OSM    H7S  306   2.764   1.057  13.179
    3OSM    H7T  307   2.826   1.165  13.307
    3OSM    C8S  308   2.684   1.257  13.169
    3OSM    H8S  309   2.768   1.292  13.104
    3OSM    H8T  310   2.657   1.340  13.237
    3OSM    C9S  311   2.563   1.223  13.080
    3OSM    H9S  312   2.477   1.201  13.146
    3OSM    H9T  313   2.584   1.131  13.022
    3OSM   C10S  314   2.522   1.336  12.985
    3OSM   H10S  315   2.519   1.430  13.042
    3OSM   H10T  316   2.419   1.316  12.949
    3OSM   C11S  317   2.613   1.351  12.862
    3OSM   H11S  318   2.721   1.345  12.890
    3OSM   H11T  319   2.597   1.452  12.818
    3OSM   C12S  320   2.582   1.248  12.752
    3OSM   H12S  321   2.472   1.251  12.733
    3OSM   H12T  322   2.608   1.146  12.786
    3OSM   C13S  323   2.652   1.278  12.619
    3OSM   H13S  324   2.762   1.266  12.630
    3OSM   H13T  325   2.632   1.384  12.592
    3OSM   C14S  326   2.601   1.188  12.506
    3OSM   H14S  327   2.491   1.203  12.495
    3OSM   H14T  328   2.617   1.081  12.534
    3OSM   C15S  329   2.666   1.213  12.369
    3OSM   H15S  330   2.619   1.146  12.294
    3OSM   H15T  331   2.774   1.186  12.374
    3OSM   C16S  332   2.653   1.358  12.321
    3OSM   H16S  333   2.714   1.422  12.388
    3OSM   H16T  334   2.547   1.390  12.330
    3OSM   C17S  335   2.699   1.380  12.176
    3OSM   H17S  336   2.782   1.310  12.153
    3OSM   H17T  337   2.739   1.483  12.167
    3OSM   C18S  338   2.586   1.364  12.074
    3OSM   H18S  339   2.510   1.444  12.088
    3OSM   H18T  340   2.536   1.266  12.086
    3OSM   H18U  341   2.625   1.371  11.970
    3OSM    C1F  342   2.892   1.430  13.686
    3OSM     OF  343   2.967   1.418  13.782
    3OSM    C2F  344   2.930   1.510  13.565
    3OSM    H2F  345   2.997   1.593  13.597
    3OSM    H2G  346   2.838   1.553  13.521
    3OSM    C3F  347   3.001   1.425  13.458
    3OSM    H3F  348   2.945   1.331  13.440
    3OSM    H3G  349   3.102   1.399  13.495
    3OSM    C4F  350   3.013   1.499  13.323
    3OSM    H4F  351   3.066   1.595  13.339
    3OSM    H4G  352   2.912   1.522  13.285
    3OSM    C5F  353   3.088   1.416  13.217
    3OSM    H5F  354   3.034   1.321  13.198
    3OSM    H5G  355   3.188   1.391  13.259
    3OSM    C6F  356   3.109   1.491  13.085
    3OSM    H6F  357   3.198   1.450  13.034
    3OSM    H6G  358   3.129   1.599  13.106
    3OSM    C7F  359   2.991   1.482  12.987
    3OSM    H7F  360   2.897   1.500  13.043
    3OSM    H7G  361   2.984   1.379  12.945
    3OSM    C8F  362   2.998   1.586  12.873
    3OSM    H8F  363   3.002   1.687  12.919
    3OSM    H8G  364   2.903   1.580  12.816
    3OSM    C9F  365   3.116   1.568  12.780
    3OSM    H9F  366   3.200   1.510  12.820
    3OSM   C10F  367   3.124   1.616  12.654
    3OSM   H10F  368   3.215   1.596  12.595
    3OSM   C11F  369   3.018   1.697  12.583
    3OSM   H11F  370   3.064   1.775  12.520
    3OSM   H11G  371   2.954   1.750  12.657
    3OSM   C12F  372   2.926   1.608  12.497
    3OSM   H12F  373   2.839   1.669  12.463
    3OSM   H12G  374   2.886   1.526  12.559
    3OSM   C13F  375   2.992   1.549  12.372
    3OSM   H13F  376   2.927   1.468  12.332
    3OSM   H13G  377   3.090   1.504  12.398
    3OSM   C14F  378   3.017   1.651  12.260
    3OSM   H14F  379   3.104   1.714  12.289
    3OSM   H14G  380   2.929   1.718  12.251
    3OSM   C15F  381   3.042   1.585  12.124
    3OSM   H15F  382   3.066   1.665  12.050
    3OSM   H15G  383   2.948   1.535  12.091
    3OSM   C16F  384   3.156   1.483  12.122
    3OSM   H16F  385   3.134   1.399  12.191
    3OSM   H16G  386   3.249   1.533  12.157
    3OSM   C17F  387   3.181   1.425  11.982
    3OSM   H17F  388   3.278   1.370  11.983
    3OSM   H17G  389   3.192   1.508  11.909
    3OSM   C18F  390   3.073   1.328  11.933
    3OSM   H18F  391   3.066   1.241  12.002
    3OSM   H18G  392   3.096   1.290  11.831
    3OSM   H18H  393   2.973   1.377  11.930
    4OSM      N  394   0.508   1.888  14.241
    4OSM    C15  395   0.392   1.805  14.284
    4OSM   H15A  396   0.422   1.740  14.366
    4OSM   H15B  397   0.354   1.744  14.203
    4OSM   H15C  398   0.311   1.867  14.318
    4OSM    C14  399   0.542   1.982  14.352
    4OSM   H14A  400   0.568   1.928  14.442
    4OSM   H14B  401   0.460   2.050  14.373
    4OSM   H14C  402   0.627   2.042  14.323
    4OSM    C13  403   0.627   1.799  14.219
    4OSM   H13A  404   0.653   1.749  14.311
    4OSM   H13B  405   0.712   1.858  14.189
    4OSM   H13C  406   0.609   1.723  14.145
    4OSM    C12  407   0.474   1.965  14.114
    4OSM   H12A  408   0.398   2.038  14.139
    4OSM   H12B  409   0.428   1.898  14.044
    4OSM    C11  410   0.588   2.041  14.042
    4OSM   H11A  411   0.545   2.089  13.952
    4OSM   H11B  412   0.664   1.968  14.007
    4OSM      P  413   0.796   2.159  14.158
    4OSM    O13  414   0.830   2.303  14.156
    4OSM    O14  415   0.825   2.086  14.283
    4OSM    O11  416   0.871   2.082  14.042
    4OSM    O12  417   0.643   2.143  14.125
    4OSM    C1S  418   0.936   2.152  13.935
    4OSM    H1S  419   1.046   2.134  13.945
    4OSM    H1T  420   0.924   2.262  13.939
    4OSM     NF  421   0.758   2.147  13.760
    4OSM    HNF  422   0.689   2.076  13.748
    4OSM    C2S  423   0.892   2.103  13.794
    4OSM    H2S  424   0.960   2.149  13.720
    4OSM    C3S  425   0.903   1.948  13.781
    4OSM    H3S  426   0.829   1.899  13.848
    4OSM     O3  427   1.031   1.893  13.815
    4OSM    HO3  428   1.091   1.968  13.812
    4OSM    C4S  429   0.877   1.909  13.638
    4OSM    H4S  430   0.953   1.946  13.568
    4OSM    C5S  431   0.774   1.836  13.593
    4OSM    H5S  432   0.699   1.799  13.664
    4OSM    C6S  433   0.748   1.799  13.449
    4OSM    H6S  434   0.644   1.827  13.423
    4OSM    H6T  435   0.755   1.688  13.437
    4OSM    C7S  436   0.840   1.863  13.342
    4OSM    H7S  437   0.945   1.833  13.361
    4OSM    H7T  438   0.833   1.973  13.348
    4OSM    C8S  439   0.801   1.819  13.199
    4OSM    H8S  440   0.698   1.852  13.176
    4OSM    H8T  441   0.803   1.708  13.196
    4OSM    C9S  442   0.897   1.872  13.092
    4OSM    H9S  443   1.001   1.859  13.127
    4OSM    H9T  444   0.880   1.981  13.078
    4OSM   C10S  445   0.881   1.799  12.958
    4OSM   H10S  446   0.776   1.807  12.922
    4OSM   H10T  447   0.902   1.691  12.976
    4OSM   C11S  448   0.977   1.849  12.849
    4OSM   H11S  449   1.075   1.873  12.897
    4OSM   H11T  450   0.938   1.943  12.804
    4OSM   C12S  451   1.005   1.745  12.739
    4OSM   H12S  452   1.040   1.652  12.789
    4OSM   H12T  453   1.088   1.781  12.675
    4OSM   C13S  454   0.884   1.712  12.650
    4OSM   H13S  455   0.864   1.799  12.584
    4OSM   H13T  456   0.793   1.696  12.712
    4OSM   C14S  457   0.908   1.586  12.565
    4OSM   H14S  458   0.873   1.498  12.623
    4OSM   H14T  459   1.017   1.574  12.548
    4OSM   C15S  460   0.839   1.587  12.428
    4OSM   H15S  461   0.735   1.625  12.437
    4OSM   H15T  462   0.834   1.482  12.392
    4OSM   C16S  463   0.917   1.668  12.323
    4OSM   H16S  464   1.020   1.626  12.317
    4OSM   H16T  465   0.926   1.773  12.357
    4OSM   C17S  466   0.855   1.664  12.184
    4OSM   H17S  467   0.758   1.719  12.186
    4OSM   H17T  468   0.833   1.559  12.156
    4OSM   C18S  469   0.945   1.726  12.077
    4OSM   H18S  470   0.895   1.727  11.978
    4OSM   H18T  471   1.040   1.668  12.068
    4OSM   H18U  472   0.972   1.831  12.104
    4OSM    C1F  473   0.721   2.273  13.737
    4OSM     OF  474   0.788   2.368  13.774
    4OSM    C2F  475   0.594   2.292  13.659
    4OSM    H2F  476   0.621   2.348  13.567
    4OSM    H2G  477   0.524   2.356  13.718
    4OSM    C3F  478   0.523   2.159  13.620
    4OSM    H3F  479   0.467   2.121  13.708
    4OSM    H3G  480   0.594   2.081  13.588
    4OSM    C4F  481   0.426   2.174  13.501
    4OSM    H4F  482   0.362   2.264  13.515
    4OSM    H4G  483   0.359   2.086  13.499
    4OSM    C5F  484   0.502   2.179  13.368
    4OSM    H5F  485   0.560   2.085  13.358
    4OSM    H5G  486   0.576   2.262  13.369
    4OSM    C6F  487   0.412   2.195  13.246
    4OSM    H6F  488   0.367   2.296  13.246
    4OSM    H6G  489   0.329   2.122  13.252
    4OSM    C7F  490   0.491   2.171  13.116
    4OSM    H7F  491   0.526   2.065  13.117
    4OSM    H7G  492   0.581   2.235  13.113
    4OSM    C8F  493   0.406   2.191  12.989
    4OSM    H8F  494   0.309   2.139  13.002
    4OSM    H8G  495   0.459   2.141  12.905
    4OSM    C9F  496   0.383   2.337  12.960
    4OSM    H9F  497   0.377   2.402  13.048
    4OSM   C10F  498   0.373   2.392  12.838
    4OSM   H10F  499   0.358   2.501  12.830
    4OSM   C11F  500   0.381   2.318  12.706
    4OSM   H11F  501   0.293   2.345  12.644
    4OSM   H11G  502   0.375   2.208  12.719
    4OSM   C12F  503   0.509   2.351  12.628
    4OSM   H12F  504   0.517   2.461  12.611
    4OSM   H12G  505   0.500   2.304  12.528
    4OSM   C13F  506   0.638   2.301  12.695
    4OSM   H13F  507   0.623   2.196  12.728
    4OSM   H13G  508   0.658   2.361  12.786
    4OSM   C14F  509   0.759   2.306  12.601
    4OSM   H14F  510   0.781   2.413  12.580
    4OSM   H14G  511   0.733   2.258  12.504
    4OSM   C15F  512   0.882   2.236  12.659
    4OSM   H15F  513   0.860   2.128  12.674
    4OSM   H15G  514   0.902   2.279  12.760
    4OSM   C16F  515   1.010   2.252  12.574
    4OSM   H16F  516   1.096   2.214  12.632
    4OSM   H16G  517   1.027   2.360  12.557
    4OSM   C17F  518   1.007   2.181  12.438
    4OSM   H17F  519   1.098   2.211  12.382
    4OSM   H17G  520   0.919   2.216  12.380
    4OSM   C18F  521   1.005   2.028  12.448
    4OSM   H18F  522   1.089   1.992  12.511
    4OSM   H18G  523   1.013   1.982  12.348
    4OSM   H18H  524   0.910   1.994  12.494
    5OSM      N  525   1.017   4.185  14.258
    5OSM    C15  526   1.084   4.251  14.141
    5OSM   H15A  527   1.188   4.271  14.162
    5OSM   H15B  528   1.035   4.343  14.112
    5OSM   H15C  529   1.083   4.181  14.059
    5OSM    C14  530   1.115   4.087  14.317
    5OSM   H14A  531   1.207   4.135  14.347
    5OSM   H14B  532   1.139   4.010  14.245
    5OSM   H14C  533   1.074   4.038  14.404
    5OSM    C13  534   0.984   4.287  14.363
    5OSM   H13A  535   0.912   4.359  14.327
    5OSM   H13B  536   1.071   4.341  14.396
    5OSM   H13C  537   0.942   4.239  14.451
    5OSM    C12  538   0.891   4.111  14.213
    5OSM   H12A  539   0.805   4.174  14.230
    5OSM   H12B  540   0.877   4.026  14.278
    5OSM    C11  541   0.883   4.060  14.067
    5OSM   H11A  542   0.873   4.147  13.999
    5OSM   H11B  543   0.790   4.000  14.054
    5OSM      P  544   1.021   3.839  14.083
    5OSM    O13  545   1.162   3.827  14.126
    5OSM    O14  546   0.920   3.807  14.187
    5OSM    O11  547   0.995   3.747  13.956
    5OSM    O12  548   0.999   3.985  14.028
    5OSM    C1S  549   1.084   3.751  13.844
    5OSM    H1S  550   1.098   3.647  13.808
    5OSM    H1T  551   1.185   3.789  13.869
    5OSM     NF  552   1.056   3.971  13.731
    5OSM    HNF  553   0.985   4.028  13.772
    5OSM    C2S  554   1.028   3.829  13.720
    5OSM    H2S  555   1.083   3.790  13.631
    5OSM    C3S  556   0.877   3.804  13.697
    5OSM    H3S  557   0.818   3.855  13.777
    5OSM     O3  558   0.838   3.667  13.703
    5OSM    HO3  559   0.793   3.661  13.788
    5OSM    C4S  560   0.839   3.858  13.562
    5OSM    H4S  561   0.896   3.813  13.480
    5OSM    C5S  562   0.743   3.948  13.536
    5OSM    H5S  563   0.682   3.988  13.618
    5OSM    C6S  564   0.708   4.000  13.399
    5OSM    H6S  565   0.706   4.112  13.403
    5OSM    H6T  566   0.605   3.968  13.373
    5OSM    C7S  567   0.800   3.962  13.281
    5OSM    H7S  568   0.792   3.853  13.261
    5OSM    H7T  569   0.906   3.984  13.307
    5OSM    C8S  570   0.764   4.039  13.153
    5OSM    H8S  571   0.776   4.148  13.174
    5OSM    H8T  572   0.658   4.021  13.127
    5OSM    C9S  573   0.852   4.002  13.033
    5OSM    H9S  574   0.826   3.899  13.000
    5OSM    H9T  575   0.959   4.003  13.063
    5OSM   C10S  576   0.833   4.099  12.916
    5OSM   H10S  577   0.875   4.198  12.945
    5OSM   H10T  578   0.724   4.111  12.897
    5OSM   C11S  579   0.899   4.054  12.785
    5OSM   H11S  580   0.860   4.116  12.702
    5OSM   H11T  581   0.869   3.949  12.765
    5OSM   C12S  582   1.053   4.066  12.785
    5OSM   H12S  583   1.093   4.006  12.869
    5OSM   H12T  584   1.081   4.172  12.803
    5OSM   C13S  585   1.119   4.018  12.656
    5OSM   H13S  586   1.069   4.063  12.567
    5OSM   H13T  587   1.105   3.908  12.650
    5OSM   C14S  588   1.270   4.044  12.648
    5OSM   H14S  589   1.312   4.043  12.751
    5OSM   H14T  590   1.289   4.144  12.604
    5OSM   C15S  591   1.343   3.935  12.566
    5OSM   H15S  592   1.331   3.838  12.620
    5OSM   H15T  593   1.452   3.958  12.563
    5OSM   C16S  594   1.292   3.918  12.422
    5OSM   H16S  595   1.313   4.010  12.365
    5OSM   H16T  596   1.182   3.904  12.423
    5OSM   C17S  597   1.355   3.796  12.351
    5OSM   H17S  598   1.431   3.751  12.418
    5OSM   H17T  599   1.408   3.832  12.261
    5OSM   C18S  600   1.253   3.689  12.311
    5OSM   H18S  601   1.202   3.648  12.401
    5OSM   H18T  602   1.304   3.605  12.259
    5OSM   H18U  603   1.176   3.731  12.243
    5OSM    C1F  604   1.179   4.019  13.712
    5OSM     OF  605   1.275   3.944  13.700
    5OSM    C2F  606   1.193   4.168  13.705
    5OSM    H2F  607   1.258   4.201  13.790
    5OSM    H2G  608   1.094   4.216  13.715
    5OSM    C3F  609   1.258   4.210  13.571
    5OSM    H3F  610   1.360   4.165  13.565
    5OSM    H3G  611   1.270   4.320  13.572
    5OSM    C4F  612   1.179   4.168  13.446
    5OSM    H4F  613   1.077   4.213  13.449
    5OSM    H4G  614   1.168   4.058  13.444
    5OSM    C5F  615   1.249   4.211  13.316
    5OSM    H5F  616   1.352   4.170  13.317
    5OSM    H5G  617   1.257   4.322  13.313
    5OSM    C6F  618   1.179   4.162  13.190
    5OSM    H6F  619   1.077   4.207  13.182
    5OSM    H6G  620   1.166   4.052  13.197
    5OSM    C7F  621   1.259   4.192  13.062
    5OSM    H7F  622   1.222   4.124  12.983
    5OSM    H7G  623   1.366   4.167  13.078
    5OSM    C8F  624   1.244   4.337  13.014
    5OSM    H8F  625   1.296   4.404  13.087
    5OSM    H8G  626   1.136   4.364  13.015
    5OSM    C9F  627   1.302   4.355  12.876
    5OSM    H9F  628   1.396   4.301  12.858
    5OSM   C10F  629   1.251   4.429  12.776
    5OSM   H10F  630   1.301   4.428  12.678
    5OSM   C11F  631   1.124   4.511  12.777
    5OSM   H11F  632   1.143   4.607  12.725
    5OSM   H11G  633   1.094   4.537  12.881
    5OSM   C12F  634   1.006   4.441  12.709
    5OSM   H12F  635   0.921   4.513  12.705
    5OSM   H12G  636   0.972   4.355  12.771
    5OSM   C13F  637   1.034   4.393  12.566
    5OSM   H13F  638   1.113   4.315  12.566
    5OSM   H13G  639   1.073   4.479  12.508
    5OSM   C14F  640   0.909   4.336  12.498
    5OSM   H14F  641   0.819   4.366  12.556
    5OSM   H14G  642   0.914   4.225  12.499
    5OSM   C15F  643   0.890   4.385  12.354
    5OSM   H15F  644   0.809   4.327  12.306
    5OSM   H15G  645   0.983   4.367  12.296
    5OSM   C16F  646   0.853   4.534  12.346
    5OSM   H16F  647   0.931   4.596  12.397
    5OSM   H16G  648   0.757   4.551  12.400
    5OSM   C17F  649   0.839   4.582  12.202
    5OSM   H17F  650   0.760   4.522  12.153
    5OSM   H17G  651   0.935   4.564  12.149
    5OSM   C18F  652   0.803   4.729  12.188
    5OSM   H18F  653   0.802   4.760  12.081
    5OSM   H18G  654   0.878   4.792  12.242
    5OSM   H18H  655   0.703   4.748  12.231
    6OSM      N  656   1.441   1.006  14.244
    6OSM    C15  657   1.572   0.942  14.278
    6OSM   H15A  658   1.641   1.013  14.321
    6OSM   H15B  659   1.615   0.900  14.189
    6OSM   H15C  660   1.559   0.860  14.347
    6OSM    C14  661   1.372   1.048  14.370
    6OSM   H14A  662   1.434   1.117  14.425
    6OSM   H14B  663   1.350   0.963  14.434
    6OSM   H14C  664   1.279   1.099  14.348
    6OSM    C13  665   1.469   1.129  14.163
    6OSM   H13A  666   1.377   1.180  14.136
    6OSM   H13B  667   1.521   1.103  14.072
    6OSM   H13C  668   1.529   1.199  14.218
    6OSM    C12  669   1.355   0.908  14.164
    6OSM   H12A  670   1.259   0.954  14.143
    6OSM   H12B  671   1.336   0.821  14.224
    6OSM    C11  672   1.413   0.857  14.030
    6OSM   H11A  673   1.443   0.942  13.966
    6OSM   H11B  674   1.332   0.806  13.974
    6OSM      P  675   1.509   0.616  14.063
    6OSM    O13  676   1.640   0.556  14.094
    6OSM    O14  677   1.400   0.593  14.161
    6OSM    O11  678   1.462   0.575  13.916
    6OSM    O12  679   1.526   0.772  14.050
    6OSM    C1S  680   1.554   0.511  13.825
    6OSM    H1S  681   1.547   0.400  13.837
    6OSM    H1T  682   1.660   0.538  13.844
    6OSM     NF  683   1.619   0.460  13.593
    6OSM    HNF  684   1.711   0.494  13.577
    6OSM    C2S  685   1.529   0.544  13.674
    6OSM    H2S  686   1.424   0.519  13.650
    6OSM    C3S  687   1.548   0.699  13.651
    6OSM    H3S  688   1.653   0.726  13.675
    6OSM     O3  689   1.465   0.775  13.738
    6OSM    HO3  690   1.444   0.714  13.809
    6OSM    C4S  691   1.516   0.744  13.510
    6OSM    H4S  692   1.470   0.667  13.446
    6OSM    C5S  693   1.537   0.870  13.462
    6OSM    H5S  694   1.578   0.944  13.532
    6OSM    C6S  695   1.507   0.925  13.324
    6OSM    H6S  696   1.574   1.011  13.302
    6OSM    H6T  697   1.403   0.964  13.321
    6OSM    C7S  698   1.523   0.824  13.208
    6OSM    H7S  699   1.465   0.733  13.235
    6OSM    H7T  700   1.630   0.796  13.198
    6OSM    C8S  701   1.471   0.868  13.070
    6OSM    H8S  702   1.535   0.950  13.029
    6OSM    H8T  703   1.368   0.907  13.080
    6OSM    C9S  704   1.471   0.748  12.973
    6OSM    H9S  705   1.412   0.666  13.021
    6OSM    H9T  706   1.576   0.711  12.962
    6OSM   C10S  707   1.412   0.772  12.834
    6OSM   H10S  708   1.474   0.846  12.779
    6OSM   H10T  709   1.310   0.815  12.845
    6OSM   C11S  710   1.402   0.641  12.753
    6OSM   H11S  711   1.342   0.567  12.810
    6OSM   H11T  712   1.504   0.598  12.741
    6OSM   C12S  713   1.338   0.660  12.615
    6OSM   H12S  714   1.388   0.742  12.559
    6OSM   H12T  715   1.233   0.693  12.634
    6OSM   C13S  716   1.333   0.534  12.527
    6OSM   H13S  717   1.253   0.547  12.451
    6OSM   H13T  718   1.304   0.447  12.591
    6OSM   C14S  719   1.462   0.501  12.451
    6OSM   H14S  720   1.446   0.405  12.398
    6OSM   H14T  721   1.546   0.486  12.523
    6OSM   C15S  722   1.503   0.604  12.345
    6OSM   H15S  723   1.539   0.696  12.395
    6OSM   H15T  724   1.414   0.630  12.284
    6OSM   C16S  725   1.613   0.551  12.252
    6OSM   H16S  726   1.576   0.460  12.200
    6OSM   H16T  727   1.701   0.520  12.312
    6OSM   C17S  728   1.657   0.654  12.147
    6OSM   H17S  729   1.705   0.740  12.199
    6OSM   H17T  730   1.567   0.693  12.095
    6OSM   C18S  731   1.755   0.598  12.043
    6OSM   H18S  732   1.846   0.557  12.093
    6OSM   H18T  733   1.786   0.677  11.972
    6OSM   H18U  734   1.707   0.516  11.985
    6OSM    C1F  735   1.594   0.329  13.572
    6OSM     OF  736   1.488   0.280  13.609
    6OSM    C2F  737   1.701   0.245  13.506
    6OSM    H2F  738   1.738   0.170  13.580
    6OSM    H2G  739   1.787   0.310  13.480
    6OSM    C3F  740   1.652   0.168  13.379
    6OSM    H3F  741   1.565   0.224  13.339
    6OSM    H3G  742   1.616   0.067  13.407
    6OSM    C4F  743   1.756   0.159  13.264
    6OSM    H4F  744   1.840   0.092  13.293
    6OSM    H4G  745   1.799   0.261  13.254
    6OSM    C5F  746   1.698   0.119  13.125
    6OSM    H5F  747   1.596   0.163  13.115
    6OSM    H5G  748   1.683   0.009  13.121
    6OSM    C6F  749   1.780   0.162  13.000
    6OSM    H6F  750   1.784   0.076  12.931
    6OSM    H6G  751   1.885   0.187  13.028
    6OSM    C7F  752   1.716   0.279  12.922
    6OSM    H7F  753   1.720   0.374  12.978
    6OSM    H7G  754   1.608   0.253  12.913
    6OSM    C8F  755   1.769   0.308  12.780
    6OSM    H8F  756   1.686   0.358  12.725
    6OSM    H8G  757   1.786   0.212  12.726
    6OSM    C9F  758   1.892   0.395  12.780
    6OSM    H9F  759   1.985   0.343  12.809
    6OSM   C10F  760   1.898   0.528  12.756
    6OSM   H10F  761   1.996   0.578  12.762
    6OSM   C11F  762   1.783   0.619  12.723
    6OSM   H11F  763   1.747   0.668  12.816
    6OSM   H11G  764   1.698   0.562  12.680
    6OSM   C12F  765   1.817   0.731  12.622
    6OSM   H12F  766   1.834   0.686  12.522
    6OSM   H12G  767   1.910   0.783  12.654
    6OSM   C13F  768   1.706   0.837  12.610
    6OSM   H13F  769   1.691   0.885  12.710
    6OSM   H13G  770   1.611   0.786  12.584
    6OSM   C14F  771   1.736   0.946  12.506
    6OSM   H14F  772   1.747   0.899  12.406
    6OSM   H14G  773   1.834   0.992  12.532
    6OSM   C15F  774   1.631   1.059  12.500
    6OSM   H15F  775   1.669   1.140  12.434
    6OSM   H15G  776   1.620   1.102  12.602
    6OSM   C16F  777   1.492   1.016  12.450
    6OSM   H16F  778   1.421   1.100  12.464
    6OSM   H16G  779   1.455   0.932  12.513
    6OSM   C17F  780   1.488   0.975  12.302
    6OSM   H17F  781   1.558   0.890  12.286
    6OSM   H17G  782   1.525   1.059  12.240
    6OSM   C18F  783   1.348   0.934  12.254
    6OSM   H18F  784   1.310   0.849  12.314
    6OSM   H18G  785   1.351   0.903  12.147
    6OSM   H18H  786   1.278   1.019  12.264
    7OSM      N  787   3.099   4.810  14.261
    7OSM    C15  788   3.201   4.907  14.208
    7OSM   H15A  789   3.260   4.951  14.287
    7OSM   H15B  790   3.152   4.986  14.154
    7OSM   H15C  791   3.266   4.855  14.140
    7OSM    C14  792   3.166   4.711  14.351
    7OSM   H14A  793   3.212   4.759  14.436
    7OSM   H14B  794   3.243   4.659  14.295
    7OSM   H14C  795   3.096   4.636  14.386
    7OSM    C13  796   2.994   4.888  14.334
    7OSM   H13A  797   2.910   4.826  14.362
    7OSM   H13B  798   2.956   4.967  14.271
    7OSM   H13C  799   3.033   4.935  14.423
    7OSM    C12  800   3.037   4.739  14.142
    7OSM   H12A  801   3.012   4.813  14.068
    7OSM   H12B  802   2.942   4.697  14.172
    7OSM    C11  803   3.121   4.627  14.075
    7OSM   H11A  804   3.066   4.598  13.983
    7OSM   H11B  805   3.123   4.538  14.142
    7OSM      P  806   3.345   4.602  13.941
    7OSM    O13  807   3.392   4.703  13.845
    7OSM    O14  808   3.451   4.524  14.012
    7OSM    O11  809   3.250   4.497  13.870
    7OSM    O12  810   3.254   4.670  14.048
    7OSM    C1S  811   3.268   4.457  13.733
    7OSM    H1S  812   3.231   4.353  13.723
    7OSM    H1T  813   3.375   4.455  13.703
    7OSM     NF  814   3.268   4.656  13.589
    7OSM    HNF  815   3.273   4.732  13.653
    7OSM    C2S  816   3.186   4.543  13.630
    7OSM    H2S  817   3.167   4.479  13.542
    7OSM    C3S  818   3.050   4.585  13.691
    7OSM    H3S  819   3.068   4.664  13.768
    7OSM     O3  820   2.983   4.479  13.759
    7OSM    HO3  821   3.056   4.430  13.800
    7OSM    C4S  822   2.964   4.647  13.582
    7OSM    H4S  823   2.990   4.753  13.562
    7OSM    C5S  824   2.865   4.589  13.511
    7OSM    H5S  825   2.839   4.485  13.535
    7OSM    C6S  826   2.780   4.652  13.403
    7OSM    H6S  827   2.687   4.690  13.449
    7OSM    H6T  828   2.750   4.574  13.330
    7OSM    C7S  829   2.842   4.768  13.322
    7OSM    H7S  830   2.889   4.841  13.391
    7OSM    H7T  831   2.760   4.822  13.269
    7OSM    C8S  832   2.945   4.724  13.216
    7OSM    H8S  833   3.015   4.650  13.259
    7OSM    H8T  834   3.005   4.813  13.186
    7OSM    C9S  835   2.879   4.668  13.088
    7OSM    H9S  836   2.798   4.736  13.056
    7OSM    H9T  837   2.834   4.569  13.111
    7OSM   C10S  838   2.979   4.654  12.972
    7OSM   H10S  839   3.063   4.588  13.005
    7OSM   H10T  840   3.021   4.754  12.949
    7OSM   C11S  841   2.918   4.596  12.844
    7OSM   H11S  842   2.839   4.665  12.806
    7OSM   H11T  843   2.869   4.499  12.867
    7OSM   C12S  844   3.023   4.574  12.734
    7OSM   H12S  845   3.102   4.507  12.775
    7OSM   H12T  846   3.072   4.671  12.709
    7OSM   C13S  847   2.966   4.512  12.606
    7OSM   H13S  848   2.918   4.591  12.546
    7OSM   H13T  849   2.887   4.439  12.635
    7OSM   C14S  850   3.070   4.436  12.521
    7OSM   H14S  851   3.020   4.387  12.435
    7OSM   H14T  852   3.114   4.356  12.584
    7OSM   C15S  853   3.185   4.524  12.470
    7OSM   H15S  854   3.218   4.591  12.551
    7OSM   H15T  855   3.147   4.587  12.386
    7OSM   C16S  856   3.306   4.441  12.426
    7OSM   H16S  857   3.276   4.371  12.344
    7OSM   H16T  858   3.338   4.378  12.511
    7OSM   C17S  859   3.427   4.524  12.379
    7OSM   H17S  860   3.508   4.454  12.349
    7OSM   H17T  861   3.465   4.582  12.466
    7OSM   C18S  862   3.400   4.620  12.263
    7OSM   H18S  863   3.371   4.563  12.172
    7OSM   H18T  864   3.491   4.679  12.239
    7OSM   H18U  865   3.318   4.691  12.287
    7OSM    C1F  866   3.371   4.637  13.507
    7OSM     OF  867   3.391   4.528  13.456
    7OSM    C2F  868   3.465   4.751  13.489
    7OSM    H2F  869   3.563   4.722  13.533
    7OSM    H2G  870   3.428   4.840  13.544
    7OSM    C3F  871   3.483   4.784  13.340
    7OSM    H3F  872   3.518   4.695  13.285
    7OSM    H3G  873   3.563   4.860  13.332
    7OSM    C4F  874   3.357   4.839  13.271
    7OSM    H4F  875   3.280   4.866  13.346
    7OSM    H4G  876   3.314   4.759  13.207
    7OSM    C5F  877   3.389   4.964  13.187
    7OSM    H5F  878   3.485   4.949  13.134
    7OSM    H5G  879   3.403   5.049  13.256
    7OSM    C6F  880   3.281   5.001  13.084
    7OSM    H6F  881   3.307   5.100  13.040
    7OSM    H6G  882   3.184   5.012  13.137
    7OSM    C7F  883   3.262   4.901  12.969
    7OSM    H7F  884   3.182   4.939  12.903
    7OSM    H7G  885   3.229   4.804  13.011
    7OSM    C8F  886   3.390   4.879  12.887
    7OSM    H8F  887   3.467   4.834  12.952
    7OSM    H8G  888   3.428   4.979  12.854
    7OSM    C9F  889   3.366   4.787  12.770
    7OSM    H9F  890   3.336   4.685  12.798
    7OSM   C10F  891   3.378   4.819  12.640
    7OSM   H10F  892   3.358   4.741  12.566
    7OSM   C11F  893   3.416   4.952  12.581
    7OSM   H11F  894   3.524   4.973  12.599
    7OSM   H11G  895   3.358   5.035  12.625
    7OSM   C12F  896   3.391   4.944  12.429
    7OSM   H12F  897   3.283   4.931  12.408
    7OSM   H12G  898   3.445   4.855  12.391
    7OSM   C13F  899   3.445   5.063  12.347
    7OSM   H13F  900   3.551   5.080  12.376
    7OSM   H13G  901   3.387   5.155  12.369
    7OSM   C14F  902   3.438   5.029  12.197
    7OSM   H14F  903   3.332   5.024  12.164
    7OSM   H14G  904   3.481   4.928  12.184
    7OSM   C15F  905   3.517   5.124  12.107
    7OSM   H15F  906   3.584   5.189  12.168
    7OSM   H15G  907   3.447   5.191  12.053
    7OSM   C16F  908   3.604   5.046  12.007
    7OSM   H16F  909   3.540   4.975  11.951
    7OSM   H16G  910   3.677   4.985  12.064
    7OSM   C17F  911   3.680   5.133  11.906
    7OSM   H17F  912   3.750   5.067  11.849
    7OSM   H17G  913   3.742   0.016  11.960
    7OSM   C18F  914   3.589   0.013  11.806
    7OSM   H18F  915   3.650   0.060  11.726
    7OSM   H18G  916   3.529   0.091  11.857
    7OSM   H18H  917   3.519   5.132  11.759
    8OSM      N  918   1.448   4.544  14.275
    8OSM    C15  919   1.356   4.458  14.356
    8OSM   H15A  920   1.304   4.387  14.293
    8OSM   H15B  921   1.284   4.517  14.410
    8OSM   H15C  922   1.409   4.400  14.430
    8OSM    C14  923   1.528   4.630  14.367
    8OSM   H14A  924   1.465   4.693  14.428
    8OSM   H14B  925   1.592   4.696  14.309
    8OSM   H14C  926   1.592   4.572  14.432
    8OSM    C13  927   1.539   4.452  14.199
    8OSM   H13A  928   1.607   4.400  14.265
    8OSM   H13B  929   1.597   4.509  14.128
    8OSM   H13C  930   1.483   4.378  14.143
    8OSM    C12  931   1.370   4.631  14.178
    8OSM   H12A  932   1.288   4.677  14.230
    8OSM   H12B  933   1.327   4.568  14.101
    8OSM    C11  934   1.448   4.745  14.105
    8OSM   H11A  935   1.475   4.823  14.179
    8OSM   H11B  936   1.379   4.793  14.033
    8OSM      P  937   1.709   4.740  14.058
    8OSM    O13  938   1.713   4.852  14.154
    8OSM    O14  939   1.787   4.620  14.094
    8OSM    O11  940   1.752   4.786  13.913
    8OSM    O12  941   1.560   4.694  14.033
    8OSM    C1S  942   1.754   4.690  13.806
    8OSM    H1S  943   1.707   4.593  13.833
    8OSM    H1T  944   1.859   4.668  13.778
    8OSM     NF  945   1.710   4.652  13.562
    8OSM    HNF  946   1.742   4.699  13.480
    8OSM    C2S  947   1.683   4.740  13.676
    8OSM    H2S  948   1.573   4.738  13.694
    8OSM    C3S  949   1.724   4.887  13.647
    8OSM    H3S  950   1.835   4.896  13.651
    8OSM     O3  951   1.673   4.979  13.742
    8OSM    HO3  952   1.659   4.925  13.821
    8OSM    C4S  953   1.678   4.930  13.510
    8OSM    H4S  954   1.575   4.969  13.505
    8OSM    C5S  955   1.757   4.930  13.401
    8OSM    H5S  956   1.862   4.899  13.411
    8OSM    C6S  957   1.718   4.974  13.263
    8OSM    H6S  958   1.775   5.068  13.245
    8OSM    H6T  959   1.611   5.001  13.256
    8OSM    C7S  960   1.753   4.880  13.145
    8OSM    H7S  961   1.853   4.833  13.160
    8OSM    H7T  962   1.761   4.943  13.054
    8OSM    C8S  963   1.647   4.772  13.118
    8OSM    H8S  964   1.549   4.823  13.105
    8OSM    H8T  965   1.638   4.707  13.207
    8OSM    C9S  966   1.672   4.686  12.993
    8OSM    H9S  967   1.586   4.615  12.984
    8OSM    H9T  968   1.764   4.625  13.006
    8OSM   C10S  969   1.681   4.767  12.863
    8OSM   H10S  970   1.784   4.807  12.851
    8OSM   H10T  971   1.612   4.853  12.870
    8OSM   C11S  972   1.641   4.687  12.737
    8OSM   H11S  973   1.641   4.757  12.650
    8OSM   H11T  974   1.537   4.652  12.751
    8OSM   C12S  975   1.731   4.568  12.703
    8OSM   H12S  976   1.730   4.496  12.788
    8OSM   H12T  977   1.836   4.604  12.691
    8OSM   C13S  978   1.690   4.493  12.575
    8OSM   H13S  979   1.762   4.411  12.554
    8OSM   H13T  980   1.694   4.563  12.489
    8OSM   C14S  981   1.549   4.432  12.584
    8OSM   H14S  982   1.476   4.515  12.595
    8OSM   H14T  983   1.544   4.370  12.676
    8OSM   C15S  984   1.505   4.346  12.465
    8OSM   H15S  985   1.403   4.308  12.487
    8OSM   H15T  986   1.572   4.258  12.454
    8OSM   C16S  987   1.502   4.423  12.332
    8OSM   H16S  988   1.606   4.441  12.298
    8OSM   H16T  989   1.454   4.522  12.348
    8OSM   C17S  990   1.424   4.351  12.220
    8OSM   H17S  991   1.463   4.247  12.211
    8OSM   H17T  992   1.445   4.403  12.124
    8OSM   C18S  993   1.273   4.348  12.242
    8OSM   H18S  994   1.233   4.451  12.255
    8OSM   H18T  995   1.246   4.289  12.332
    8OSM   H18U  996   1.222   4.303  12.154
    8OSM    C1F  997   1.680   4.523  13.553
    8OSM     OF  998   1.673   4.449  13.650
    8OSM    C2F  999   1.656   4.472  13.414
    8OSM    H2F 1000   1.720   4.382  13.399
    8OSM    H2G 1001   1.686   4.548  13.339
    8OSM    C3F 1002   1.508   4.432  13.394
    8OSM    H3F 1003   1.484   4.354  13.469
    8OSM    H3G 1004   1.495   4.385  13.294
    8OSM    C4F 1005   1.405   4.547  13.409
    8OSM    H4F 1006   1.437   4.621  13.485
    8OSM    H4G 1007   1.312   4.501  13.449
    8OSM    C5F 1008   1.366   4.617  13.278
    8OSM    H5F 1009   1.408   4.561  13.192
    8OSM    H5G 1010   1.409   4.720  13.275
    8OSM    C6F 1011   1.213   4.625  13.259
    8OSM    H6F 1012   1.168   4.692  13.336
    8OSM    H6G 1013   1.172   4.523  13.277
    8OSM    C7F 1014   1.166   4.668  13.119
    8OSM    H7F 1015   1.070   4.616  13.100
    8OSM    H7G 1016   1.237   4.631  13.041
    8OSM    C8F 1017   1.138   4.818  13.102
    8OSM    H8F 1018   1.086   4.856  13.192
    8OSM    H8G 1019   1.066   4.829  13.018
    8OSM    C9F 1020   1.263   4.898  13.075
    8OSM    H9F 1021   1.327   4.915  13.163
    8OSM   C10F 1022   1.302   4.949  12.956
    8OSM   H10F 1023   1.396   5.006  12.951
    8OSM   C11F 1024   1.229   4.935  12.825
    8OSM   H11F 1025   1.174   5.029  12.803
    8OSM   H11G 1026   1.154   4.853  12.825
    8OSM   C12F 1027   1.326   4.910  12.708
    8OSM   H12F 1028   1.373   4.809  12.719
    8OSM   H12G 1029   1.408   4.985  12.710
    8OSM   C13F 1030   1.258   4.919  12.570
    8OSM   H13F 1031   1.198   5.013  12.569
    8OSM   H13G 1032   1.187   4.835  12.556
    8OSM   C14F 1033   1.358   4.925  12.454
    8OSM   H14F 1034   1.436   4.999  12.480
    8OSM   H14G 1035   1.306   4.963  12.362
    8OSM   C15F 1036   1.424   4.791  12.421
    8OSM   H15F 1037   1.353   4.729  12.362
    8OSM   H15G 1038   1.446   4.737  12.515
    8OSM   C16F 1039   1.557   4.806  12.344
    8OSM   H16F 1040   1.600   4.705  12.326
    8OSM   H16G 1041   1.629   4.862  12.407
    8OSM   C17F 1042   1.544   4.878  12.209
    8OSM   H17F 1043   1.504   4.981  12.225
    8OSM   H17G 1044   1.471   4.824  12.146
    8OSM   C18F 1045   1.677   4.888  12.134
    8OSM   H18F 1046   1.664   4.942  12.037
    8OSM   H18G 1047   1.718   4.787  12.112
    8OSM   H18H 1048   1.752   4.944  12.194
    9OSM      N 1049   4.478   1.547  14.327
    9OSM    C15 1050   4.357   1.460  14.311
    9OSM   H15A 1051   4.384   1.356  14.321
    9OSM   H15B 1052   4.318   1.469  14.210
    9OSM   H15C 1053   4.280   1.483  14.383
    9OSM    C14 1054   4.439   1.691  14.318
    9OSM   H14A 1055   4.400   1.713  14.220
    9OSM   H14B 1056   4.525   1.753  14.339
    9OSM   H14C 1057   4.365   1.713  14.393
    9OSM    C13 1058   4.535   1.523  14.463
    9OSM   H13A 1059   4.618   1.589  14.484
    9OSM   H13B 1060   4.567   1.421  14.474
    9OSM   H13C 1061   4.459   1.541  14.538
    9OSM    C12 1062   4.580   1.511  14.220
    9OSM   H12A 1063   4.606   1.407  14.231
    9OSM   H12B 1064   4.670   1.568  14.237
    9OSM    C11 1065   4.537   1.528  14.072
    9OSM   H11A 1066   4.627   1.518  14.008
    9OSM   H11B 1067   4.499   1.631  14.055
    9OSM      P 1068   4.474   1.281  14.018
    9OSM    O13 1069   4.526   1.233  14.148
    9OSM    O14 1070   4.361   1.208  13.956
    9OSM    O11 1071   4.592   1.288  13.913
    9OSM    O12 1072   4.436   1.434  14.036
    9OSM    C1S 1073   4.576   1.359  13.789
    9OSM    H1S 1074   4.670   1.414  13.769
    9OSM    H1T 1075   4.496   1.436  13.793
    9OSM     NF 1076   4.657   1.281  13.571
    9OSM    HNF 1077   4.637   1.331  13.487
    9OSM    C2S 1078   4.549   1.265  13.667
    9OSM    H2S 1079   4.549   1.159  13.702
    9OSM    C3S 1080   4.408   1.296  13.607
    9OSM    H3S 1081   4.395   1.406  13.604
    9OSM     O3 1082   4.299   1.243  13.682
    9OSM    HO3 1083   4.332   1.225  13.771
    9OSM    C4S 1084   4.398   1.242  13.466
    9OSM    H4S 1085   4.391   1.132  13.459
    9OSM    C5S 1086   4.397   1.319  13.356
    9OSM    H5S 1087   4.399   1.428  13.368
    9OSM    C6S 1088   4.389   1.272  13.212
    9OSM    H6S 1089   4.376   1.162  13.204
    9OSM    H6T 1090   4.486   1.296  13.163
    9OSM    C7S 1091   4.278   1.342  13.131
    9OSM    H7S 1092   4.248   1.438  13.178
    9OSM    H7T 1093   4.188   1.277  13.130
    9OSM    C8S 1094   4.320   1.374  12.987
    9OSM    H8S 1095   4.368   1.285  12.940
    9OSM    H8T 1096   4.396   1.455  12.990
    9OSM    C9S 1097   4.202   1.419  12.900
    9OSM    H9S 1098   4.137   1.485  12.961
    9OSM    H9T 1099   4.141   1.330  12.873
    9OSM   C10S 1100   4.241   1.497  12.773
    9OSM   H10S 1101   4.288   1.593  12.803
    9OSM   H10T 1102   4.147   1.522  12.719
    9OSM   C11S 1103   4.336   1.424  12.676
    9OSM   H11S 1104   4.436   1.419  12.723
    9OSM   H11T 1105   4.346   1.486  12.584
    9OSM   C12S 1106   4.295   1.282  12.637
    9OSM   H12S 1107   4.294   1.220  12.729
    9OSM   H12T 1108   4.372   1.238  12.570
    9OSM   C13S 1109   4.157   1.270  12.569
    9OSM   H13S 1110   4.098   1.363  12.582
    9OSM   H13T 1111   4.100   1.190  12.621
    9OSM   C14S 1112   4.165   1.231  12.421
    9OSM   H14S 1113   4.064   1.200  12.387
    9OSM   H14T 1114   4.232   1.144  12.410
    9OSM   C15S 1115   4.213   1.343  12.328
    9OSM   H15S 1116   4.214   1.304  12.224
    9OSM   H15T 1117   4.318   1.372  12.354
    9OSM   C16S 1118   4.123   1.468  12.332
    9OSM   H16S 1119   4.147   1.527  12.423
    9OSM   H16T 1120   4.017   1.435  12.340
    9OSM   C17S 1121   4.136   1.556  12.207
    9OSM   H17S 1122   4.068   1.643  12.219
    9OSM   H17T 1123   4.101   1.499  12.119
    9OSM   C18S 1124   4.278   1.607  12.182
    9OSM   H18S 1125   4.317   1.661  12.271
    9OSM   H18T 1126   4.279   1.677  12.095
    9OSM   H18U 1127   4.347   1.523  12.159
    9OSM    C1F 1128   4.780   1.235  13.593
    9OSM     OF 1129   4.805   1.160  13.685
    9OSM    C2F 1130   4.888   1.277  13.498
    9OSM    H2F 1131   4.984   1.237  13.536
    9OSM    H2G 1132   4.895   1.388  13.496
    9OSM    C3F 1133   4.865   1.223  13.354
    9OSM    H3F 1134   4.813   1.125  13.355
    9OSM    H3G 1135   4.965   1.206  13.309
    9OSM    C4F 1136   4.791   1.322  13.263
    9OSM    H4F 1137   4.843   1.420  13.267
    9OSM    H4G 1138   4.687   1.338  13.299
    9OSM    C5F 1139   4.786   1.275  13.117
    9OSM    H5F 1140   4.717   1.189  13.108
    9OSM    H5G 1141   4.887   1.242  13.086
    9OSM    C6F 1142   4.742   1.387  13.023
    9OSM    H6F 1143   4.819   1.468  13.025
    9OSM    H6G 1144   4.647   1.432  13.058
    9OSM    C7F 1145   4.723   1.338  12.879
    9OSM    H7F 1146   4.632   1.274  12.876
    9OSM    H7G 1147   4.808   1.274  12.849
    9OSM    C8F 1148   4.707   1.453  12.777
    9OSM    H8F 1149   4.631   1.524  12.815
    9OSM    H8G 1150   4.665   1.409  12.684
    9OSM    C9F 1151   4.837   1.524  12.751
    9OSM    H9F 1152   4.881   1.573  12.839
    9OSM   C10F 1153   4.902   1.531  12.634
    9OSM   H10F 1154   5.000   1.582  12.630
    9OSM   C11F 1155   4.857   1.470  12.504
    9OSM   H11F 1156   4.895   1.531  12.419
    9OSM   H11G 1157   4.746   1.471  12.495
    9OSM   C12F 1158   4.903   1.324  12.487
    9OSM   H12F 1159   4.875   1.265  12.576
    9OSM   H12G 1160   5.014   1.321  12.479
    9OSM   C13F 1161   4.843   1.254  12.363
    9OSM   H13F 1162   4.733   1.243  12.377
    9OSM   H13G 1163   4.887   1.152  12.356
    9OSM   C14F 1164   4.869   1.329  12.232
    9OSM   H14F 1165   4.979   1.346  12.222
    9OSM   H14G 1166   4.820   1.428  12.237
    9OSM   C15F 1167   4.820   1.257  12.106
    9OSM   H15F 1168   4.709   1.251  12.108
    9OSM   H15G 1169   4.860   1.154  12.102
    9OSM   C16F 1170   4.865   1.333  11.981
    9OSM   H16F 1171   4.976   1.343  11.983
    9OSM   H16G 1172   4.822   1.436  11.985
    9OSM   C17F 1173   4.824   1.269  11.848
    9OSM   H17F 1174   4.714   1.257  11.846
    9OSM   H17G 1175   4.868   1.167  11.843
    9OSM   C18F 1176   4.871   1.350  11.727
    9OSM   H18F 1177   4.837   1.303  11.632
    9OSM   H18G 1178   4.981   1.358  11.725
    9OSM   H18H 1179   4.829   1.453  11.731
   10OSM      N 1180   2.675   2.609   9.820
   10OSM    C15 1181   2.824   2.611   9.832
   10OSM   H15A 1182   2.867   2.534   9.769
   10OSM   H15B 1183   2.855   2.590   9.933
   10OSM   H15C 1184   2.866   2.706   9.801
   10OSM    C14 1185   2.634   2.641   9.679
   10OSM   H14A 1186   2.527   2.639   9.672
   10OSM   H14B 1187   2.670   2.567   9.610
   10OSM   H14C 1188   2.669   2.738   9.645
   10OSM    C13 1189   2.631   2.467   9.844
   10OSM   H13A 1190   2.672   2.400   9.769
   10OSM   H13B 1191   2.523   2.462   9.838
   10OSM   H13C 1192   2.660   2.431   9.942
   10OSM    C12 1193   2.606   2.701   9.920
   10OSM   H12A 1194   2.653   2.798   9.917
   10OSM   H12B 1195   2.624   2.663  10.019
   10OSM    C11 1196   2.452   2.721   9.904
   10OSM   H11A 1197   2.433   2.785   9.816
   10OSM   H11B 1198   2.415   2.777   9.993
   10OSM      P 1199   2.262   2.546   9.971
   10OSM    O13 1200   2.146   2.637   9.956
   10OSM    O14 1201   2.240   2.403   9.939
   10OSM    O11 1202   2.313   2.555  10.120
   10OSM    O12 1203   2.383   2.598   9.886
   10OSM    C1S 1204   2.439   2.502  10.161
   10OSM    H1S 1205   2.521   2.565  10.119
   10OSM    H1T 1206   2.455   2.398  10.124
   10OSM     NF 1207   2.587   2.504  10.366
   10OSM    HNF 1208   2.610   2.432  10.431
   10OSM    C2S 1209   2.450   2.503  10.316
   10OSM    H2S 1210   2.400   2.596  10.352
   10OSM    C3S 1211   2.371   2.380  10.368
   10OSM    H3S 1212   2.429   2.288  10.347
   10OSM     O3 1213   2.246   2.364  10.302
   10OSM    HO3 1214   2.248   2.429  10.231
   10OSM    C4S 1215   2.340   2.387  10.515
   10OSM    H4S 1216   2.241   2.426  10.540
   10OSM    C5S 1217   2.420   2.343  10.614
   10OSM    H5S 1218   2.520   2.303  10.590
   10OSM    C6S 1219   2.387   2.344  10.761
   10OSM    H6S 1220   2.400   2.240  10.798
   10OSM    H6T 1221   2.281   2.370  10.779
   10OSM    C7S 1222   2.473   2.433  10.852
   10OSM    H7S 1223   2.440   2.538  10.843
   10OSM    H7T 1224   2.580   2.428  10.822
   10OSM    C8S 1225   2.464   2.386  10.999
   10OSM    H8S 1226   2.525   2.294  11.008
   10OSM    H8T 1227   2.359   2.359  11.023
   10OSM    C9S 1228   2.514   2.490  11.100
   10OSM    H9S 1229   2.595   2.551  11.054
   10OSM    H9T 1230   2.556   2.438  11.188
   10OSM   C10S 1231   2.400   2.582  11.148
   10OSM   H10S 1232   2.329   2.521  11.208
   10OSM   H10T 1233   2.345   2.620  11.060
   10OSM   C11S 1234   2.446   2.702  11.232
   10OSM   H11S 1235   2.358   2.762  11.260
   10OSM   H11T 1236   2.512   2.765  11.169
   10OSM   C12S 1237   2.522   2.664  11.361
   10OSM   H12S 1238   2.612   2.605  11.332
   10OSM   H12T 1239   2.459   2.597  11.424
   10OSM   C13S 1240   2.566   2.787  11.441
   10OSM   H13S 1241   2.586   2.870  11.370
   10OSM   H13T 1242   2.661   2.766  11.495
   10OSM   C14S 1243   2.461   2.832  11.544
   10OSM   H14S 1244   2.359   2.813  11.504
   10OSM   H14T 1245   2.471   2.941  11.560
   10OSM   C15S 1246   2.479   2.762  11.680
   10OSM   H15S 1247   2.574   2.796  11.726
   10OSM   H15T 1248   2.488   2.652  11.663
   10OSM   C16S 1249   2.363   2.785  11.779
   10OSM   H16S 1250   2.389   2.738  11.875
   10OSM   H16T 1251   2.272   2.734  11.740
   10OSM   C17S 1252   2.328   2.933  11.805
   10OSM   H17S 1253   2.247   2.936  11.882
   10OSM   H17T 1254   2.286   2.977  11.712
   10OSM   C18S 1255   2.445   3.019  11.853
   10OSM   H18S 1256   2.493   2.974  11.943
   10OSM   H18T 1257   2.410   3.121  11.879
   10OSM   H18U 1258   2.521   3.028  11.773
   10OSM    C1F 1259   2.679   2.600  10.344
   10OSM     OF 1260   2.676   2.674  10.247
   10OSM    C2F 1261   2.788   2.607  10.447
   10OSM    H2F 1262   2.871   2.669  10.408
   10OSM    H2G 1263   2.827   2.504  10.463
   10OSM    C3F 1264   2.737   2.665  10.581
   10OSM    H3F 1265   2.626   2.667  10.584
   10OSM    H3G 1266   2.771   2.771  10.590
   10OSM    C4F 1267   2.782   2.586  10.705
   10OSM    H4F 1268   2.756   2.478  10.692
   10OSM    H4G 1269   2.723   2.624  10.791
   10OSM    C5F 1270   2.931   2.598  10.740
   10OSM    H5F 1271   2.958   2.705  10.750
   10OSM    H5G 1272   2.991   2.556  10.656
   10OSM    C6F 1273   2.969   2.525  10.870
   10OSM    H6F 1274   3.080   2.520  10.879
   10OSM    H6G 1275   2.931   2.420  10.866
   10OSM    C7F 1276   2.914   2.594  10.996
   10OSM    H7F 1277   2.804   2.606  10.984
   10OSM    H7G 1278   2.957   2.696  11.001
   10OSM    C8F 1279   2.942   2.519  11.127
   10OSM    H8F 1280   3.051   2.511  11.143
   10OSM    H8G 1281   2.902   2.416  11.118
   10OSM    C9F 1282   2.874   2.591  11.241
   10OSM    H9F 1283   2.800   2.666  11.210
   10OSM   C10F 1284   2.897   2.575  11.372
   10OSM   H10F 1285   2.838   2.635  11.443
   10OSM   C11F 1286   2.996   2.482  11.436
   10OSM   H11F 1287   3.092   2.481  11.380
   10OSM   H11G 1288   2.956   2.378  11.435
   10OSM   C12F 1289   3.026   2.522  11.582
   10OSM   H12F 1290   3.070   2.624  11.587
   10OSM   H12G 1291   3.102   2.451  11.621
   10OSM   C13F 1292   2.902   2.514  11.674
   10OSM   H13F 1293   2.843   2.425  11.647
   10OSM   H13G 1294   2.837   2.603  11.658
   10OSM   C14F 1295   2.940   2.506  11.823
   10OSM   H14F 1296   3.003   2.593  11.849
   10OSM   H14G 1297   3.000   2.415  11.840
   10OSM   C15F 1298   2.818   2.504  11.918
   10OSM   H15F 1299   2.762   2.598  11.905
   10OSM   H15G 1300   2.856   2.500  12.022
   10OSM   C16F 1301   2.724   2.384  11.898
   10OSM   H16F 1302   2.783   2.290  11.905
   10OSM   H16G 1303   2.678   2.388  11.797
   10OSM   C17F 1304   2.611   2.378  12.003
   10OSM   H17F 1305   2.656   2.372  12.104
   10OSM   H17G 1306   2.553   2.284  11.987
   10OSM   C18F 1307   2.514   2.496  11.999
   10OSM   H18F 1308   2.433   2.482  12.073
   10OSM   H18G 1309   2.468   2.505  11.898
   10OSM   H18H 1310   2.566   2.591  12.022
   11OSM      N 1311   2.765   3.174   9.704
   11OSM    C15 1312   2.839   3.268   9.616
   11OSM   H15A 1313   2.811   3.370   9.637
   11OSM   H15B 1314   2.821   3.249   9.511
   11OSM   H15C 1315   2.946   3.263   9.633
   11OSM    C14 1316   2.618   3.188   9.676
   11OSM   H14A 1317   2.587   3.289   9.696
   11OSM   H14B 1318   2.559   3.120   9.736
   11OSM   H14C 1319   2.597   3.167   9.572
   11OSM    C13 1320   2.809   3.034   9.670
   11OSM   H13A 1321   2.916   3.025   9.679
   11OSM   H13B 1322   2.783   3.009   9.568
   11OSM   H13C 1323   2.762   2.961   9.733
   11OSM    C12 1324   2.796   3.204   9.851
   11OSM   H12A 1325   2.899   3.180   9.869
   11OSM   H12B 1326   2.738   3.139   9.915
   11OSM    C11 1327   2.778   3.350   9.901
   11OSM   H11A 1328   2.769   3.350  10.012
   11OSM   H11B 1329   2.682   3.392   9.863
   11OSM      P 1330   3.030   3.408   9.922
   11OSM    O13 1331   3.074   3.272   9.883
   11OSM    O14 1332   3.119   3.518   9.879
   11OSM    O11 1333   3.005   3.410  10.078
   11OSM    O12 1334   2.886   3.433   9.859
   11OSM    C1S 1335   3.015   3.530  10.156
   11OSM    H1S 1336   2.949   3.609  10.114
   11OSM    H1T 1337   3.119   3.570  10.155
   11OSM     NF 1338   3.076   3.441  10.382
   11OSM    HNF 1339   3.069   3.342  10.395
   11OSM    C2S 1340   2.972   3.509  10.305
   11OSM    H2S 1341   2.958   3.610  10.350
   11OSM    C3S 1342   2.837   3.432  10.315
   11OSM    H3S 1343   2.851   3.329  10.276
   11OSM     O3 1344   2.730   3.489  10.240
   11OSM    HO3 1345   2.769   3.563  10.191
   11OSM    C4S 1346   2.802   3.419  10.463
   11OSM    H4S 1347   2.860   3.340  10.513
   11OSM    C5S 1348   2.714   3.489  10.537
   11OSM    H5S 1349   2.653   3.566  10.489
   11OSM    C6S 1350   2.689   3.469  10.685
   11OSM    H6S 1351   2.602   3.401  10.702
   11OSM    H6T 1352   2.661   3.567  10.729
   11OSM    C7S 1353   2.809   3.417  10.768
   11OSM    H7S 1354   2.900   3.473  10.735
   11OSM    H7T 1355   2.827   3.309  10.748
   11OSM    C8S 1356   2.796   3.440  10.920
   11OSM    H8S 1357   2.760   3.544  10.938
   11OSM    H8T 1358   2.897   3.432  10.965
   11OSM    C9S 1359   2.703   3.340  10.990
   11OSM    H9S 1360   2.749   3.239  10.983
   11OSM    H9T 1361   2.606   3.337  10.936
   11OSM   C10S 1362   2.675   3.372  11.139
   11OSM   H10S 1363   2.610   3.290  11.178
   11OSM   H10T 1364   2.617   3.466  11.148
   11OSM   C11S 1365   2.799   3.386  11.229
   11OSM   H11S 1366   2.860   3.472  11.193
   11OSM   H11T 1367   2.861   3.295  11.219
   11OSM   C12S 1368   2.764   3.409  11.377
   11OSM   H12S 1369   2.712   3.507  11.388
   11OSM   H12T 1370   2.859   3.415  11.435
   11OSM   C13S 1371   2.675   3.299  11.437
   11OSM   H13S 1372   2.716   3.201  11.404
   11OSM   H13T 1373   2.572   3.308  11.396
   11OSM   C14S 1374   2.668   3.298  11.591
   11OSM   H14S 1375   2.769   3.284  11.633
   11OSM   H14T 1376   2.607   3.209  11.621
   11OSM   C15S 1377   2.604   3.423  11.652
   11OSM   H15S 1378   2.520   3.456  11.588
   11OSM   H15T 1379   2.679   3.505  11.655
   11OSM   C16S 1380   2.548   3.395  11.793
   11OSM   H16S 1381   2.627   3.348  11.856
   11OSM   H16T 1382   2.465   3.322  11.783
   11OSM   C17S 1383   2.495   3.521  11.864
   11OSM   H17S 1384   2.413   3.491  11.932
   11OSM   H17T 1385   2.451   3.589  11.789
   11OSM   C18S 1386   2.602   3.593  11.947
   11OSM   H18S 1387   2.688   3.622  11.883
   11OSM   H18T 1388   2.639   3.527  12.028
   11OSM   H18U 1389   2.560   3.685  11.993
   11OSM    C1F 1390   3.185   3.504  10.425
   11OSM     OF 1391   3.215   3.613  10.380
   11OSM    C2F 1392   3.269   3.436  10.529
   11OSM    H2F 1393   3.340   3.511  10.569
   11OSM    H2G 1394   3.328   3.354  10.481
   11OSM    C3F 1395   3.187   3.379  10.647
   11OSM    H3F 1396   3.115   3.302  10.612
   11OSM    H3G 1397   3.130   3.462  10.694
   11OSM    C4F 1398   3.277   3.315  10.755
   11OSM    H4F 1399   3.357   3.388  10.780
   11OSM    H4G 1400   3.328   3.226  10.713
   11OSM    C5F 1401   3.203   3.278  10.884
   11OSM    H5F 1402   3.152   3.368  10.924
   11OSM    H5G 1403   3.279   3.246  10.959
   11OSM    C6F 1404   3.101   3.164  10.869
   11OSM    H6F 1405   3.154   3.074  10.830
   11OSM    H6G 1406   3.024   3.192  10.795
   11OSM    C7F 1407   3.032   3.130  11.002
   11OSM    H7F 1408   2.973   3.219  11.033
   11OSM    H7G 1409   3.110   3.114  11.080
   11OSM    C8F 1410   2.942   3.005  10.993
   11OSM    H8F 1411   3.006   2.915  11.002
   11OSM    H8G 1412   2.900   3.003  10.890
   11OSM    C9F 1413   2.826   2.998  11.091
   11OSM    H9F 1414   2.728   2.984  11.043
   11OSM   C10F 1415   2.829   3.010  11.225
   11OSM   H10F 1416   2.734   3.005  11.280
   11OSM   C11F 1417   2.950   3.031  11.312
   11OSM   H11F 1418   2.958   3.137  11.345
   11OSM   H11G 1419   3.043   3.008  11.256
   11OSM   C12F 1420   2.948   2.941  11.437
   11OSM   H12F 1421   3.054   2.924  11.468
   11OSM   H12G 1422   2.905   2.842  11.414
   11OSM   C13F 1423   2.877   3.003  11.558
   11OSM   H13F 1424   2.768   3.013  11.538
   11OSM   H13G 1425   2.918   3.105  11.574
   11OSM   C14F 1426   2.899   2.920  11.686
   11OSM   H14F 1427   3.008   2.904  11.702
   11OSM   H14G 1428   2.852   2.821  11.671
   11OSM   C15F 1429   2.839   2.984  11.812
   11OSM   H15F 1430   2.842   2.909  11.895
   11OSM   H15G 1431   2.732   3.008  11.793
   11OSM   C16F 1432   2.912   3.111  11.859
   11OSM   H16F 1433   2.912   3.186  11.777
   11OSM   H16G 1434   3.018   3.086  11.882
   11OSM   C17F 1435   2.847   3.174  11.983
   11OSM   H17F 1436   2.859   3.104  12.068
   11OSM   H17G 1437   2.738   3.185  11.964
   11OSM   C18F 1438   2.907   3.310  12.019
   11OSM   H18F 1439   3.015   3.301  12.040
   11OSM   H18G 1440   2.857   3.351  12.110
   11OSM   H18H 1441   2.892   3.382  11.936
   12OSM      N 1442   3.243   1.885   9.840
   12OSM    C15 1443   3.295   1.753   9.888
   12OSM   H15A 1444   3.371   1.716   9.820
   12OSM   H15B 1445   3.217   1.679   9.890
   12OSM   H15C 1446   3.337   1.760   9.987
   12OSM    C14 1447   3.356   1.983   9.829
   12OSM   H14A 1448   3.431   1.945   9.761
   12OSM   H14B 1449   3.402   2.001   9.925
   12OSM   H14C 1450   3.319   2.077   9.790
   12OSM    C13 1451   3.185   1.864   9.703
   12OSM   H13A 1452   3.100   1.797   9.707
   12OSM   H13B 1453   3.258   1.824   9.634
   12OSM   H13C 1454   3.145   1.957   9.666
   12OSM    C12 1455   3.135   1.936   9.934
   12OSM   H12A 1456   3.176   1.943  10.034
   12OSM   H12B 1457   3.058   1.861   9.942
   12OSM    C11 1458   3.066   2.071   9.899
   12OSM   H11A 1459   3.143   2.150   9.893
   12OSM   H11B 1460   2.998   2.100   9.982
   12OSM      P 1461   2.857   1.989   9.758
   12OSM    O13 1462   2.771   2.084   9.684
   12OSM    O14 1463   2.881   1.856   9.699
   12OSM    O11 1464   2.805   1.974   9.907
   12OSM    O12 1465   2.996   2.064   9.775
   12OSM    C1S 1466   2.803   1.846   9.971
   12OSM    H1S 1467   2.891   1.784   9.944
   12OSM    H1T 1468   2.712   1.789   9.940
   12OSM     NF 1469   2.836   1.742  10.197
   12OSM    HNF 1470   2.767   1.695  10.252
   12OSM    C2S 1471   2.798   1.864  10.126
   12OSM    H2S 1472   2.871   1.943  10.154
   12OSM    C3S 1473   2.656   1.914  10.163
   12OSM    H3S 1474   2.582   1.837  10.130
   12OSM     O3 1475   2.620   2.036  10.096
   12OSM    HO3 1476   2.678   2.038  10.020
   12OSM    C4S 1477   2.642   1.930  10.313
   12OSM    H4S 1478   2.613   1.835  10.362
   12OSM    C5S 1479   2.655   2.041  10.388
   12OSM    H5S 1480   2.676   2.136  10.338
   12OSM    C6S 1481   2.636   2.049  10.538
   12OSM    H6S 1482   2.545   2.109  10.557
   12OSM    H6T 1483   2.722   2.102  10.586
   12OSM    C7S 1484   2.613   1.916  10.612
   12OSM    H7S 1485   2.704   1.853  10.612
   12OSM    H7T 1486   2.532   1.862  10.558
   12OSM    C8S 1487   2.560   1.933  10.756
   12OSM    H8S 1488   2.524   1.833  10.790
   12OSM    H8T 1489   2.472   2.001  10.756
   12OSM    C9S 1490   2.659   1.983  10.861
   12OSM    H9S 1491   2.672   2.093  10.852
   12OSM    H9T 1492   2.758   1.934  10.847
   12OSM   C10S 1493   2.605   1.948  11.001
   12OSM   H10S 1494   2.616   1.838  11.016
   12OSM   H10T 1495   2.497   1.970  11.005
   12OSM   C11S 1496   2.672   2.020  11.118
   12OSM   H11S 1497   2.634   1.976  11.213
   12OSM   H11T 1498   2.642   2.127  11.118
   12OSM   C12S 1499   2.825   2.012  11.117
   12OSM   H12S 1500   2.863   2.076  11.034
   12OSM   H12T 1501   2.858   1.908  11.097
   12OSM   C13S 1502   2.887   2.060  11.249
   12OSM   H13S 1503   2.831   2.148  11.287
   12OSM   H13T 1504   2.991   2.093  11.230
   12OSM   C14S 1505   2.892   1.949  11.356
   12OSM   H14S 1506   2.942   1.861  11.310
   12OSM   H14T 1507   2.789   1.918  11.384
   12OSM   C15S 1508   2.971   1.990  11.481
   12OSM   H15S 1509   3.063   2.042  11.449
   12OSM   H15T 1510   3.002   1.899  11.536
   12OSM   C16S 1511   2.891   2.080  11.576
   12OSM   H16S 1512   2.823   2.018  11.638
   12OSM   H16T 1513   2.827   2.148  11.515
   12OSM   C17S 1514   2.980   2.169  11.665
   12OSM   H17S 1515   2.913   2.236  11.723
   12OSM   H17T 1516   3.043   2.232  11.599
   12OSM   C18S 1517   3.071   2.096  11.764
   12OSM   H18S 1518   3.133   2.020  11.713
   12OSM   H18T 1519   3.010   2.045  11.843
   12OSM   H18U 1520   3.138   2.168  11.815
   12OSM    C1F 1521   2.962   1.695  10.198
   12OSM     OF 1522   3.044   1.735  10.116
   12OSM    C2F 1523   3.000   1.594  10.302
   12OSM    H2F 1524   3.110   1.578  10.296
   12OSM    H2G 1525   2.951   1.497  10.279
   12OSM    C3F 1526   2.965   1.638  10.447
   12OSM    H3F 1527   3.010   1.563  10.515
   12OSM    H3G 1528   2.855   1.635  10.463
   12OSM    C4F 1529   3.019   1.777  10.486
   12OSM    H4F 1530   2.960   1.854  10.431
   12OSM    H4G 1531   3.124   1.785  10.453
   12OSM    C5F 1532   3.011   1.807  10.636
   12OSM    H5F 1533   3.098   1.759  10.688
   12OSM    H5G 1534   2.919   1.761  10.678
   12OSM    C6F 1535   3.007   1.957  10.669
   12OSM    H6F 1536   2.997   1.972  10.779
   12OSM    H6G 1537   2.916   1.998  10.622
   12OSM    C7F 1538   3.128   2.039  10.618
   12OSM    H7F 1539   3.094   2.143  10.599
   12OSM    H7G 1540   3.160   1.998  10.520
   12OSM    C8F 1541   3.249   2.042  10.713
   12OSM    H8F 1542   3.337   2.076  10.655
   12OSM    H8G 1543   3.269   1.937  10.745
   12OSM    C9F 1544   3.229   2.136  10.830
   12OSM    H9F 1545   3.195   2.236  10.803
   12OSM   C10F 1546   3.249   2.109  10.961
   12OSM   H10F 1547   3.229   2.188  11.035
   12OSM   C11F 1548   3.295   1.978  11.020
   12OSM   H11F 1549   3.378   1.996  11.092
   12OSM   H11G 1550   3.336   1.910  10.942
   12OSM   C12F 1551   3.181   1.905  11.093
   12OSM   H12F 1552   3.089   1.909  11.030
   12OSM   H12G 1553   3.158   1.956  11.189
   12OSM   C13F 1554   3.210   1.757  11.120
   12OSM   H13F 1555   3.241   1.711  11.023
   12OSM   H13G 1556   3.117   1.706  11.151
   12OSM   C14F 1557   3.321   1.731  11.223
   12OSM   H14F 1558   3.407   1.800  11.205
   12OSM   H14G 1559   3.358   1.628  11.208
   12OSM   C15F 1560   3.277   1.741  11.370
   12OSM   H15F 1561   3.246   1.845  11.394
   12OSM   H15G 1562   3.366   1.717  11.433
   12OSM   C16F 1563   3.164   1.644  11.407
   12OSM   H16F 1564   3.174   1.552  11.345
   12OSM   H16G 1565   3.067   1.691  11.381
   12OSM   C17F 1566   3.164   1.602  11.555
   12OSM   H17F 1567   3.059   1.601  11.591
   12OSM   H17G 1568   3.219   1.678  11.615
   12OSM   C18F 1569   3.224   1.463  11.578
   12OSM   H18F 1570   3.232   1.441  11.686
   12OSM   H18G 1571   3.325   1.456  11.532
   12OSM   H18H 1572   3.160   1.385  11.531
   13OSM      N 1573   1.402   2.046   9.827
   13OSM    C15 1574   1.266   2.081   9.879
   13OSM   H15A 1575   1.267   2.111   9.983
   13OSM   H15B 1576   1.198   1.997   9.871
   13OSM   H15C 1577   1.222   2.163   9.823
   13OSM    C14 1578   1.388   2.003   9.684
   13OSM   H14A 1579   1.355   2.083   9.620
   13OSM   H14B 1580   1.319   1.919   9.674
   13OSM   H14C 1581   1.483   1.967   9.647
   13OSM    C13 1582   1.489   2.168   9.828
   13OSM   H13A 1583   1.445   2.248   9.770
   13OSM   H13B 1584   1.584   2.147   9.783
   13OSM   H13C 1585   1.506   2.205   9.928
   13OSM    C12 1586   1.463   1.935   9.910
   13OSM   H12A 1587   1.390   1.856   9.923
   13OSM   H12B 1588   1.485   1.973  10.008
   13OSM    C11 1589   1.590   1.865   9.854
   13OSM   H11A 1590   1.640   1.809   9.936
   13OSM   H11B 1591   1.662   1.942   9.820
   13OSM      P 1592   1.465   1.651   9.768
   13OSM    O13 1593   1.329   1.681   9.716
   13OSM    O14 1594   1.532   1.531   9.715
   13OSM    O11 1595   1.456   1.641   9.926
   13OSM    O12 1596   1.559   1.777   9.746
   13OSM    C1S 1597   1.363   1.549   9.983
   13OSM    H1S 1598   1.382   1.446   9.946
   13OSM    H1T 1599   1.258   1.575   9.956
   13OSM     NF 1600   1.311   1.658  10.200
   13OSM    HNF 1601   1.371   1.724  10.243
   13OSM    C2S 1602   1.376   1.544  10.138
   13OSM    H2S 1603   1.324   1.452  10.173
   13OSM    C3S 1604   1.525   1.534  10.182
   13OSM    H3S 1605   1.584   1.618  10.139
   13OSM     O3 1606   1.587   1.411  10.142
   13OSM    HO3 1607   1.548   1.390  10.057
   13OSM    C4S 1608   1.529   1.542  10.332
   13OSM    H4S 1609   1.479   1.457  10.380
   13OSM    C5S 1610   1.584   1.639  10.409
   13OSM    H5S 1611   1.638   1.721  10.361
   13OSM    C6S 1612   1.582   1.642  10.561
   13OSM    H6S 1613   1.542   1.739  10.596
   13OSM    H6T 1614   1.686   1.634  10.600
   13OSM    C7S 1615   1.497   1.530  10.626
   13OSM    H7S 1616   1.535   1.433  10.587
   13OSM    H7T 1617   1.392   1.540  10.593
   13OSM    C8S 1618   1.501   1.522  10.779
   13OSM    H8S 1619   1.502   1.624  10.823
   13OSM    H8T 1620   1.595   1.472  10.810
   13OSM    C9S 1621   1.383   1.442  10.836
   13OSM    H9S 1622   1.370   1.351  10.775
   13OSM    H9T 1623   1.290   1.503  10.827
   13OSM   C10S 1624   1.401   1.398  10.983
   13OSM   H10S 1625   1.488   1.329  10.990
   13OSM   H10T 1626   1.311   1.339  11.012
   13OSM   C11S 1627   1.419   1.513  11.083
   13OSM   H11S 1628   1.338   1.587  11.068
   13OSM   H11T 1629   1.516   1.564  11.065
   13OSM   C12S 1630   1.413   1.464  11.229
   13OSM   H12S 1631   1.484   1.380  11.244
   13OSM   H12T 1632   1.310   1.424  11.248
   13OSM   C13S 1633   1.443   1.574  11.332
   13OSM   H13S 1634   1.377   1.559  11.421
   13OSM   H13T 1635   1.418   1.673  11.288
   13OSM   C14S 1636   1.589   1.572  11.380
   13OSM   H14S 1637   1.654   1.572  11.290
   13OSM   H14T 1638   1.608   1.477  11.434
   13OSM   C15S 1639   1.632   1.691  11.468
   13OSM   H15S 1640   1.629   1.782  11.404
   13OSM   H15T 1641   1.738   1.676  11.498
   13OSM   C16S 1642   1.548   1.717  11.594
   13OSM   H16S 1643   1.440   1.724  11.569
   13OSM   H16T 1644   1.579   1.817  11.632
   13OSM   C17S 1645   1.569   1.616  11.709
   13OSM   H17S 1646   1.555   1.671  11.804
   13OSM   H17T 1647   1.674   1.580  11.707
   13OSM   C18S 1648   1.472   1.498  11.708
   13OSM   H18S 1649   1.485   1.436  11.617
   13OSM   H18T 1650   1.367   1.534  11.711
   13OSM   H18U 1651   1.489   1.433  11.797
   13OSM    C1F 1652   1.179   1.671  10.212
   13OSM     OF 1653   1.100   1.606  10.145
   13OSM    C2F 1654   1.135   1.766  10.318
   13OSM    H2F 1655   1.034   1.805  10.293
   13OSM    H2G 1656   1.207   1.851  10.321
   13OSM    C3F 1657   1.133   1.695  10.455
   13OSM    H3F 1658   1.224   1.632  10.469
   13OSM    H3G 1659   1.046   1.626  10.456
   13OSM    C4F 1660   1.124   1.792  10.573
   13OSM    H4F 1661   1.058   1.745  10.650
   13OSM    H4G 1662   1.078   1.888  10.543
   13OSM    C5F 1663   1.258   1.818  10.643
   13OSM    H5F 1664   1.330   1.868  10.575
   13OSM    H5G 1665   1.300   1.719  10.670
   13OSM    C6F 1666   1.241   1.898  10.773
   13OSM    H6F 1667   1.139   1.880  10.813
   13OSM    H6G 1668   1.252   2.006  10.754
   13OSM    C7F 1669   1.340   1.850  10.881
   13OSM    H7F 1670   1.445   1.870  10.850
   13OSM    H7G 1671   1.328   1.740  10.890
   13OSM    C8F 1672   1.312   1.909  11.020
   13OSM    H8F 1673   1.362   1.842  11.093
   13OSM    H8G 1674   1.204   1.902  11.041
   13OSM    C9F 1675   1.359   2.052  11.036
   13OSM    H9F 1676   1.322   2.123  10.960
   13OSM   C10F 1677   1.439   2.098  11.135
   13OSM   H10F 1678   1.466   2.204  11.138
   13OSM   C11F 1679   1.496   2.013  11.246
   13OSM   H11F 1680   1.574   2.069  11.302
   13OSM   H11G 1681   1.546   1.925  11.202
   13OSM   C12F 1682   1.390   1.962  11.346
   13OSM   H12F 1683   1.430   1.870  11.395
   13OSM   H12G 1684   1.297   1.931  11.294
   13OSM   C13F 1685   1.355   2.060  11.459
   13OSM   H13F 1686   1.321   2.157  11.416
   13OSM   H13G 1687   1.446   2.079  11.518
   13OSM   C14F 1688   1.245   2.002  11.549
   13OSM   H14F 1689   1.275   1.901  11.583
   13OSM   H14G 1690   1.152   1.990  11.490
   13OSM   C15F 1691   1.214   2.087  11.674
   13OSM   H15F 1692   1.128   2.041  11.727
   13OSM   H15G 1693   1.184   2.189  11.642
   13OSM   C16F 1694   1.332   2.094  11.772
   13OSM   H16F 1695   1.410   2.160  11.729
   13OSM   H16G 1696   1.375   1.993  11.783
   13OSM   C17F 1697   1.293   2.147  11.911
   13OSM   H17F 1698   1.385   2.149  11.974
   13OSM   H17G 1699   1.223   2.074  11.958
   13OSM   C18F 1700   1.229   2.286  11.911
   13OSM   H18F 1701   1.207   2.318  12.015
   13OSM   H18G 1702   1.134   2.285  11.854
   13OSM   H18H 1703   1.298   2.360  11.865
   14OSM      N 1704   1.793   1.030   9.873
   14OSM    C15 1705   1.796   1.031  10.022
   14OSM   H15A 1706   1.696   1.047  10.060
   14OSM   H15B 1707   1.858   1.112  10.057
   14OSM   H15C 1708   1.832   0.937  10.061
   14OSM    C14 1709   1.929   1.006   9.817
   14OSM   H14A 1710   1.991   1.093   9.835
   14OSM   H14B 1711   1.925   0.996   9.709
   14OSM   H14C 1712   1.976   0.917   9.857
   14OSM    C13 1713   1.700   0.920   9.828
   14OSM   H13A 1714   1.600   0.939   9.863
   14OSM   H13B 1715   1.732   0.824   9.865
   14OSM   H13C 1716   1.696   0.915   9.720
   14OSM    C12 1717   1.741   1.164   9.822
   14OSM   H12A 1718   1.636   1.174   9.846
   14OSM   H12B 1719   1.746   1.164   9.714
   14OSM    C11 1720   1.812   1.295   9.867
   14OSM   H11A 1721   1.797   1.310   9.976
   14OSM   H11B 1722   1.760   1.378   9.815
   14OSM      P 1723   2.036   1.425   9.838
   14OSM    O13 1724   2.156   1.406   9.753
   14OSM    O14 1725   1.952   1.543   9.810
   14OSM    O11 1726   2.085   1.434   9.989
   14OSM    O12 1727   1.951   1.292   9.834
   14OSM    C1S 1728   2.083   1.318  10.072
   14OSM    H1S 1729   2.170   1.254  10.048
   14OSM    H1T 1730   1.992   1.256  10.058
   14OSM     NF 1731   2.087   1.235  10.304
   14OSM    HNF 1732   2.014   1.226  10.371
   14OSM    C2S 1733   2.082   1.355  10.223
   14OSM    H2S 1734   2.172   1.415  10.246
   14OSM    C3S 1735   1.956   1.441  10.257
   14OSM    H3S 1736   1.866   1.386  10.222
   14OSM     O3 1737   1.955   1.568  10.192
   14OSM    HO3 1738   2.000   1.553  10.109
   14OSM    C4S 1739   1.949   1.463  10.405
   14OSM    H4S 1740   2.013   1.544  10.444
   14OSM    C5S 1741   1.868   1.394  10.488
   14OSM    H5S 1742   1.800   1.320  10.445
   14OSM    C6S 1743   1.856   1.411  10.637
   14OSM    H6S 1744   1.891   1.318  10.688
   14OSM    H6T 1745   1.748   1.421  10.663
   14OSM    C7S 1746   1.930   1.530  10.701
   14OSM    H7S 1747   1.916   1.621  10.638
   14OSM    H7T 1748   2.039   1.507  10.704
   14OSM    C8S 1749   1.879   1.565  10.842
   14OSM    H8S 1750   1.771   1.586  10.834
   14OSM    H8T 1751   1.927   1.659  10.877
   14OSM    C9S 1752   1.902   1.457  10.948
   14OSM    H9S 1753   2.004   1.469  10.991
   14OSM    H9T 1754   1.897   1.355  10.903
   14OSM   C10S 1755   1.798   1.464  11.060
   14OSM   H10S 1756   1.700   1.434  11.018
   14OSM   H10T 1757   1.788   1.570  11.095
   14OSM   C11S 1758   1.830   1.375  11.180
   14OSM   H11S 1759   1.853   1.271  11.147
   14OSM   H11T 1760   1.738   1.369  11.243
   14OSM   C12S 1761   1.944   1.428  11.268
   14OSM   H12S 1762   1.948   1.539  11.259
   14OSM   H12T 1763   2.041   1.389  11.230
   14OSM   C13S 1764   1.927   1.393  11.416
   14OSM   H13S 1765   1.839   1.448  11.455
   14OSM   H13T 1766   2.016   1.429  11.472
   14OSM   C14S 1767   1.909   1.243  11.443
   14OSM   H14S 1768   1.999   1.190  11.408
   14OSM   H14T 1769   1.822   1.204  11.386
   14OSM   C15S 1770   1.887   1.212  11.592
   14OSM   H15S 1771   1.966   1.261  11.652
   14OSM   H15T 1772   1.898   1.102  11.606
   14OSM   C16S 1773   1.748   1.252  11.643
   14OSM   H16S 1774   1.671   1.204  11.578
   14OSM   H16T 1775   1.735   1.362  11.634
   14OSM   C17S 1776   1.721   1.211  11.788
   14OSM   H17S 1777   1.738   1.101  11.798
   14OSM   H17T 1778   1.614   1.230  11.812
   14OSM   C18S 1779   1.808   1.285  11.891
   14OSM   H18S 1780   1.781   1.254  11.994
   14OSM   H18T 1781   1.793   1.394  11.882
   14OSM   H18U 1782   1.916   1.262  11.875
   14OSM    C1F 1783   2.184   1.145  10.306
   14OSM     OF 1784   2.282   1.155  10.231
   14OSM    C2F 1785   2.162   1.032  10.403
   14OSM    H2F 1786   2.123   0.945  10.346
   14OSM    H2G 1787   2.081   1.062  10.474
   14OSM    C3F 1788   2.287   0.995  10.485
   14OSM    H3F 1789   2.367   0.959  10.417
   14OSM    H3G 1790   2.262   0.910  10.552
   14OSM    C4F 1791   2.341   1.111  10.569
   14OSM    H4F 1792   2.358   1.198  10.503
   14OSM    H4G 1793   2.440   1.081  10.611
   14OSM    C5F 1794   2.252   1.155  10.685
   14OSM    H5F 1795   2.245   1.072  10.759
   14OSM    H5G 1796   2.149   1.179  10.650
   14OSM    C6F 1797   2.310   1.280  10.753
   14OSM    H6F 1798   2.314   1.363  10.678
   14OSM    H6G 1799   2.415   1.258  10.782
   14OSM    C7F 1800   2.231   1.330  10.875
   14OSM    H7F 1801   2.128   1.354  10.841
   14OSM    H7G 1802   2.277   1.424  10.912
   14OSM    C8F 1803   2.221   1.229  10.991
   14OSM    H8F 1804   2.166   1.139  10.956
   14OSM    H8G 1805   2.159   1.275  11.071
   14OSM    C9F 1806   2.356   1.191  11.044
   14OSM    H9F 1807   2.442   1.238  10.994
   14OSM   C10F 1808   2.379   1.104  11.144
   14OSM   H10F 1809   2.482   1.083  11.174
   14OSM   C11F 1810   2.273   1.029  11.220
   14OSM   H11F 1811   2.300   0.921  11.218
   14OSM   H11G 1812   2.174   1.036  11.170
   14OSM   C12F 1813   2.255   1.075  11.366
   14OSM   H12F 1814   2.177   1.011  11.411
   14OSM   H12G 1815   2.218   1.180  11.368
   14OSM   C13F 1816   2.382   1.066  11.453
   14OSM   H13F 1817   2.443   1.158  11.441
   14OSM   H13G 1818   2.444   0.981  11.417
   14OSM   C14F 1819   2.351   1.043  11.602
   14OSM   H14F 1820   2.446   1.030  11.658
   14OSM   H14G 1821   2.295   0.948  11.610
   14OSM   C15F 1822   2.270   1.157  11.667
   14OSM   H15F 1823   2.179   1.176  11.607
   14OSM   H15G 1824   2.331   1.250  11.664
   14OSM   C16F 1825   2.227   1.129  11.812
   14OSM   H16F 1826   2.180   1.220  11.854
   14OSM   H16G 1827   2.317   1.107  11.873
   14OSM   C17F 1828   2.127   1.013  11.824
   14OSM   H17F 1829   2.175   0.920  11.786
   14OSM   H17G 1830   2.041   1.035  11.757
   14OSM   C18F 1831   2.074   0.986  11.965
   14OSM   H18F 1832   2.014   1.072  12.002
   14OSM   H18G 1833   2.158   0.969  12.036
   14OSM   H18H 1834   2.009   0.896  11.966
   15OSM      N 1835   0.820   1.863   9.737
   15OSM    C15 1836   0.840   1.769   9.622
   15OSM   H15A 1837   0.805   1.670   9.648
   15OSM   H15B 1838   0.945   1.760   9.600
   15OSM   H15C 1839   0.788   1.803   9.534
   15OSM    C14 1840   0.900   1.809   9.852
   15OSM   H14A 1841   1.003   1.792   9.823
   15OSM   H14B 1842   0.860   1.714   9.883
   15OSM   H14C 1843   0.897   1.874   9.938
   15OSM    C13 1844   0.871   1.997   9.698
   15OSM   H13A 1845   0.820   2.034   9.610
   15OSM   H13B 1846   0.976   1.992   9.673
   15OSM   H13C 1847   0.860   2.071   9.776
   15OSM    C12 1848   0.672   1.870   9.773
   15OSM   H12A 1849   0.619   1.924   9.695
   15OSM   H12B 1850   0.659   1.929   9.863
   15OSM    C11 1851   0.597   1.736   9.798
   15OSM   H11A 1852   0.600   1.674   9.705
   15OSM   H11B 1853   0.491   1.759   9.818
   15OSM      P 1854   0.680   1.516   9.917
   15OSM    O13 1855   0.587   1.444   9.827
   15OSM    O14 1856   0.825   1.494   9.895
   15OSM    O11 1857   0.644   1.484  10.068
   15OSM    O12 1858   0.653   1.671   9.911
   15OSM    C1S 1859   0.694   1.575  10.168
   15OSM    H1S 1860   0.640   1.672  10.162
   15OSM    H1T 1861   0.803   1.594  10.155
   15OSM     NF 1862   0.742   1.605  10.410
   15OSM    HNF 1863   0.813   1.563  10.466
   15OSM    C2S 1864   0.677   1.518  10.313
   15OSM    H2S 1865   0.568   1.516  10.337
   15OSM    C3S 1866   0.732   1.373  10.317
   15OSM    H3S 1867   0.833   1.371  10.273
   15OSM     O3 1868   0.651   1.282  10.242
   15OSM    HO3 1869   0.617   1.339  10.173
   15OSM    C4S 1870   0.739   1.323  10.459
   15OSM    H4S 1871   0.642   1.298  10.505
   15OSM    C5S 1872   0.853   1.305  10.529
   15OSM    H5S 1873   0.950   1.326  10.481
   15OSM    C6S 1874   0.861   1.255  10.671
   15OSM    H6S 1875   0.952   1.193  10.685
   15OSM    H6T 1876   0.775   1.188  10.693
   15OSM    C7S 1877   0.860   1.367  10.777
   15OSM    H7S 1878   0.852   1.319  10.877
   15OSM    H7T 1879   0.770   1.431  10.764
   15OSM    C8S 1880   0.987   1.455  10.776
   15OSM    H8S 1881   0.996   1.504  10.677
   15OSM    H8T 1882   1.075   1.389  10.789
   15OSM    C9S 1883   0.989   1.563  10.885
   15OSM    H9S 1884   0.901   1.630  10.873
   15OSM    H9T 1885   1.080   1.625  10.871
   15OSM   C10S 1886   0.991   1.507  11.028
   15OSM   H10S 1887   1.070   1.429  11.035
   15OSM   H10T 1888   0.893   1.459  11.052
   15OSM   C11S 1889   1.021   1.615  11.134
   15OSM   H11S 1890   0.942   1.693  11.133
   15OSM   H11T 1891   1.116   1.664  11.105
   15OSM   C12S 1892   1.037   1.558  11.276
   15OSM   H12S 1893   1.102   1.628  11.334
   15OSM   H12T 1894   1.089   1.460  11.271
   15OSM   C13S 1895   0.905   1.543  11.354
   15OSM   H13S 1896   0.836   1.475  11.299
   15OSM   H13T 1897   0.856   1.643  11.360
   15OSM   C14S 1898   0.928   1.490  11.496
   15OSM   H14S 1899   1.016   1.543  11.539
   15OSM   H14T 1900   0.953   1.382  11.492
   15OSM   C15S 1901   0.810   1.512  11.592
   15OSM   H15S 1902   0.784   1.620  11.593
   15OSM   H15T 1903   0.843   1.484  11.695
   15OSM   C16S 1904   0.684   1.432  11.558
   15OSM   H16S 1905   0.707   1.323  11.562
   15OSM   H16T 1906   0.653   1.456  11.454
   15OSM   C17S 1907   0.565   1.462  11.652
   15OSM   H17S 1908   0.475   1.411  11.612
   15OSM   H17T 1909   0.545   1.571  11.650
   15OSM   C18S 1910   0.587   1.417  11.797
   15OSM   H18S 1911   0.495   1.437  11.858
   15OSM   H18T 1912   0.671   1.472  11.844
   15OSM   H18U 1913   0.609   1.309  11.802
   15OSM    C1F 1914   0.710   1.733  10.431
   15OSM     OF 1915   0.616   1.787  10.375
   15OSM    C2F 1916   0.804   1.808  10.522
   15OSM    H2F 1917   0.877   1.861  10.457
   15OSM    H2G 1918   0.858   1.732  10.583
   15OSM    C3F 1919   0.741   1.910  10.619
   15OSM    H3F 1920   0.673   1.857  10.690
   15OSM    H3G 1921   0.680   1.984  10.563
   15OSM    C4F 1922   0.852   1.983  10.698
   15OSM    H4F 1923   0.909   2.046  10.627
   15OSM    H4G 1924   0.923   1.907  10.739
   15OSM    C5F 1925   0.802   2.069  10.814
   15OSM    H5F 1926   0.691   2.076  10.807
   15OSM    H5G 1927   0.842   2.172  10.803
   15OSM    C6F 1928   0.840   2.017  10.954
   15OSM    H6F 1929   0.866   1.908  10.950
   15OSM    H6G 1930   0.751   2.026  11.018
   15OSM    C7F 1931   0.953   2.096  11.022
   15OSM    H7F 1932   0.933   2.205  11.010
   15OSM    H7G 1933   1.050   2.074  10.972
   15OSM    C8F 1934   0.961   2.065  11.173
   15OSM    H8F 1935   0.982   1.957  11.185
   15OSM    H8G 1936   0.859   2.081  11.214
   15OSM    C9F 1937   1.064   2.146  11.249
   15OSM    H9F 1938   1.168   2.117  11.227
   15OSM   C10F 1939   1.044   2.245  11.338
   15OSM   H10F 1940   1.131   2.293  11.385
   15OSM   C11F 1941   0.912   2.301  11.384
   15OSM   H11F 1942   0.828   2.239  11.347
   15OSM   H11G 1943   0.896   2.403  11.342
   15OSM   C12F 1944   0.894   2.309  11.537
   15OSM   H12F 1945   0.947   2.398  11.576
   15OSM   H12G 1946   0.939   2.219  11.585
   15OSM   C13F 1947   0.746   2.315  11.577
   15OSM   H13F 1948   0.700   2.216  11.556
   15OSM   H13G 1949   0.694   2.389  11.513
   15OSM   C14F 1950   0.719   2.351  11.724
   15OSM   H14F 1951   0.612   2.334  11.745
   15OSM   H14G 1952   0.739   2.459  11.739
   15OSM   C15F 1953   0.804   2.272  11.825
   15OSM   H15F 1954   0.909   2.305  11.817
   15OSM   H15G 1955   0.800   2.164  11.799
   15OSM   C16F 1956   0.755   2.290  11.970
   15OSM   H16F 1957   0.661   2.234  11.984
   15OSM   H16G 1958   0.733   2.398  11.987
   15OSM   C17F 1959   0.858   2.245  12.075
   15OSM   H17F 1960   0.812   2.257  12.175
   15OSM   H17G 1961   0.946   2.314  12.070
   15OSM   C18F 1962   0.907   2.101  12.058
   15OSM   H18F 1963   0.978   2.075  12.139
   15OSM   H18G 1964   0.960   2.088  11.961
   15OSM   H18H 1965   0.822   2.030  12.062
   16OSM      N 1966   3.376   0.879   9.790
   16OSM    C15 1967   3.464   0.987   9.736
   16OSM   H15A 1968   3.442   1.007   9.632
   16OSM   H15B 1969   3.568   0.958   9.744
   16OSM   H15C 1970   3.451   1.079   9.792
   16OSM    C14 1971   3.401   0.753   9.714
   16OSM   H14A 1972   3.333   0.676   9.748
   16OSM   H14B 1973   3.502   0.716   9.727
   16OSM   H14C 1974   3.383   0.766   9.608
   16OSM    C13 1975   3.411   0.856   9.934
   16OSM   H13A 1976   3.400   0.945   9.993
   16OSM   H13B 1977   3.512   0.819   9.944
   16OSM   H13C 1978   3.345   0.782   9.978
   16OSM    C12 1979   3.228   0.917   9.777
   16OSM   H12A 1980   3.205   0.925   9.672
   16OSM   H12B 1981   3.213   1.015   9.820
   16OSM    C11 1982   3.122   0.821   9.838
   16OSM   H11A 1983   3.022   0.865   9.819
   16OSM   H11B 1984   3.137   0.817   9.948
   16OSM      P 1985   3.028   0.578   9.821
   16OSM    O13 1986   2.892   0.625   9.786
   16OSM    O14 1987   3.076   0.453   9.757
   16OSM    O11 1988   3.048   0.566   9.979
   16OSM    O12 1989   3.132   0.691   9.780
   16OSM    C1S 1990   3.182   0.543  10.028
   16OSM    H1S 1991   3.248   0.629  10.003
   16OSM    H1T 1992   3.227   0.452   9.984
   16OSM     NF 1993   3.320   0.545  10.234
   16OSM    HNF 1994   3.376   0.464  10.250
   16OSM    C2S 1995   3.185   0.525  10.183
   16OSM    H2S 1996   3.119   0.603  10.228
   16OSM    C3S 1997   3.127   0.385  10.218
   16OSM    H3S 1998   3.188   0.308  10.166
   16OSM     O3 1999   2.993   0.368  10.175
   16OSM    HO3 2000   2.981   0.437  10.109
   16OSM    C4S 2001   3.133   0.362  10.367
   16OSM    H4S 2002   3.077   0.437  10.424
   16OSM    C5S 2003   3.198   0.262  10.431
   16OSM    H5S 2004   3.254   0.189  10.372
   16OSM    C6S 2005   3.201   0.241  10.581
   16OSM    H6S 2006   3.306   0.226  10.615
   16OSM    H6T 2007   3.146   0.148  10.605
   16OSM    C7S 2008   3.140   0.353  10.667
   16OSM    H7S 2009   3.039   0.378  10.627
   16OSM    H7T 2010   3.201   0.446  10.659
   16OSM    C8S 2011   3.117   0.317  10.814
   16OSM    H8S 2012   3.084   0.211  10.821
   16OSM    H8T 2013   3.033   0.380  10.851
   16OSM    C9S 2014   3.238   0.342  10.905
   16OSM    H9S 2015   3.254   0.451  10.914
   16OSM    H9T 2016   3.328   0.298  10.859
   16OSM   C10S 2017   3.220   0.283  11.046
   16OSM   H10S 2018   3.302   0.319  11.111
   16OSM   H10T 2019   3.232   0.172  11.038
   16OSM   C11S 2020   3.084   0.312  11.113
   16OSM   H11S 2021   3.079   0.255  11.208
   16OSM   H11T 2022   3.003   0.272  11.049
   16OSM   C12S 2023   3.056   0.460  11.141
   16OSM   H12S 2024   2.951   0.469  11.176
   16OSM   H12T 2025   3.065   0.518  11.047
   16OSM   C13S 2026   3.147   0.523  11.248
   16OSM   H13S 2027   3.114   0.628  11.264
   16OSM   H13T 2028   3.251   0.527  11.211
   16OSM   C14S 2029   3.144   0.448  11.382
   16OSM   H14S 2030   3.201   0.353  11.371
   16OSM   H14T 2031   3.040   0.422  11.409
   16OSM   C15S 2032   3.206   0.530  11.497
   16OSM   H15S 2033   3.299   0.577  11.459
   16OSM   H15T 2034   3.236   0.461  11.579
   16OSM   C16S 2035   3.112   0.638  11.552
   16OSM   H16S 2036   3.035   0.661  11.475
   16OSM   H16T 2037   3.169   0.732  11.570
   16OSM   C17S 2038   3.045   0.595  11.682
   16OSM   H17S 2039   3.013   0.488  11.673
   16OSM   H17T 2040   2.952   0.655  11.696
   16OSM   C18S 2041   3.132   0.612  11.806
   16OSM   H18S 2042   3.161   0.719  11.818
   16OSM   H18T 2043   3.225   0.551  11.798
   16OSM   H18U 2044   3.077   0.580  11.897
   16OSM    C1F 2045   3.374   0.666  10.250
   16OSM     OF 2046   3.317   0.767  10.209
   16OSM    C2F 2047   3.508   0.673  10.317
   16OSM    H2F 2048   3.565   0.756  10.270
   16OSM    H2G 2049   3.563   0.579  10.298
   16OSM    C3F 2050   3.498   0.698  10.470
   16OSM    H3F 2051   3.443   0.792  10.490
   16OSM    H3G 2052   3.601   0.709  10.509
   16OSM    C4F 2053   3.431   0.582  10.546
   16OSM    H4F 2054   3.474   0.486  10.508
   16OSM    H4G 2055   3.323   0.580  10.523
   16OSM    C5F 2056   3.453   0.585  10.698
   16OSM    H5F 2057   3.563   0.580  10.718
   16OSM    H5G 2058   3.409   0.493  10.741
   16OSM    C6F 2059   3.395   0.707  10.771
   16OSM    H6F 2060   3.452   0.798  10.742
   16OSM    H6G 2061   3.410   0.692  10.880
   16OSM    C7F 2062   3.245   0.731  10.746
   16OSM    H7F 2063   3.191   0.634  10.751
   16OSM    H7G 2064   3.231   0.770  10.643
   16OSM    C8F 2065   3.178   0.825  10.848
   16OSM    H8F 2066   3.173   0.770  10.945
   16OSM    H8G 2067   3.073   0.842  10.816
   16OSM    C9F 2068   3.251   0.956  10.861
   16OSM    H9F 2069   3.276   1.004  10.766
   16OSM   C10F 2070   3.289   1.014  10.976
   16OSM   H10F 2071   3.347   1.107  10.972
   16OSM   C11F 2072   3.266   0.961  11.116
   16OSM   H11F 2073   3.169   0.907  11.124
   16OSM   H11G 2074   3.261   1.046  11.187
   16OSM   C12F 2075   3.378   0.866  11.164
   16OSM   H12F 2076   3.476   0.906  11.132
   16OSM   H12G 2077   3.365   0.766  11.117
   16OSM   C13F 2078   3.381   0.853  11.317
   16OSM   H13F 2079   3.285   0.813  11.355
   16OSM   H13G 2080   3.395   0.955  11.360
   16OSM   C14F 2081   3.497   0.765  11.365
   16OSM   H14F 2082   3.581   0.776  11.293
   16OSM   H14G 2083   3.468   0.658  11.362
   16OSM   C15F 2084   3.551   0.803  11.504
   16OSM   H15F 2085   3.588   0.907  11.499
   16OSM   H15G 2086   3.637   0.737  11.527
   16OSM   C16F 2087   3.451   0.794  11.620
   16OSM   H16F 2088   3.410   0.690  11.625
   16OSM   H16G 2089   3.366   0.863  11.603
   16OSM   C17F 2090   3.518   0.828  11.754
   16OSM   H17F 2091   3.555   0.933  11.749
   16OSM   H17G 2092   3.607   0.762  11.766
   16OSM   C18F 2093   3.428   0.813  11.876
   16OSM   H18F 2094   3.484   0.837  11.969
   16OSM   H18G 2095   3.392   0.708  11.884
   16OSM   H18H 2096   3.340   0.880  11.869
   17OSM      N 2097   3.591   4.791   9.866
   17OSM    C15 2098   3.582   4.819  10.013
   17OSM   H15A 2099   3.530   4.912  10.033
   17OSM   H15B 2100   3.679   4.825  10.061
   17OSM   H15C 2101   3.523   4.744  10.064
   17OSM    C14 2102   3.451   4.789   9.812
   17OSM   H14A 2103   3.401   4.699   9.845
   17OSM   H14B 2104   3.450   4.788   9.704
   17OSM   H14C 2105   3.393   4.874   9.844
   17OSM    C13 2106   3.663   4.903   9.799
   17OSM   H13A 2107   3.761   4.920   9.840
   17OSM   H13B 2108   3.605   4.994   9.805
   17OSM   H13C 2109   3.674   4.884   9.693
   17OSM    C12 2110   3.659   4.659   9.834
   17OSM   H12A 2111   3.763   4.666   9.861
   17OSM   H12B 2112   3.655   4.646   9.727
   17OSM    C11 2113   3.598   4.531   9.895
   17OSM   H11A 2114   3.591   4.540  10.006
   17OSM   H11B 2115   3.664   4.445   9.872
   17OSM      P 2116   3.380   4.385   9.875
   17OSM    O13 2117   3.247   4.411   9.816
   17OSM    O14 2118   3.453   4.266   9.826
   17OSM    O11 2119   3.379   4.389  10.033
   17OSM    O12 2120   3.469   4.510   9.838
   17OSM    C1S 2121   3.319   4.501  10.100
   17OSM    H1S 2122   3.211   4.506  10.077
   17OSM    H1T 2123   3.365   4.597  10.068
   17OSM     NF 2124   3.470   4.511  10.298
   17OSM    HNF 2125   3.528   4.430  10.299
   17OSM    C2S 2126   3.332   4.491  10.256
   17OSM    H2S 2127   3.269   4.571  10.300
   17OSM    C3S 2128   3.273   4.355  10.304
   17OSM    H3S 2129   3.329   4.271  10.259
   17OSM     O3 2130   3.136   4.339  10.267
   17OSM    HO3 2131   3.137   4.291  10.185
   17OSM    C4S 2132   3.278   4.346  10.454
   17OSM    H4S 2133   3.236   4.433  10.506
   17OSM    C5S 2134   3.325   4.242  10.527
   17OSM    H5S 2135   3.362   4.153  10.474
   17OSM    C6S 2136   3.329   4.233  10.678
   17OSM    H6S 2137   3.432   4.207  10.710
   17OSM    H6T 2138   3.266   4.147  10.709
   17OSM    C7S 2139   3.284   4.355  10.762
   17OSM    H7S 2140   3.182   4.388  10.731
   17OSM    H7T 2141   3.352   4.440  10.744
   17OSM    C8S 2142   3.280   4.323  10.912
   17OSM    H8S 2143   3.381   4.288  10.943
   17OSM    H8T 2144   3.211   4.238  10.932
   17OSM    C9S 2145   3.239   4.444  10.999
   17OSM    H9S 2146   3.133   4.468  10.979
   17OSM    H9T 2147   3.300   4.532  10.969
   17OSM   C10S 2148   3.259   4.419  11.150
   17OSM   H10S 2149   3.367   4.395  11.165
   17OSM   H10T 2150   3.201   4.330  11.182
   17OSM   C11S 2151   3.223   4.539  11.240
   17OSM   H11S 2152   3.112   4.546  11.244
   17OSM   H11T 2153   3.261   4.633  11.194
   17OSM   C12S 2154   3.280   4.527  11.383
   17OSM   H12S 2155   3.279   4.419  11.411
   17OSM   H12T 2156   3.215   4.581  11.454
   17OSM   C13S 2157   3.423   4.582  11.395
   17OSM   H13S 2158   3.420   4.692  11.414
   17OSM   H13T 2159   3.472   4.569  11.296
   17OSM   C14S 2160   3.513   4.511  11.498
   17OSM   H14S 2161   3.619   4.529  11.469
   17OSM   H14T 2162   3.495   4.402  11.491
   17OSM   C15S 2163   3.499   4.549  11.646
   17OSM   H15S 2164   3.393   4.544  11.677
   17OSM   H15T 2165   3.535   4.653  11.660
   17OSM   C16S 2166   3.583   4.453  11.733
   17OSM   H16S 2167   3.656   4.402  11.667
   17OSM   H16T 2168   3.518   4.374  11.776
   17OSM   C17S 2169   3.662   4.522  11.845
   17OSM   H17S 2170   3.720   4.606  11.803
   17OSM   H17T 2171   3.736   4.449  11.886
   17OSM   C18S 2172   3.576   4.572  11.961
   17OSM   H18S 2173   3.639   4.618  12.040
   17OSM   H18T 2174   3.520   4.487  12.006
   17OSM   H18U 2175   3.502   4.647  11.925
   17OSM    C1F 2176   3.522   4.634  10.302
   17OSM     OF 2177   3.454   4.729  10.267
   17OSM    C2F 2178   3.665   4.652  10.344
   17OSM    H2F 2179   3.727   4.655  10.253
   17OSM    H2G 2180   3.696   4.565  10.406
   17OSM    C3F 2181   3.684   4.784  10.424
   17OSM    H3F 2182   3.621   4.782  10.516
   17OSM    H3G 2183   3.646   4.867  10.361
   17OSM    C4F 2184   3.830   4.820  10.460
   17OSM    H4F 2185   3.838   4.931  10.456
   17OSM    H4G 2186   3.898   4.780  10.382
   17OSM    C5F 2187   3.880   4.778  10.600
   17OSM    H5F 2188   3.984   4.816  10.610
   17OSM    H5G 2189   3.886   4.668  10.608
   17OSM    C6F 2190   3.797   4.835  10.716
   17OSM    H6F 2191   3.696   4.789  10.717
   17OSM    H6G 2192   3.784   4.945  10.700
   17OSM    C7F 2193   3.861   4.813  10.854
   17OSM    H7F 2194   3.965   4.853  10.854
   17OSM    H7G 2195   3.867   4.704  10.874
   17OSM    C8F 2196   3.782   4.883  10.967
   17OSM    H8F 2197   3.676   4.851  10.957
   17OSM    H8G 2198   3.785   4.992  10.948
   17OSM    C9F 2199   3.834   4.853  11.105
   17OSM    H9F 2200   3.940   4.824  11.109
   17OSM   C10F 2201   3.764   4.860  11.220
   17OSM   H10F 2202   3.815   4.836  11.315
   17OSM   C11F 2203   3.619   4.901  11.235
   17OSM   H11F 2204   3.562   4.819  11.283
   17OSM   H11G 2205   3.572   4.917  11.136
   17OSM   C12F 2206   3.601   5.030  11.316
   17OSM   H12F 2207   3.494   5.062  11.308
   17OSM   H12G 2208   3.661   5.111  11.270
   17OSM   C13F 2209   3.637   5.021  11.466
   17OSM   H13F 2210   3.624   5.121  11.511
   17OSM   H13G 2211   3.745   4.994  11.475
   17OSM   C14F 2212   3.554   4.921  11.548
   17OSM   H14F 2213   3.591   4.923  11.653
   17OSM   H14G 2214   3.571   4.818  11.509
   17OSM   C15F 2215   3.403   4.952  11.549
   17OSM   H15F 2216   3.365   4.946  11.445
   17OSM   H15G 2217   3.389   5.056  11.583
   17OSM   C16F 2218   3.317   4.858  11.636
   17OSM   H16F 2219   3.328   4.754  11.601
   17OSM   H16G 2220   3.210   4.885  11.622
   17OSM   C17F 2221   3.349   4.865  11.786
   17OSM   H17F 2222   3.342   4.971  11.819
   17OSM   H17G 2223   3.454   4.832  11.801
   17OSM   C18F 2224   3.256   4.779  11.872
   17OSM   H18F 2225   3.264   4.672  11.843
   17OSM   H18G 2226   3.284   4.787  11.980
   17OSM   H18H 2227   3.151   4.811  11.860
   18OSM      N 2228   2.775   4.804   9.884
   18OSM    C15 2229   2.637   4.747   9.879
   18OSM   H15A 2230   2.617   4.681   9.963
   18OSM   H15B 2231   2.621   4.688   9.789
   18OSM   H15C 2232   2.564   4.826   9.880
   18OSM    C14 2233   2.788   4.886  10.009
   18OSM   H14A 2234   2.706   4.955  10.019
   18OSM   H14B 2235   2.879   4.945  10.001
   18OSM   H14C 2236   2.797   4.825  10.097
   18OSM    C13 2237   2.877   4.694   9.891
   18OSM   H13A 2238   2.865   4.636   9.982
   18OSM   H13B 2239   2.976   4.737   9.893
   18OSM   H13C 2240   2.871   4.626   9.808
   18OSM    C12 2241   2.799   4.894   9.764
   18OSM   H12A 2242   2.741   4.984   9.779
   18OSM   H12B 2243   2.760   4.847   9.675
   18OSM    C11 2244   2.946   4.938   9.734
   18OSM   H11A 2245   2.944   5.009   9.649
   18OSM   H11B 2246   3.004   4.848   9.703
   18OSM      P 2247   3.157   5.045   9.848
   18OSM    O13 2248   3.230   4.982   9.735
   18OSM    O14 2249   3.164   5.192   9.856
   18OSM    O11 2250   3.211   4.981   9.983
   18OSM    O12 2251   3.005   4.999   9.848
   18OSM    C1S 2252   3.117   4.962  10.090
   18OSM    H1S 2253   3.052   4.876  10.066
   18OSM    H1T 2254   3.054   5.052  10.106
   18OSM     NF 2255   3.086   4.925  10.335
   18OSM    HNF 2256   3.103   4.986  10.412
   18OSM    C2S 2257   3.185   4.932  10.228
   18OSM    H2S 2258   3.234   4.832  10.220
   18OSM    C3S 2259   3.295   5.039  10.256
   18OSM    H3S 2260   3.249   5.140  10.250
   18OSM     O3 2261   3.400   5.035  10.159
   18OSM    HO3 2262   3.352   5.009  10.080
   18OSM    C4S 2263   3.355   5.019  10.393
   18OSM    H4S 2264   3.433   4.942  10.398
   18OSM    C5S 2265   3.321   5.090  10.503
   18OSM    H5S 2266   3.244   5.168  10.494
   18OSM    C6S 2267   3.380   5.073  10.640
   18OSM    H6S 2268   3.372   5.170  10.695
   18OSM    H6T 2269   3.489   5.051  10.632
   18OSM    C7S 2270   3.317   4.963  10.728
   18OSM    H7S 2271   3.377   4.955  10.821
   18OSM    H7T 2272   3.326   4.866  10.675
   18OSM    C8S 2273   3.170   4.985  10.768
   18OSM    H8S 2274   3.137   4.897  10.826
   18OSM    H8T 2275   3.107   4.991  10.676
   18OSM    C9S 2276   3.143   5.110  10.853
   18OSM    H9S 2277   3.159   0.008  10.789
   18OSM    H9T 2278   3.216   5.116  10.937
   18OSM   C10S 2279   2.999   5.112  10.909
   18OSM   H10S 2280   2.934   5.053  10.841
   18OSM   H10T 2281   2.961   0.024  10.910
   18OSM   C11S 2282   2.989   5.056  11.052
   18OSM   H11S 2283   3.056   4.968  11.063
   18OSM   H11T 2284   2.885   5.020  11.070
   18OSM   C12S 2285   3.022   5.163  11.157
   18OSM   H12S 2286   2.949   0.055  11.148
   18OSM   H12T 2287   3.123   0.013  11.132
   18OSM   C13S 2288   3.026   5.115  11.303
   18OSM   H13S 2289   3.097   5.030  11.310
   18OSM   H13T 2290   2.926   5.079  11.335
   18OSM   C14S 2291   3.074   0.037  11.395
   18OSM   H14S 2292   2.996   0.116  11.404
   18OSM   H14T 2293   3.162   0.084  11.346
   18OSM   C15S 2294   3.120   5.182  11.534
   18OSM   H15S 2295   3.196   0.064  11.571
   18OSM   H15T 2296   3.171   5.084  11.524
   18OSM   C16S 2297   3.009   5.172  11.639
   18OSM   H16S 2298   2.930   5.102  11.601
   18OSM   H16T 2299   2.962   0.080  11.652
   18OSM   C17S 2300   3.059   5.121  11.775
   18OSM   H17S 2301   3.101   5.019  11.762
   18OSM   H17T 2302   2.972   5.111  11.844
   18OSM   C18S 2303   3.164   0.019  11.843
   18OSM   H18S 2304   3.125   0.122  11.855
   18OSM   H18T 2305   3.257   0.023  11.783
   18OSM   H18U 2306   3.190   5.170  11.943
   18OSM    C1F 2307   2.985   4.838  10.343
   18OSM     OF 2308   2.950   4.768  10.249
   18OSM    C2F 2309   2.911   4.835  10.473
   18OSM    H2F 2310   2.809   4.793  10.455
   18OSM    H2G 2311   2.899   4.939  10.512
   18OSM    C3F 2312   2.984   4.749  10.579
   18OSM    H3F 2313   3.086   4.788  10.598
   18OSM    H3G 2314   2.996   4.646  10.538
   18OSM    C4F 2315   2.907   4.740  10.712
   18OSM    H4F 2316   2.804   4.703  10.690
   18OSM    H4G 2317   2.896   4.841  10.757
   18OSM    C5F 2318   2.971   4.645  10.813
   18OSM    H5F 2319   3.063   4.689  10.856
   18OSM    H5G 2320   3.002   4.553  10.759
   18OSM    C6F 2321   2.876   4.601  10.926
   18OSM    H6F 2322   2.921   4.513  10.977
   18OSM    H6G 2323   2.780   4.567  10.881
   18OSM    C7F 2324   2.848   4.710  11.031
   18OSM    H7F 2325   2.804   4.798  10.980
   18OSM    H7G 2326   2.944   4.743  11.076
   18OSM    C8F 2327   2.752   4.664  11.142
   18OSM    H8F 2328   2.658   4.628  11.094
   18OSM    H8G 2329   2.724   4.753  11.202
   18OSM    C9F 2330   2.809   4.553  11.228
   18OSM    H9F 2331   2.830   4.460  11.174
   18OSM   C10F 2332   2.834   4.557  11.361
   18OSM   H10F 2333   2.874   4.466  11.409
   18OSM   C11F 2334   2.812   4.672  11.455
   18OSM   H11F 2335   2.726   4.650  11.522
   18OSM   H11G 2336   2.786   4.765  11.400
   18OSM   C12F 2337   2.935   4.706  11.542
   18OSM   H12F 2338   2.911   4.798  11.600
   18OSM   H12G 2339   3.021   4.729  11.477
   18OSM   C13F 2340   2.975   4.597  11.644
   18OSM   H13F 2341   3.057   4.639  11.706
   18OSM   H13G 2342   3.016   4.509  11.591
   18OSM   C14F 2343   2.861   4.553  11.736
   18OSM   H14F 2344   2.800   4.474  11.687
   18OSM   H14G 2345   2.794   4.641  11.752
   18OSM   C15F 2346   2.907   4.506  11.875
   18OSM   H15F 2347   2.819   4.489  11.940
   18OSM   H15G 2348   2.967   4.588  11.920
   18OSM   C16F 2349   2.993   4.379  11.872
   18OSM   H16F 2350   3.076   4.392  11.799
   18OSM   H16G 2351   2.930   4.295  11.837
   18OSM   C17F 2352   3.055   4.343  12.008
   18OSM   H17F 2353   3.106   4.245  11.998
   18OSM   H17G 2354   2.974   4.331  12.083
   18OSM   C18F 2355   3.156   4.445  12.058
   18OSM   H18F 2356   3.235   4.463  11.982
   18OSM   H18G 2357   3.204   4.408  12.151
   18OSM   H18H 2358   3.107   4.542  12.081
   19SAPS     N 2359   2.301   2.265  14.322
   19SAPS   HN1 2360   2.242   2.225  14.398
   19SAPS   HN2 2361   2.378   2.321  14.363
   19SAPS   HN3 2362   2.243   2.323  14.258
   19SAPS   C12 2363   2.358   2.146  14.249
   19SAPS  H12A 2364   2.463   2.139  14.272
   19SAPS   C13 2365   2.292   2.014  14.295
   19SAPS  O13A 2366   2.207   2.018  14.389
   19SAPS  O13B 2367   2.334   1.905  14.250
   19SAPS   C11 2368   2.338   2.172  14.097
   19SAPS  H11A 2369   2.378   2.273  14.073
   19SAPS  H11B 2370   2.229   2.170  14.078
   19SAPS     P 2371   2.350   2.042  13.874
   19SAPS   O13 2372   2.209   2.004  13.895
   19SAPS   O14 2373   2.378   2.155  13.783
   19SAPS   O12 2374   2.409   2.077  14.018
   19SAPS   O11 2375   2.434   1.914  13.833
   19SAPS    C1 2376   2.450   1.805  13.925
   19SAPS    HA 2377   2.547   1.816  13.978
   19SAPS    HB 2378   2.372   1.804  14.005
   19SAPS    C2 2379   2.444   1.667  13.854
   19SAPS    HS 2380   2.479   1.589  13.925
   19SAPS   O21 2381   2.523   1.663  13.735
   19SAPS   C21 2382   2.641   1.719  13.735
   19SAPS   O22 2383   2.717   1.728  13.830
   19SAPS   C22 2384   2.667   1.768  13.593
   19SAPS   H2R 2385   2.662   1.680  13.525
   19SAPS   H2S 2386   2.583   1.836  13.566
   19SAPS    C3 2387   2.298   1.630  13.811
   19SAPS    HX 2388   2.238   1.618  13.904
   19SAPS    HY 2389   2.298   1.532  13.759
   19SAPS   O31 2390   2.236   1.733  13.730
   19SAPS   C31 2391   2.269   1.735  13.601
   19SAPS   O32 2392   2.326   1.645  13.541
   19SAPS   C32 2393   2.216   1.864  13.538
   19SAPS   H2X 2394   2.219   1.943  13.615
   19SAPS   H2Y 2395   2.109   1.848  13.510
   19SAPS   C23 2396   2.802   1.841  13.580
   19SAPS   H3R 2397   2.882   1.781  13.627
   19SAPS   H3S 2398   2.795   1.937  13.636
   19SAPS   C24 2399   2.842   1.867  13.433
   19SAPS   H4R 2400   2.847   1.769  13.381
   19SAPS   H4S 2401   2.945   1.910  13.431
   19SAPS   C25 2402   2.746   1.961  13.366
   19SAPS   H5R 2403   2.688   2.026  13.433
   19SAPS   C26 2404   2.725   1.970  13.233
   19SAPS   H6R 2405   2.651   2.043  13.197
   19SAPS   C27 2406   2.794   1.889  13.125
   19SAPS   H7R 2407   2.902   1.885  13.147
   19SAPS   H7S 2408   2.786   1.944  13.029
   19SAPS   C28 2409   2.746   1.747  13.112
   19SAPS   H8R 2410   2.768   1.684  13.198
   19SAPS   C29 2411   2.680   1.691  13.008
   19SAPS   H9R 2412   2.659   1.583  13.015
   19SAPS  C210 2413   2.637   1.755  12.879
   19SAPS  H10R 2414   2.709   1.728  12.799
   19SAPS  H10S 2415   2.639   1.866  12.885
   19SAPS  C211 2416   2.499   1.708  12.839
   19SAPS  H11R 2417   2.445   1.646  12.913
   19SAPS  C212 2418   2.436   1.737  12.724
   19SAPS  H12R 2419   2.335   1.696  12.706
   19SAPS  C213 2420   2.489   1.821  12.611
   19SAPS  H13R 2421   2.559   1.897  12.653
   19SAPS  H13S 2422   2.405   1.879  12.567
   19SAPS  C214 2423   2.563   1.749  12.502
   19SAPS  H14R 2424   2.671   1.773  12.499
   19SAPS  C215 2425   2.513   1.666  12.409
   19SAPS  H15R 2426   2.581   1.624  12.334
   19SAPS  C216 2427   2.369   1.625  12.394
   19SAPS  H16R 2428   2.303   1.670  12.471
   19SAPS  H16S 2429   2.362   1.515  12.409
   19SAPS  C217 2430   2.311   1.658  12.255
   19SAPS  H17R 2431   2.223   1.592  12.238
   19SAPS  H17S 2432   2.385   1.635  12.175
   19SAPS  C218 2433   2.264   1.804  12.241
   19SAPS  H18R 2434   2.351   1.871  12.256
   19SAPS  H18S 2435   2.191   1.825  12.323
   19SAPS  C219 2436   2.197   1.835  12.107
   19SAPS  H19R 2437   2.269   1.813  12.025
   19SAPS  H19S 2438   2.175   1.944  12.103
   19SAPS  C220 2439   2.067   1.758  12.080
   19SAPS  H20R 2440   2.087   1.649  12.071
   19SAPS  H20S 2441   2.019   1.793  11.986
   19SAPS  H20T 2442   1.995   1.774  12.164
   19SAPS   C33 2443   2.297   1.911  13.415
   19SAPS   H3X 2444   2.406   1.905  13.437
   19SAPS   H3Y 2445   2.273   2.018  13.397
   19SAPS   C34 2446   2.266   1.833  13.286
   19SAPS   H4X 2447   2.160   1.850  13.258
   19SAPS   H4Y 2448   2.278   1.724  13.306
   19SAPS   C35 2449   2.357   1.868  13.167
   19SAPS   H5X 2450   2.329   1.804  13.081
   19SAPS   H5Y 2451   2.462   1.842  13.194
   19SAPS   C36 2452   2.352   2.015  13.124
   19SAPS   H6X 2453   2.388   2.079  13.208
   19SAPS   H6Y 2454   2.247   2.043  13.102
   19SAPS   C37 2455   2.438   2.042  13.000
   19SAPS   H7X 2456   2.400   1.982  12.915
   19SAPS   H7Y 2457   2.542   2.008  13.020
   19SAPS   C38 2458   2.442   2.191  12.961
   19SAPS   H8X 2459   2.466   2.250  13.052
   19SAPS   H8Y 2460   2.340   2.219  12.929
   19SAPS   C39 2461   2.545   2.226  12.852
   19SAPS   H9X 2462   2.647   2.206  12.892
   19SAPS   H9Y 2463   2.540   2.335  12.832
   19SAPS  C310 2464   2.529   2.150  12.719
   19SAPS  H10X 2465   2.443   2.080  12.725
   19SAPS  H10Y 2466   2.622   2.091  12.702
   19SAPS  C311 2467   2.509   2.241  12.597
   19SAPS  H11X 2468   2.591   2.316  12.595
   19SAPS  H11Y 2469   2.414   2.297  12.610
   19SAPS  C312 2470   2.506   2.171  12.461
   19SAPS  H12X 2471   2.443   2.231  12.392
   19SAPS  H12Y 2472   2.459   2.070  12.469
   19SAPS  C313 2473   2.646   2.160  12.397
   19SAPS  H13X 2474   2.711   2.095  12.459
   19SAPS  H13Y 2475   2.690   2.262  12.398
   19SAPS  C314 2476   2.645   2.112  12.251
   19SAPS  H14X 2477   2.732   2.157  12.199
   19SAPS  H14Y 2478   2.553   2.149  12.201
   19SAPS  C315 2479   2.656   1.959  12.236
   19SAPS  H15X 2480   2.564   1.913  12.277
   19SAPS  H15Y 2481   2.742   1.923  12.297
   19SAPS  C316 2482   2.676   1.912  12.091
   19SAPS  H16X 2483   2.686   1.801  12.091
   19SAPS  H16Y 2484   2.770   1.955  12.050
   19SAPS  C317 2485   2.559   1.950  11.999
   19SAPS  H17X 2486   2.555   2.061  11.989
   19SAPS  H17Y 2487   2.465   1.918  12.049
   19SAPS  C318 2488   2.565   1.888  11.860
   19SAPS  H18X 2489   2.653   1.926  11.804
   19SAPS  H18Y 2490   2.474   1.913  11.801
   19SAPS  H18Z 2491   2.573   1.777  11.867
   20SAPS     N 2492   3.429   0.701  14.119
   20SAPS   HN1 2493   3.468   0.604  14.119
   20SAPS   HN2 2494   3.418   0.738  14.022
   20SAPS   HN3 2495   3.490   0.764  14.173
   20SAPS   C12 2496   3.293   0.704  14.179
   20SAPS  H12A 2497   3.235   0.622  14.140
   20SAPS   C13 2498   3.292   0.698  14.334
   20SAPS  O13A 2499   3.388   0.753  14.395
   20SAPS  O13B 2500   3.181   0.682  14.391
   20SAPS   C11 2501   3.231   0.841  14.136
   20SAPS  H11A 2502   3.277   0.919  14.200
   20SAPS  H11B 2503   3.122   0.838  14.156
   20SAPS     P 2504   3.245   1.018  13.943
   20SAPS   O13 2505   3.171   1.020  13.816
   20SAPS   O14 2506   3.199   1.108  14.053
   20SAPS   O12 2507   3.255   0.868  13.997
   20SAPS   O11 2508   3.397   1.051  13.914
   20SAPS    C1 2509   3.482   0.959  13.845
   20SAPS    HA 2510   3.570   0.938  13.909
   20SAPS    HB 2511   3.432   0.862  13.823
   20SAPS    C2 2512   3.532   1.016  13.709
   20SAPS    HS 2513   3.574   1.117  13.730
   20SAPS   O21 2514   3.424   1.021  13.616
   20SAPS   C21 2515   3.357   1.135  13.607
   20SAPS   O22 2516   3.392   1.241  13.657
   20SAPS   C22 2517   3.235   1.118  13.516
   20SAPS   H2R 2518   3.150   1.091  13.582
   20SAPS   H2S 2519   3.214   1.216  13.470
   20SAPS    C3 2520   3.646   0.931  13.645
   20SAPS    HX 2521   3.735   0.932  13.712
   20SAPS    HY 2522   3.677   0.982  13.552
   20SAPS   O31 2523   3.603   0.799  13.610
   20SAPS   C31 2524   3.619   0.704  13.700
   20SAPS   O32 2525   3.689   0.714  13.801
   20SAPS   C32 2526   3.530   0.586  13.662
   20SAPS   H2X 2527   3.547   0.503  13.734
   20SAPS   H2Y 2528   3.559   0.553  13.561
   20SAPS   C23 2529   3.251   1.010  13.406
   20SAPS   H3R 2530   3.284   0.915  13.451
   20SAPS   H3S 2531   3.329   1.043  13.334
   20SAPS   C24 2532   3.118   0.986  13.334
   20SAPS   H4R 2533   3.079   1.084  13.298
   20SAPS   H4S 2534   3.044   0.947  13.407
   20SAPS   C25 2535   3.134   0.887  13.221
   20SAPS   H5R 2536   3.179   0.791  13.250
   20SAPS   C26 2537   3.102   0.907  13.092
   20SAPS   H6R 2538   3.122   0.828  13.019
   20SAPS   C27 2539   3.043   1.033  13.034
   20SAPS   H7R 2540   2.971   1.079  13.106
   20SAPS   H7S 2541   2.981   1.008  12.945
   20SAPS   C28 2542   3.150   1.134  13.002
   20SAPS   H8R 2543   3.191   1.186  13.090
   20SAPS   C29 2544   3.199   1.165  12.881
   20SAPS   H9R 2545   3.277   1.241  12.873
   20SAPS  C210 2546   3.157   1.104  12.750
   20SAPS  H10R 2547   3.086   1.019  12.764
   20SAPS  H10S 2548   3.246   1.059  12.702
   20SAPS  C211 2549   3.092   1.205  12.661
   20SAPS  H11R 2550   2.988   1.231  12.686
   20SAPS  C212 2551   3.150   1.265  12.556
   20SAPS  H12R 2552   3.088   1.332  12.495
   20SAPS  C213 2553   3.291   1.242  12.509
   20SAPS  H13R 2554   3.302   1.135  12.481
   20SAPS  H13S 2555   3.361   1.258  12.593
   20SAPS  C214 2556   3.332   1.332  12.394
   20SAPS  H14R 2557   3.294   1.435  12.401
   20SAPS  C215 2558   3.411   1.300  12.290
   20SAPS  H15R 2559   3.431   1.377  12.214
   20SAPS  C216 2560   3.478   1.168  12.263
   20SAPS  H16R 2561   3.455   1.095  12.344
   20SAPS  H16S 2562   3.588   1.180  12.264
   20SAPS  C217 2563   3.435   1.103  12.130
   20SAPS  H17R 2564   3.324   1.099  12.127
   20SAPS  H17S 2565   3.471   0.998  12.128
   20SAPS  C218 2566   3.485   1.173  12.002
   20SAPS  H18R 2567   3.476   1.284  12.011
   20SAPS  H18S 2568   3.418   1.141  11.920
   20SAPS  C219 2569   3.628   1.137  11.958
   20SAPS  H19R 2570   3.634   1.152  11.848
   20SAPS  H19S 2571   3.648   1.029  11.977
   20SAPS  C220 2572   3.739   1.222  12.022
   20SAPS  H20R 2573   3.835   1.205  11.970
   20SAPS  H20S 2574   3.714   1.330  12.013
   20SAPS  H20T 2575   3.752   1.198  12.129
   20SAPS   C33 2576   3.379   0.625  13.658
   20SAPS   H3X 2577   3.364   0.724  13.612
   20SAPS   H3Y 2578   3.341   0.631  13.762
   20SAPS   C34 2579   3.294   0.523  13.580
   20SAPS   H4X 2580   3.196   0.515  13.631
   20SAPS   H4Y 2581   3.341   0.423  13.582
   20SAPS   C35 2582   3.264   0.564  13.434
   20SAPS   H5X 2583   3.358   0.572  13.375
   20SAPS   H5Y 2584   3.216   0.664  13.435
   20SAPS   C36 2585   3.169   0.464  13.368
   20SAPS   H6X 2586   3.088   0.444  13.442
   20SAPS   H6Y 2587   3.221   0.367  13.350
   20SAPS   C37 2588   3.097   0.509  13.240
   20SAPS   H7X 2589   3.047   0.607  13.257
   20SAPS   H7Y 2590   3.016   0.436  13.220
   20SAPS   C38 2591   3.184   0.517  13.113
   20SAPS   H8X 2592   3.240   0.422  13.101
   20SAPS   H8Y 2593   3.257   0.600  13.123
   20SAPS   C39 2594   3.096   0.539  12.989
   20SAPS   H9X 2595   3.030   0.626  13.008
   20SAPS   H9Y 2596   3.030   0.451  12.974
   20SAPS  C310 2597   3.176   0.563  12.859
   20SAPS  H10X 2598   3.237   0.473  12.839
   20SAPS  H10Y 2599   3.245   0.649  12.874
   20SAPS  C311 2600   3.086   0.592  12.737
   20SAPS  H11X 2601   3.014   0.509  12.724
   20SAPS  H11Y 2602   3.151   0.594  12.647
   20SAPS  C312 2603   3.011   0.725  12.747
   20SAPS  H12X 2604   3.085   0.807  12.761
   20SAPS  H12Y 2605   2.946   0.724  12.838
   20SAPS  C313 2606   2.920   0.758  12.627
   20SAPS  H13X 2607   2.869   0.855  12.647
   20SAPS  H13Y 2608   2.841   0.680  12.621
   20SAPS  C314 2609   2.991   0.766  12.491
   20SAPS  H14X 2610   2.914   0.793  12.415
   20SAPS  H14Y 2611   3.031   0.666  12.465
   20SAPS  C315 2612   3.103   0.870  12.484
   20SAPS  H15X 2613   3.183   0.841  12.556
   20SAPS  H15Y 2614   3.063   0.969  12.517
   20SAPS  C316 2615   3.167   0.886  12.345
   20SAPS  H16X 2616   3.203   0.787  12.310
   20SAPS  H16Y 2617   3.256   0.952  12.354
   20SAPS  C317 2618   3.075   0.948  12.238
   20SAPS  H17X 2619   2.982   0.888  12.228
   20SAPS  H17Y 2620   3.128   0.942  12.140
   20SAPS  C318 2621   3.040   1.094  12.265
   20SAPS  H18X 2622   2.984   1.104  12.361
   20SAPS  H18Y 2623   2.977   1.137  12.184
   20SAPS  H18Z 2624   3.132   1.155  12.273
   21SAPS     N 2625   2.577   0.192  13.936
   21SAPS   HN1 2626   2.613   0.246  13.855
   21SAPS   HN2 2627   2.568   0.092  13.910
   21SAPS   HN3 2628   2.483   0.229  13.961
   21SAPS   C12 2629   2.670   0.200  14.053
   21SAPS  H12A 2630   2.670   0.302  14.090
   21SAPS   C13 2631   2.630   0.105  14.169
   21SAPS  O13A 2632   2.551   0.008  14.146
   21SAPS  O13B 2633   2.642   0.150  14.287
   21SAPS   C11 2634   2.812   0.163  13.999
   21SAPS  H11A 2635   2.837   0.230  13.914
   21SAPS  H11B 2636   2.807   0.060  13.957
   21SAPS     P 2637   3.027   0.068  14.113
   21SAPS   O13 2638   3.144   0.125  14.185
   21SAPS   O14 2639   2.968   5.136  14.168
   21SAPS   O12 2640   2.914   0.177  14.098
   21SAPS   O11 2641   3.068   0.036  13.964
   21SAPS    C1 2642   3.146   0.127  13.887
   21SAPS    HA 2643   3.127   0.233  13.913
   21SAPS    HB 2644   3.254   0.106  13.903
   21SAPS    C2 2645   3.116   0.108  13.736
   21SAPS    HS 2646   3.198   0.158  13.680
   21SAPS   O21 2647   2.988   0.170  13.710
   21SAPS   C21 2648   2.970   0.210  13.585
   21SAPS   O22 2649   3.055   0.209  13.497
   21SAPS   C22 2650   2.825   0.254  13.567
   21SAPS   H2R 2651   2.763   0.164  13.587
   21SAPS   H2S 2652   2.802   0.331  13.644
   21SAPS    C3 2653   3.116   5.147  13.699
   21SAPS    HX 2654   3.030   5.098  13.748
   21SAPS    HY 2655   3.207   5.104  13.746
   21SAPS   O31 2656   3.124   5.123  13.556
   21SAPS   C31 2657   3.007   5.104  13.495
   21SAPS   O32 2658   2.899   5.095  13.550
   21SAPS   C32 2659   3.029   5.099  13.344
   21SAPS   H2X 2660   3.066   4.997  13.320
   21SAPS   H2Y 2661   3.107   5.173  13.316
   21SAPS   C23 2662   2.796   0.308  13.425
   21SAPS   H3R 2663   2.843   0.243  13.349
   21SAPS   H3S 2664   2.842   0.408  13.414
   21SAPS   C24 2665   2.645   0.318  13.393
   21SAPS   H4R 2666   2.635   0.366  13.293
   21SAPS   H4S 2667   2.597   0.387  13.465
   21SAPS   C25 2668   2.575   0.184  13.394
   21SAPS   H5R 2669   2.541   0.150  13.492
   21SAPS   C26 2670   2.554   0.104  13.287
   21SAPS   H6R 2671   2.502   0.008  13.302
   21SAPS   C27 2672   2.596   0.132  13.145
   21SAPS   H7R 2673   2.629   0.037  13.098
   21SAPS   H7S 2674   2.687   0.197  13.146
   21SAPS   C28 2675   2.488   0.192  13.059
   21SAPS   H8R 2676   2.394   0.135  13.055
   21SAPS   C29 2677   2.494   0.307  12.989
   21SAPS   H9R 2678   2.405   0.338  12.932
   21SAPS  C210 2679   2.610   0.404  12.979
   21SAPS  H10R 2680   2.627   0.449  13.078
   21SAPS  H10S 2681   2.578   0.489  12.915
   21SAPS  C211 2682   2.741   0.349  12.927
   21SAPS  H11R 2683   2.811   0.316  13.005
   21SAPS  C212 2684   2.779   0.337  12.798
   21SAPS  H12R 2685   2.879   0.297  12.776
   21SAPS  C213 2686   2.698   0.375  12.677
   21SAPS  H13R 2687   2.745   0.464  12.629
   21SAPS  H13S 2688   2.595   0.407  12.706
   21SAPS  C214 2689   2.686   0.262  12.578
   21SAPS  H14R 2690   2.689   0.161  12.621
   21SAPS  C215 2691   2.673   0.275  12.444
   21SAPS  H15R 2692   2.667   0.184  12.382
   21SAPS  C216 2693   2.667   0.405  12.368
   21SAPS  H16R 2694   2.652   0.492  12.435
   21SAPS  H16S 2695   2.582   0.405  12.297
   21SAPS  C217 2696   2.797   0.427  12.289
   21SAPS  H17R 2697   2.804   0.351  12.208
   21SAPS  H17S 2698   2.884   0.414  12.356
   21SAPS  C218 2699   2.806   0.566  12.225
   21SAPS  H18R 2700   2.816   0.642  12.305
   21SAPS  H18S 2701   2.711   0.588  12.171
   21SAPS  C219 2702   2.923   0.579  12.126
   21SAPS  H19R 2703   2.925   0.683  12.087
   21SAPS  H19S 2704   2.902   0.512  12.039
   21SAPS  C220 2705   3.060   0.543  12.183
   21SAPS  H20R 2706   3.084   0.607  12.270
   21SAPS  H20S 2707   3.140   0.558  12.107
   21SAPS  H20T 2708   3.063   0.437  12.215
   21SAPS   C33 2709   2.898   5.128  13.266
   21SAPS   H3X 2710   2.865   0.041  13.286
   21SAPS   H3Y 2711   2.818   5.061  13.304
   21SAPS   C34 2712   2.908   5.106  13.114
   21SAPS   H4X 2713   2.805   5.111  13.073
   21SAPS   H4Y 2714   2.948   5.005  13.093
   21SAPS   C35 2715   2.991   0.020  13.038
   21SAPS   H5X 2716   3.098   0.013  13.069
   21SAPS   H5Y 2717   2.956   0.122  13.064
   21SAPS   C36 2718   2.979   5.190  12.886
   21SAPS   H6X 2719   2.878   0.032  12.855
   21SAPS   H6Y 2720   2.987   5.082  12.864
   21SAPS   C37 2721   3.085   0.074  12.803
   21SAPS   H7X 2722   3.184   0.025  12.816
   21SAPS   H7Y 2723   3.093   0.178  12.842
   21SAPS   C38 2724   3.050   0.082  12.653
   21SAPS   H8X 2725   3.125   0.146  12.602
   21SAPS   H8Y 2726   2.952   0.133  12.643
   21SAPS   C39 2727   3.041   5.138  12.581
   21SAPS   H9X 2728   2.981   5.068  12.642
   21SAPS   H9Y 2729   3.143   5.094  12.570
   21SAPS  C310 2730   2.973   5.148  12.443
   21SAPS  H10X 2731   2.876   0.010  12.458
   21SAPS  H10Y 2732   2.948   5.046  12.406
   21SAPS  C311 2733   3.055   0.031  12.336
   21SAPS  H11X 2734   3.124   5.151  12.286
   21SAPS  H11Y 2735   3.117   0.108  12.386
   21SAPS  C312 2736   2.967   0.103  12.232
   21SAPS  H12X 2737   3.031   0.164  12.166
   21SAPS  H12Y 2738   2.900   0.172  12.288
   21SAPS  C313 2739   2.880   0.009  12.146
   21SAPS  H13X 2740   2.825   5.130  12.212
   21SAPS  H13Y 2741   2.947   5.141  12.080
   21SAPS  C314 2742   2.776   0.085  12.062
   21SAPS  H14X 2743   2.826   0.168  12.008
   21SAPS  H14Y 2744   2.701   0.129  12.130
   21SAPS  C315 2745   2.706   5.186  11.959
   21SAPS  H15X 2746   2.685   5.087  12.005
   21SAPS  H15Y 2747   2.776   5.169  11.874
   21SAPS  C316 2748   2.574   0.051  11.906
   21SAPS  H16X 2749   2.570   0.161  11.921
   21SAPS  H16Y 2750   2.492   0.006  11.966
   21SAPS  C317 2751   2.552   0.021  11.757
   21SAPS  H17X 2752   2.443   0.026  11.735
   21SAPS  H17Y 2753   2.585   5.108  11.735
   21SAPS  C318 2754   2.625   0.117  11.664
   21SAPS  H18X 2755   2.610   0.089  11.558
   21SAPS  H18Y 2756   2.734   0.118  11.686
   21SAPS  H18Z 2757   2.585   0.220  11.678
   22SAPS     N 2758   0.167   1.410  14.332
   22SAPS   HN1 2759   0.083   1.400  14.272
   22SAPS   HN2 2760   0.187   1.321  14.384
   22SAPS   HN3 2761   0.154   1.486  14.402
   22SAPS   C12 2762   0.288   1.435  14.249
   22SAPS  H12A 2763   0.308   1.541  14.251
   22SAPS   C13 2764   0.412   1.366  14.306
   22SAPS  O13A 2765   0.404   1.302  14.415
   22SAPS  O13B 2766   0.523   1.393  14.253
   22SAPS   C11 2767   0.265   1.387  14.103
   22SAPS  H11A 2768   0.250   1.277  14.102
   22SAPS  H11B 2769   0.356   1.406  14.042
   22SAPS     P 2770   0.150   1.597  13.987
   22SAPS   O13 2771   0.015   1.616  13.932
   22SAPS   O14 2772   0.191   1.685  14.099
   22SAPS   O12 2773   0.151   1.449  14.044
   22SAPS   O11 2774   0.259   1.595  13.873
   22SAPS    C1 2775   0.393   1.640  13.891
   22SAPS    HA 2776   0.394   1.751  13.890
   22SAPS    HB 2777   0.436   1.606  13.988
   22SAPS    C2 2778   0.487   1.588  13.777
   22SAPS    HS 2779   0.583   1.643  13.783
   22SAPS   O21 2780   0.427   1.607  13.647
   22SAPS   C21 2781   0.406   1.731  13.609
   22SAPS   O22 2782   0.453   1.831  13.661
   22SAPS   C22 2783   0.314   1.729  13.487
   22SAPS   H2R 2784   0.231   1.659  13.512
   22SAPS   H2S 2785   0.270   1.831  13.476
   22SAPS    C3 2786   0.520   1.437  13.793
   22SAPS    HX 2787   0.577   1.425  13.888
   22SAPS    HY 2788   0.588   1.405  13.710
   22SAPS   O31 2789   0.401   1.356  13.800
   22SAPS   C31 2790   0.348   1.319  13.684
   22SAPS   O32 2791   0.404   1.322  13.576
   22SAPS   C32 2792   0.205   1.271  13.707
   22SAPS   H2X 2793   0.194   1.250  13.816
   22SAPS   H2Y 2794   0.191   1.176  13.652
   22SAPS   C23 2795   0.381   1.681  13.356
   22SAPS   H3R 2796   0.315   1.606  13.307
   22SAPS   H3S 2797   0.475   1.627  13.379
   22SAPS   C24 2798   0.410   1.794  13.255
   22SAPS   H4R 2799   0.480   1.754  13.178
   22SAPS   H4S 2800   0.464   1.876  13.308
   22SAPS   C25 2801   0.285   1.850  13.191
   22SAPS   H5R 2802   0.205   1.875  13.262
   22SAPS   C26 2803   0.264   1.871  13.060
   22SAPS   H6R 2804   0.167   1.913  13.030
   22SAPS   C27 2805   0.361   1.844  12.947
   22SAPS   H7R 2806   0.398   1.739  12.955
   22SAPS   H7S 2807   0.451   1.908  12.959
   22SAPS   C28 2808   0.299   1.862  12.810
   22SAPS   H8R 2809   0.190   1.846  12.806
   22SAPS   C29 2810   0.361   1.895  12.696
   22SAPS   H9R 2811   0.301   1.904  12.604
   22SAPS  C210 2812   0.508   1.922  12.676
   22SAPS  H10R 2813   0.567   1.897  12.767
   22SAPS  H10S 2814   0.521   2.031  12.661
   22SAPS  C211 2815   0.566   1.848  12.558
   22SAPS  H11R 2816   0.594   1.744  12.579
   22SAPS  C212 2817   0.586   1.897  12.433
   22SAPS  H12R 2818   0.632   1.831  12.359
   22SAPS  C213 2819   0.553   2.035  12.382
   22SAPS  H13R 2820   0.619   2.058  12.295
   22SAPS  H13S 2821   0.582   2.110  12.460
   22SAPS  C214 2822   0.408   2.056  12.348
   22SAPS  H14R 2823   0.343   2.073  12.435
   22SAPS  C215 2824   0.352   2.057  12.225
   22SAPS  H15R 2825   0.243   2.076  12.218
   22SAPS  C216 2826   0.420   2.037  12.092
   22SAPS  H16R 2827   0.523   1.999  12.104
   22SAPS  H16S 2828   0.427   2.134  12.038
   22SAPS  C217 2829   0.341   1.938  12.003
   22SAPS  H17R 2830   0.234   1.967  12.000
   22SAPS  H17S 2831   0.346   1.836  12.048
   22SAPS  C218 2832   0.390   1.927  11.857
   22SAPS  H18R 2833   0.356   2.018  11.802
   22SAPS  H18S 2834   0.341   1.840  11.809
   22SAPS  C219 2835   0.542   1.915  11.836
   22SAPS  H19R 2836   0.592   2.007  11.874
   22SAPS  H19S 2837   0.560   1.911  11.727
   22SAPS  C220 2838   0.605   1.792  11.901
   22SAPS  H20R 2839   0.604   1.801  12.011
   22SAPS  H20S 2840   0.711   1.781  11.868
   22SAPS  H20T 2841   0.550   1.700  11.872
   22SAPS   C33 2842   0.100   1.377  13.665
   22SAPS   H3X 2843   0.128   1.476  13.708
   22SAPS   H3Y 2844   0.002   1.350  13.712
   22SAPS   C34 2845   0.078   1.393  13.514
   22SAPS   H4X 2846   0.038   1.298  13.473
   22SAPS   H4Y 2847   0.175   1.415  13.464
   22SAPS   C35 2848   5.171   1.508  13.485
   22SAPS   H5X 2849   0.027   1.606  13.506
   22SAPS   H5Y 2850   5.087   1.498  13.558
   22SAPS   C36 2851   5.110   1.508  13.344
   22SAPS   H6X 2852   5.023   1.577  13.345
   22SAPS   H6Y 2853   5.071   1.406  13.322
   22SAPS   C37 2854   0.011   1.550  13.228
   22SAPS   H7X 2855   0.093   1.476  13.220
   22SAPS   H7Y 2856   0.056   1.649  13.249
   22SAPS   C38 2857   5.124   1.555  13.095
   22SAPS   H8X 2858   5.095   1.660  13.074
   22SAPS   H8Y 2859   5.031   1.496  13.108
   22SAPS   C39 2860   0.007   1.496  12.974
   22SAPS   H9X 2861   5.127   1.490  12.889
   22SAPS   H9Y 2862   0.039   1.392  12.997
   22SAPS  C310 2863   0.128   1.578  12.930
   22SAPS  H10X 2864   0.204   1.578  13.012
   22SAPS  H10Y 2865   0.095   1.683  12.915
   22SAPS  C311 2866   0.194   1.527  12.801
   22SAPS  H11X 2867   0.281   1.593  12.777
   22SAPS  H11Y 2868   0.122   1.535  12.717
   22SAPS  C312 2869   0.244   1.383  12.811
   22SAPS  H12X 2870   0.155   1.317  12.821
   22SAPS  H12Y 2871   0.305   1.372  12.904
   22SAPS  C313 2872   0.327   1.333  12.691
   22SAPS  H13X 2873   0.264   1.339  12.600
   22SAPS  H13Y 2874   0.351   1.226  12.707
   22SAPS  C314 2875   0.458   1.410  12.671
   22SAPS  H14X 2876   0.515   1.411  12.766
   22SAPS  H14Y 2877   0.435   1.515  12.644
   22SAPS  C315 2878   0.548   1.351  12.560
   22SAPS  H15X 2879   0.582   1.250  12.589
   22SAPS  H15Y 2880   0.638   1.416  12.551
   22SAPS  C316 2881   0.478   1.344  12.424
   22SAPS  H16X 2882   0.424   1.439  12.407
   22SAPS  H16Y 2883   0.402   1.262  12.425
   22SAPS  C317 2884   0.575   1.320  12.307
   22SAPS  H17X 2885   0.636   1.231  12.332
   22SAPS  H17Y 2886   0.644   1.407  12.300
   22SAPS  C318 2887   0.507   1.299  12.172
   22SAPS  H18X 2888   0.581   1.270  12.095
   22SAPS  H18Y 2889   0.457   1.392  12.137
   22SAPS  H18Z 2890   0.429   1.220  12.179
   23SAPS     N 2891   0.799   4.139   9.888
   23SAPS   HN1 2892   0.764   4.236   9.871
   23SAPS   HN2 2893   0.721   4.075   9.912
   23SAPS   HN3 2894   0.873   4.140   9.961
   23SAPS   C12 2895   0.860   4.096   9.759
   23SAPS  H12A 2896   0.795   4.021   9.716
   23SAPS   C13 2897   0.868   4.214   9.660
   23SAPS  O13A 2898   0.817   4.325   9.692
   23SAPS  O13B 2899   0.917   4.195   9.546
   23SAPS   C11 2900   1.002   4.035   9.783
   23SAPS  H11A 2901   1.076   4.118   9.789
   23SAPS  H11B 2902   1.030   3.978   9.692
   23SAPS     P 2903   1.079   4.001  10.028
   23SAPS   O13 2904   1.224   3.995  10.002
   23SAPS   O14 2905   1.014   4.132  10.053
   23SAPS   O12 2906   1.005   3.946   9.898
   23SAPS   O11 2907   1.036   3.896  10.138
   23SAPS    C1 2908   0.923   3.920  10.223
   23SAPS    HA 2909   0.880   4.022  10.216
   23SAPS    HB 2910   0.841   3.851  10.194
   23SAPS    C2 2911   0.954   3.895  10.374
   23SAPS    HS 2912   0.874   3.830  10.414
   23SAPS   O21 2913   0.961   4.021  10.444
   23SAPS   C21 2914   0.847   4.060  10.498
   23SAPS   O22 2915   0.737   4.017  10.471
   23SAPS   C22 2916   0.880   4.164  10.606
   23SAPS   H2R 2917   0.981   4.140  10.646
   23SAPS   H2S 2918   0.884   4.264  10.558
   23SAPS    C3 2919   1.088   3.819  10.402
   23SAPS    HX 2920   1.171   3.893  10.408
   23SAPS    HY 2921   1.108   3.753  10.316
   23SAPS   O31 2922   1.079   3.737  10.521
   23SAPS   C31 2923   1.068   3.800  10.636
   23SAPS   O32 2924   1.103   3.914  10.659
   23SAPS   C32 2925   0.997   3.712  10.739
   23SAPS   H2X 2926   1.056   3.717  10.833
   23SAPS   H2Y 2927   0.994   3.607  10.703
   23SAPS   C23 2928   0.779   4.164  10.724
   23SAPS   H3R 2929   0.836   4.180  10.818
   23SAPS   H3S 2930   0.730   4.064  10.733
   23SAPS   C24 2931   0.673   4.274  10.711
   23SAPS   H4R 2932   0.625   4.264  10.612
   23SAPS   H4S 2933   0.723   4.373  10.713
   23SAPS   C25 2934   0.568   4.267  10.819
   23SAPS   H5R 2935   0.471   4.228  10.785
   23SAPS   C26 2936   0.583   4.300  10.949
   23SAPS   H6R 2937   0.496   4.289  11.015
   23SAPS   C27 2938   0.708   4.351  11.017
   23SAPS   H7R 2939   0.689   4.455  11.052
   23SAPS   H7S 2940   0.794   4.358  10.946
   23SAPS   C28 2941   0.745   4.266  11.136
   23SAPS   H8R 2942   0.667   4.198  11.172
   23SAPS   C29 2943   0.862   4.267  11.203
   23SAPS   H9R 2944   0.872   4.199  11.290
   23SAPS  C210 2945   0.985   4.351  11.176
   23SAPS  H10R 2946   0.982   4.440  11.243
   23SAPS  H10S 2947   0.983   4.392  11.072
   23SAPS  C211 2948   1.112   4.272  11.196
   23SAPS  H11R 2949   1.118   4.180  11.136
   23SAPS  C212 2950   1.216   4.302  11.277
   23SAPS  H12R 2951   1.300   4.230  11.282
   23SAPS  C213 2952   1.231   4.422  11.367
   23SAPS  H13R 2953   1.132   4.453  11.407
   23SAPS  H13S 2954   1.266   4.504  11.302
   23SAPS  C214 2955   1.334   4.409  11.477
   23SAPS  H14R 2956   1.430   4.365  11.444
   23SAPS  C215 2957   1.324   4.445  11.607
   23SAPS  H15R 2958   1.411   4.429  11.672
   23SAPS  C216 2959   1.206   4.508  11.678
   23SAPS  H16R 2960   1.116   4.509  11.614
   23SAPS  H16S 2961   1.228   4.614  11.706
   23SAPS  C217 2962   1.175   4.430  11.808
   23SAPS  H17R 2963   1.255   4.443  11.883
   23SAPS  H17S 2964   1.171   4.322  11.781
   23SAPS  C218 2965   1.039   4.463  11.871
   23SAPS  H18R 2966   0.963   4.469  11.790
   23SAPS  H18S 2967   1.041   4.562  11.922
   23SAPS  C219 2968   0.993   4.354  11.970
   23SAPS  H19R 2969   1.027   4.382  12.072
   23SAPS  H19S 2970   1.043   4.258  11.945
   23SAPS  C220 2971   0.842   4.328  11.970
   23SAPS  H20R 2972   0.812   4.270  11.880
   23SAPS  H20S 2973   0.785   4.423  11.970
   23SAPS  H20T 2974   0.812   4.269  12.060
   23SAPS   C33 2975   0.853   3.764  10.763
   23SAPS   H3X 2976   0.788   3.736  10.678
   23SAPS   H3Y 2977   0.855   3.875  10.769
   23SAPS   C34 2978   0.790   3.715  10.894
   23SAPS   H4X 2979   0.853   3.749  10.980
   23SAPS   H4Y 2980   0.786   3.604  10.895
   23SAPS   C35 2981   0.647   3.771  10.911
   23SAPS   H5X 2982   0.584   3.727  10.831
   23SAPS   H5Y 2983   0.648   3.881  10.895
   23SAPS   C36 2984   0.583   3.741  11.047
   23SAPS   H6X 2985   0.601   3.635  11.074
   23SAPS   H6Y 2986   0.474   3.756  11.037
   23SAPS   C37 2987   0.632   3.833  11.161
   23SAPS   H7X 2988   0.621   3.939  11.128
   23SAPS   H7Y 2989   0.740   3.815  11.180
   23SAPS   C38 2990   0.551   3.812  11.289
   23SAPS   H8X 2991   0.565   3.708  11.325
   23SAPS   H8Y 2992   0.443   3.824  11.264
   23SAPS   C39 2993   0.583   3.910  11.404
   23SAPS   H9X 2994   0.509   3.893  11.485
   23SAPS   H9Y 2995   0.571   4.015  11.370
   23SAPS  C310 2996   0.724   3.891  11.463
   23SAPS  H10X 2997   0.790   3.973  11.427
   23SAPS  H10Y 2998   0.766   3.796  11.423
   23SAPS  C311 2999   0.726   3.884  11.617
   23SAPS  H11X 3000   0.650   3.810  11.650
   23SAPS  H11Y 3001   0.696   3.983  11.658
   23SAPS  C312 3002   0.862   3.842  11.674
   23SAPS  H12X 3003   0.942   3.908  11.634
   23SAPS  H12Y 3004   0.885   3.740  11.637
   23SAPS  C313 3005   0.867   3.841  11.828
   23SAPS  H13X 3006   0.777   3.787  11.863
   23SAPS  H13Y 3007   0.862   3.944  11.867
   23SAPS  C314 3008   0.990   3.767  11.885
   23SAPS  H14X 3009   1.013   3.681  11.819
   23SAPS  H14Y 3010   0.963   3.726  11.985
   23SAPS  C315 3011   1.117   3.851  11.902
   23SAPS  H15X 3012   1.141   3.903  11.807
   23SAPS  H15Y 3013   1.201   3.781  11.923
   23SAPS  C316 3014   1.110   3.951  12.018
   23SAPS  H16X 3015   1.070   3.900  12.107
   23SAPS  H16Y 3016   1.039   4.033  11.991
   23SAPS  C317 3017   1.247   4.011  12.054
   23SAPS  H17X 3018   1.315   3.929  12.084
   23SAPS  H17Y 3019   1.234   4.077  12.143
   23SAPS  C318 3020   1.313   4.091  11.942
   23SAPS  H18X 3021   1.243   4.169  11.904
   23SAPS  H18Y 3022   1.340   4.025  11.857
   23SAPS  H18Z 3023   1.404   4.142  11.978
   24SAPS     N 3024   4.221   1.765   9.763
   24SAPS   HN1 3025   4.317   1.798   9.740
   24SAPS   HN2 3026   4.166   1.763   9.675
   24SAPS   HN3 3027   4.177   1.833   9.828
   24SAPS   C12 3028   4.226   1.623   9.809
   24SAPS  H12A 3029   4.173   1.615   9.903
   24SAPS   C13 3030   4.154   1.529   9.709
   24SAPS  O13A 3031   4.103   1.578   9.604
   24SAPS  O13B 3032   4.153   1.406   9.732
   24SAPS   C11 3033   4.373   1.573   9.823
   24SAPS  H11A 3034   4.422   1.578   9.723
   24SAPS  H11B 3035   4.369   1.466   9.852
   24SAPS     P 3036   4.535   1.584  10.031
   24SAPS   O13 3037   4.582   1.450   9.988
   24SAPS   O14 3038   4.643   1.678  10.071
   24SAPS   O12 3039   4.450   1.652   9.916
   24SAPS   O11 3040   4.430   1.572  10.149
   24SAPS    C1 3041   4.332   1.676  10.167
   24SAPS    HA 3042   4.377   1.777  10.154
   24SAPS    HB 3043   4.250   1.666  10.093
   24SAPS    C2 3044   4.266   1.673  10.308
   24SAPS    HS 3045   4.210   1.767  10.321
   24SAPS   O21 3046   4.365   1.658  10.411
   24SAPS   C21 3047   4.441   1.763  10.433
   24SAPS   O22 3048   4.434   1.871  10.376
   24SAPS   C22 3049   4.540   1.727  10.542
   24SAPS   H2R 3050   4.501   1.638  10.597
   24SAPS   H2S 3051   4.636   1.698  10.494
   24SAPS    C3 3052   4.165   1.556  10.325
   24SAPS    HX 3053   4.221   1.462  10.307
   24SAPS    HY 3054   4.086   1.562  10.247
   24SAPS   O31 3055   4.110   1.552  10.458
   24SAPS   C31 3056   4.021   1.648  10.484
   24SAPS   O32 3057   3.970   1.720  10.400
   24SAPS   C32 3058   3.998   1.659  10.634
   24SAPS   H2X 3059   3.962   1.561  10.673
   24SAPS   H2Y 3060   3.918   1.735  10.648
   24SAPS   C23 3061   4.564   1.840  10.644
   24SAPS   H3R 3062   4.468   1.890  10.670
   24SAPS   H3S 3063   4.630   1.918  10.600
   24SAPS   C24 3064   4.625   1.787  10.776
   24SAPS   H4R 3065   4.547   1.727  10.827
   24SAPS   H4S 3066   4.647   1.873  10.843
   24SAPS   C25 3067   4.750   1.707  10.750
   24SAPS   H5R 3068   4.836   1.767  10.716
   24SAPS   C26 3069   4.765   1.573  10.761
   24SAPS   H6R 3070   4.863   1.530  10.737
   24SAPS   C27 3071   4.660   1.472  10.801
   24SAPS   H7R 3072   4.640   1.406  10.714
   24SAPS   H7S 3073   4.563   1.520  10.823
   24SAPS   C28 3074   4.705   1.385  10.916
   24SAPS   H8R 3075   4.810   1.351  10.912
   24SAPS   C29 3076   4.629   1.346  11.021
   24SAPS   H9R 3077   4.675   1.283  11.098
   24SAPS  C210 3078   4.484   1.379  11.043
   24SAPS  H10R 3079   4.470   1.489  11.033
   24SAPS  H10S 3080   4.458   1.356  11.149
   24SAPS  C211 3081   4.388   1.309  10.950
   24SAPS  H11R 3082   4.433   1.265  10.859
   24SAPS  C212 3083   4.255   1.297  10.968
   24SAPS  H12R 3084   4.196   1.243  10.893
   24SAPS  C213 3085   4.176   1.351  11.085
   24SAPS  H13R 3086   4.092   1.413  11.047
   24SAPS  H13S 3087   4.237   1.420  11.147
   24SAPS  C214 3088   4.120   1.238  11.168
   24SAPS  H14R 3089   4.047   1.174  11.116
   24SAPS  C215 3090   4.148   1.210  11.297
   24SAPS  H15R 3091   4.098   1.124  11.344
   24SAPS  C216 3092   4.244   1.283  11.388
   24SAPS  H16R 3093   4.318   1.343  11.331
   24SAPS  H16S 3094   4.302   1.209  11.447
   24SAPS  C217 3095   4.171   1.377  11.486
   24SAPS  H17R 3096   4.245   1.412  11.561
   24SAPS  H17S 3097   4.092   1.322  11.541
   24SAPS  C218 3098   4.110   1.501  11.417
   24SAPS  H18R 3099   4.039   1.467  11.339
   24SAPS  H18S 3100   4.191   1.557  11.367
   24SAPS  C219 3101   4.036   1.594  11.514
   24SAPS  H19R 3102   3.956   1.534  11.562
   24SAPS  H19S 3103   3.987   1.674  11.455
   24SAPS  C220 3104   4.122   1.658  11.623
   24SAPS  H20R 3105   4.206   1.715  11.578
   24SAPS  H20S 3106   4.163   1.581  11.691
   24SAPS  H20T 3107   4.061   1.729  11.684
   24SAPS   C33 3108   4.125   1.703  10.711
   24SAPS   H3X 3109   4.183   1.776  10.650
   24SAPS   H3Y 3110   4.191   1.615  10.730
   24SAPS   C34 3111   4.091   1.773  10.843
   24SAPS   H4X 3112   4.030   1.707  10.907
   24SAPS   H4Y 3113   4.030   1.862  10.819
   24SAPS   C35 3114   4.215   1.820  10.921
   24SAPS   H5X 3115   4.189   1.914  10.976
   24SAPS   H5Y 3116   4.297   1.845  10.851
   24SAPS   C36 3117   4.264   1.719  11.026
   24SAPS   H6X 3118   4.288   1.622  10.977
   24SAPS   H6Y 3119   4.180   1.701  11.097
   24SAPS   C37 3120   4.386   1.769  11.104
   24SAPS   H7X 3121   4.376   1.879  11.118
   24SAPS   H7Y 3122   4.478   1.750  11.046
   24SAPS   C38 3123   4.398   1.706  11.244
   24SAPS   H8X 3124   4.402   1.595  11.235
   24SAPS   H8Y 3125   4.306   1.731  11.301
   24SAPS   C39 3126   4.519   1.757  11.322
   24SAPS   H9X 3127   4.529   1.866  11.304
   24SAPS   H9Y 3128   4.612   1.708  11.284
   24SAPS  C310 3129   4.507   1.735  11.474
   24SAPS  H10X 3130   4.412   1.782  11.509
   24SAPS  H10Y 3131   4.590   1.788  11.525
   24SAPS  C311 3132   4.506   1.588  11.518
   24SAPS  H11X 3133   4.601   1.540  11.487
   24SAPS  H11Y 3134   4.423   1.534  11.466
   24SAPS  C312 3135   4.488   1.574  11.669
   24SAPS  H12X 3136   4.389   1.615  11.698
   24SAPS  H12Y 3137   4.565   1.635  11.721
   24SAPS  C313 3138   4.499   1.429  11.718
   24SAPS  H13X 3139   4.605   1.398  11.706
   24SAPS  H13Y 3140   4.439   1.362  11.654
   24SAPS  C314 3141   4.457   1.413  11.864
   24SAPS  H14X 3142   4.487   1.503  11.922
   24SAPS  H14Y 3143   4.511   1.327  11.908
   24SAPS  C315 3144   4.306   1.387  11.880
   24SAPS  H15X 3145   4.255   1.396  11.781
   24SAPS  H15Y 3146   4.262   1.464  11.946
   24SAPS  C316 3147   4.276   1.248  11.938
   24SAPS  H16X 3148   4.325   1.240  12.037
   24SAPS  H16Y 3149   4.321   1.171  11.872
   24SAPS  C317 3150   4.127   1.219  11.953
   24SAPS  H17X 3151   4.079   1.220  11.853
   24SAPS  H17Y 3152   4.080   1.301  12.013
   24SAPS  C318 3153   4.101   1.086  12.023
   24SAPS  H18X 3154   4.150   1.003  11.967
   24SAPS  H18Y 3155   3.992   1.064  12.029
   24SAPS  H18Z 3156   4.141   1.088  12.126
   25SAPS     N 3157   5.006   3.255   9.628
   25SAPS   HN1 3158   5.081   3.325   9.614
   25SAPS   HN2 3159   4.985   3.208   9.538
   25SAPS   HN3 3160   4.921   3.302   9.665
   25SAPS   C12 3161   5.051   3.150   9.726
   25SAPS  H12A 3162   4.970   3.079   9.735
   25SAPS   C13 3163   5.177   3.073   9.680
   25SAPS  O13A 3164   0.055   3.116   9.584
   25SAPS  O13B 3165   0.023   2.974   9.749
   25SAPS   C11 3166   5.079   3.217   9.865
   25SAPS  H11A 3167   5.179   3.264   9.862
   25SAPS  H11B 3168   5.084   3.137   9.942
   25SAPS     P 3169   4.830   3.290   9.908
   25SAPS   O13 3170   4.781   3.349   9.781
   25SAPS   O14 3171   4.811   3.145   9.926
   25SAPS   O12 3172   4.985   3.318   9.905
   25SAPS   O11 3173   4.782   3.372  10.033
   25SAPS    C1 3174   4.648   3.424  10.044
   25SAPS    HA 3175   4.620   3.482   9.954
   25SAPS    HB 3176   4.576   3.340  10.054
   25SAPS    C2 3177   4.629   3.518  10.168
   25SAPS    HS 3178   4.615   3.621  10.128
   25SAPS   O21 3179   4.746   3.513  10.252
   25SAPS   C21 3180   4.850   3.581  10.204
   25SAPS   O22 3181   4.848   3.659  10.110
   25SAPS   C22 3182   4.976   3.552  10.286
   25SAPS   H2R 3183   4.975   3.444  10.315
   25SAPS   H2S 3184   5.062   3.568  10.217
   25SAPS    C3 3185   4.498   3.487  10.252
   25SAPS    HX 3186   4.412   3.516  10.187
   25SAPS    HY 3187   4.500   3.559  10.336
   25SAPS   O31 3188   4.475   3.351  10.298
   25SAPS   C31 3189   4.430   3.338  10.425
   25SAPS   O32 3190   4.421   3.427  10.506
   25SAPS   C32 3191   4.377   3.196  10.448
   25SAPS   H2X 3192   4.414   3.131  10.366
   25SAPS   H2Y 3193   4.266   3.202  10.441
   25SAPS   C23 3194   4.990   3.644  10.409
   25SAPS   H3R 3195   4.909   3.623  10.482
   25SAPS   H3S 3196   4.978   3.749  10.377
   25SAPS   C24 3197   5.127   3.633  10.479
   25SAPS   H4R 3198   5.135   3.719  10.549
   25SAPS   H4S 3199   0.015   3.647  10.403
   25SAPS   C25 3200   5.149   3.502  10.551
   25SAPS   H5R 3201   5.164   3.415  10.485
   25SAPS   C26 3202   5.149   3.481  10.685
   25SAPS   H6R 3203   5.164   3.378  10.721
   25SAPS   C27 3204   5.126   3.582  10.795
   25SAPS   H7R 3205   5.129   3.686  10.756
   25SAPS   H7S 3206   0.018   3.575  10.868
   25SAPS   C28 3207   4.993   3.559  10.861
   25SAPS   H8R 3208   4.911   3.533  10.793
   25SAPS   C29 3209   4.963   3.571  10.992
   25SAPS   H9R 3210   4.860   3.548  11.024
   25SAPS  C210 3211   5.055   3.609  11.106
   25SAPS  H10R 3212   5.026   3.710  11.142
   25SAPS  H10S 3213   5.160   3.619  11.072
   25SAPS  C211 3214   5.047   3.508  11.217
   25SAPS  H11R 3215   5.101   3.414  11.197
   25SAPS  C212 3216   4.980   3.519  11.333
   25SAPS  H12R 3217   4.985   3.436  11.406
   25SAPS  C213 3218   4.897   3.637  11.378
   25SAPS  H13R 3219   4.815   3.601  11.443
   25SAPS  H13S 3220   4.846   3.684  11.291
   25SAPS  C214 3221   4.978   3.743  11.450
   25SAPS  H14R 3222   5.023   3.818  11.384
   25SAPS  C215 3223   5.000   3.751  11.582
   25SAPS  H15R 3224   5.060   3.836  11.620
   25SAPS  C216 3225   4.950   3.658  11.690
   25SAPS  H16R 3226   4.906   3.566  11.647
   25SAPS  H16S 3227   4.870   3.708  11.748
   25SAPS  C217 3228   5.062   3.617  11.788
   25SAPS  H17R 3229   5.143   3.564  11.734
   25SAPS  H17S 3230   5.018   3.545  11.861
   25SAPS  C218 3231   5.120   3.734  11.869
   25SAPS  H18R 3232   5.036   3.792  11.912
   25SAPS  H18S 3233   5.178   3.802  11.802
   25SAPS  C219 3234   0.020   3.688  11.983
   25SAPS  H19R 3235   0.111   3.640  11.940
   25SAPS  H19S 3236   5.157   3.610  12.041
   25SAPS  C220 3237   0.062   3.800  12.078
   25SAPS  H20R 3238   5.164   3.842  12.129
   25SAPS  H20S 3239   0.113   3.881  12.023
   25SAPS  H20T 3240   0.131   3.761  12.156
   25SAPS   C33 3241   4.411   3.128  10.583
   25SAPS   H3X 3242   4.328   3.142  10.655
   25SAPS   H3Y 3243   4.499   3.178  10.629
   25SAPS   C34 3244   4.445   2.979  10.568
   25SAPS   H4X 3245   4.515   2.962  10.484
   25SAPS   H4Y 3246   4.351   2.924  10.545
   25SAPS   C35 3247   4.510   2.922  10.694
   25SAPS   H5X 3248   4.508   2.811  10.693
   25SAPS   H5Y 3249   4.444   2.954  10.778
   25SAPS   C36 3250   4.653   2.973  10.724
   25SAPS   H6X 3251   4.658   2.995  10.833
   25SAPS   H6Y 3252   4.670   3.068  10.670
   25SAPS   C37 3253   4.767   2.876  10.688
   25SAPS   H7X 3254   4.770   2.864  10.578
   25SAPS   H7Y 3255   4.745   2.777  10.733
   25SAPS   C38 3256   4.905   2.921  10.738
   25SAPS   H8X 3257   4.923   3.026  10.708
   25SAPS   H8Y 3258   4.982   2.859  10.688
   25SAPS   C39 3259   4.921   2.904  10.890
   25SAPS   H9X 3260   4.906   2.796  10.914
   25SAPS   H9Y 3261   4.841   2.961  10.943
   25SAPS  C310 3262   5.057   2.948  10.946
   25SAPS  H10X 3263   5.139   2.899  10.888
   25SAPS  H10Y 3264   5.063   2.910  11.050
   25SAPS  C311 3265   5.077   3.100  10.947
   25SAPS  H11X 3266   4.983   3.149  10.979
   25SAPS  H11Y 3267   5.100   3.134  10.844
   25SAPS  C312 3268   5.188   3.146  11.043
   25SAPS  H12X 3269   0.019   3.253  11.022
   25SAPS  H12Y 3270   0.090   3.088  11.025
   25SAPS  C313 3271   5.148   3.135  11.191
   25SAPS  H13X 3272   5.134   3.028  11.219
   25SAPS  H13Y 3273   5.050   3.185  11.204
   25SAPS  C314 3274   0.058   3.200  11.287
   25SAPS  H14X 3275   0.081   3.301  11.249
   25SAPS  H14Y 3276   0.153   3.143  11.287
   25SAPS  C315 3277   0.003   3.214  11.430
   25SAPS  H15X 3278   5.084   3.210  11.427
   25SAPS  H15Y 3279   0.032   3.312  11.473
   25SAPS  C316 3280   0.054   3.104  11.525
   25SAPS  H16X 3281   0.049   3.006  11.473
   25SAPS  H16Y 3282   5.178   3.099  11.613
   25SAPS  C317 3283   0.198   3.126  11.574
   25SAPS  H17X 3284   0.202   3.222  11.629
   25SAPS  H17Y 3285   0.265   3.135  11.486
   25SAPS  C318 3286   0.247   3.014  11.665
   25SAPS  H18X 3287   0.244   2.916  11.613
   25SAPS  H18Y 3288   0.185   3.007  11.757
   25SAPS  H18Z 3289   0.352   3.032  11.697
   26SAPS     N 3290   4.655   0.409   9.861
   26SAPS   HN1 3291   4.594   0.491   9.839
   26SAPS   HN2 3292   4.690   0.417   9.959
   26SAPS   HN3 3293   4.735   0.407   9.796
   26SAPS   C12 3294   4.580   0.280   9.846
   26SAPS  H12A 3295   4.474   0.303   9.845
   26SAPS   C13 3296   4.615   0.204   9.717
   26SAPS  O13A 3297   4.708   0.248   9.645
   26SAPS  O13B 3298   4.567   0.089   9.700
   26SAPS   C11 3299   4.611   0.187   9.966
   26SAPS  H11A 3300   4.719   0.160   9.965
   26SAPS  H11B 3301   4.555   0.092   9.954
   26SAPS     P 3302   4.676   0.306  10.191
   26SAPS   O13 3303   4.757   0.399  10.109
   26SAPS   O14 3304   4.608   0.359  10.310
   26SAPS   O12 3305   4.570   0.247  10.089
   26SAPS   O11 3306   4.765   0.180  10.228
   26SAPS    C1 3307   4.715   0.046  10.227
   26SAPS    HA 3308   4.607   0.040  10.201
   26SAPS    HB 3309   4.769   5.179  10.148
   26SAPS    C2 3310   4.729   5.160  10.362
   26SAPS    HS 3311   4.664   5.070  10.354
   26SAPS   O21 3312   4.691   0.050  10.473
   26SAPS   C21 3313   4.564   0.085  10.479
   26SAPS   O22 3314   4.473   0.037  10.413
   26SAPS   C22 3315   4.551   0.190  10.590
   26SAPS   H2R 3316   4.578   0.141  10.686
   26SAPS   H2S 3317   4.626   0.269  10.568
   26SAPS    C3 3318   4.874   5.107  10.390
   26SAPS    HX 3319   4.912   5.051  10.302
   26SAPS    HY 3320   4.863   5.033  10.473
   26SAPS   O31 3321   4.964   0.018  10.435
   26SAPS   C31 3322   5.033   0.082  10.343
   26SAPS   O32 3323   5.045   0.047  10.226
   26SAPS   C32 3324   5.098   0.206  10.405
   26SAPS   H2X 3325   5.188   0.229  10.344
   26SAPS   H2Y 3326   5.133   0.181  10.508
   26SAPS   C23 3327   4.412   0.257  10.600
   26SAPS   H3R 3328   4.334   0.178  10.604
   26SAPS   H3S 3329   4.394   0.317  10.509
   26SAPS   C24 3330   4.395   0.345  10.726
   26SAPS   H4R 3331   4.402   0.278  10.815
   26SAPS   H4S 3332   4.291   0.384  10.724
   26SAPS   C25 3333   4.492   0.460  10.735
   26SAPS   H5R 3334   4.514   0.510  10.640
   26SAPS   C26 3335   4.553   0.501  10.848
   26SAPS   H6R 3336   4.622   0.587  10.844
   26SAPS   C27 3337   4.532   0.438  10.984
   26SAPS   H7R 3338   4.570   0.334  10.981
   26SAPS   H7S 3339   4.423   0.428  11.002
   26SAPS   C28 3340   4.596   0.510  11.100
   26SAPS   H8R 3341   4.699   0.477  11.124
   26SAPS   C29 3342   4.539   0.606  11.174
   26SAPS   H9R 3343   4.594   0.649  11.259
   26SAPS  C210 3344   4.399   0.660  11.153
   26SAPS  H10R 3345   4.327   0.591  11.201
   26SAPS  H10S 3346   4.373   0.660  11.045
   26SAPS  C211 3347   4.381   0.800  11.207
   26SAPS  H11R 3348   4.409   0.881  11.137
   26SAPS  C212 3349   4.334   0.834  11.329
   26SAPS  H12R 3350   4.325   0.940  11.354
   26SAPS  C213 3351   4.291   0.737  11.437
   26SAPS  H13R 3352   4.337   0.637  11.419
   26SAPS  H13S 3353   4.182   0.721  11.428
   26SAPS  C214 3354   4.322   0.787  11.576
   26SAPS  H14R 3355   4.299   0.893  11.592
   26SAPS  C215 3356   4.371   0.716  11.680
   26SAPS  H15R 3357   4.387   0.768  11.775
   26SAPS  C216 3358   4.406   0.569  11.681
   26SAPS  H16R 3359   4.514   0.556  11.701
   26SAPS  H16S 3360   4.385   0.521  11.583
   26SAPS  C217 3361   4.326   0.490  11.788
   26SAPS  H17R 3362   4.340   0.382  11.769
   26SAPS  H17S 3363   4.217   0.511  11.773
   26SAPS  C218 3364   4.364   0.520  11.934
   26SAPS  H18R 3365   4.288   0.472  12.000
   26SAPS  H18S 3366   4.361   0.629  11.953
   26SAPS  C219 3367   4.501   0.463  11.974
   26SAPS  H19R 3368   4.578   0.503  11.906
   26SAPS  H19S 3369   4.497   0.353  11.961
   26SAPS  C220 3370   4.541   0.494  12.119
   26SAPS  H20R 3371   4.548   0.604  12.134
   26SAPS  H20S 3372   4.640   0.449  12.142
   26SAPS  H20T 3373   4.466   0.453  12.190
   26SAPS   C33 3374   5.004   0.329  10.409
   26SAPS   H3X 3375   4.955   0.343  10.310
   26SAPS   H3Y 3376   5.064   0.421  10.429
   26SAPS   C34 3377   4.894   0.320  10.516
   26SAPS   H4X 3378   4.853   0.217  10.517
   26SAPS   H4Y 3379   4.811   0.388  10.490
   26SAPS   C35 3380   4.945   0.355  10.656
   26SAPS   H5X 3381   4.959   0.465  10.660
   26SAPS   H5Y 3382   5.043   0.306  10.672
   26SAPS   C36 3383   4.853   0.312  10.770
   26SAPS   H6X 3384   4.746   0.321  10.741
   26SAPS   H6Y 3385   4.869   0.381  10.855
   26SAPS   C37 3386   4.883   0.169  10.820
   26SAPS   H7X 3387   4.993   0.158  10.831
   26SAPS   H7Y 3388   4.849   0.095  10.745
   26SAPS   C38 3389   4.819   0.143  10.956
   26SAPS   H8X 3390   4.708   0.144  10.945
   26SAPS   H8Y 3391   4.847   0.226  11.024
   26SAPS   C39 3392   4.864   0.012  11.022
   26SAPS   H9X 3393   4.973   5.190  11.005
   26SAPS   H9Y 3394   4.812   5.117  10.975
   26SAPS  C310 3395   4.840   0.012  11.174
   26SAPS  H10X 3396   4.897   0.097  11.218
   26SAPS  H10Y 3397   4.880   5.110  11.218
   26SAPS  C311 3398   4.692   0.028  11.214
   26SAPS  H11X 3399   4.638   5.124  11.192
   26SAPS  H11Y 3400   4.644   0.106  11.152
   26SAPS  C312 3401   4.671   0.068  11.361
   26SAPS  H12X 3402   4.562   0.064  11.383
   26SAPS  H12Y 3403   4.705   0.173  11.372
   26SAPS  C313 3404   4.746   5.172  11.463
   26SAPS  H13X 3405   4.855   5.191  11.455
   26SAPS  H13Y 3406   4.730   5.065  11.439
   26SAPS  C314 3407   4.700   0.004  11.608
   26SAPS  H14X 3408   4.760   5.133  11.677
   26SAPS  H14Y 3409   4.595   5.161  11.615
   26SAPS  C315 3410   4.706   0.151  11.653
   26SAPS  H15X 3411   4.658   0.215  11.576
   26SAPS  H15Y 3412   4.811   0.184  11.663
   26SAPS  C316 3413   4.629   0.178  11.784
   26SAPS  H16X 3414   4.529   0.129  11.776
   26SAPS  H16Y 3415   4.612   0.287  11.791
   26SAPS  C317 3416   4.700   0.130  11.911
   26SAPS  H17X 3417   4.735   0.026  11.897
   26SAPS  H17Y 3418   4.626   0.129  11.994
   26SAPS  C318 3419   4.817   0.220  11.952
   26SAPS  H18X 3420   4.866   0.181  12.044
   26SAPS  H18Y 3421   4.782   0.323  11.972
   26SAPS  H18Z 3422   4.893   0.224  11.871
   27SAPE     N 3423   1.886   3.007  13.976
   27SAPE   HN1 3424   1.927   3.072  14.046
   27SAPE   HN2 3425   1.946   3.012  13.891
   27SAPE   HN3 3426   1.791   3.043  13.954
   27SAPE   C12 3427   1.883   2.866  14.031
   27SAPE  H12A 3428   1.835   2.800  13.955
   27SAPE  H12B 3429   1.821   2.867  14.123
   27SAPE   C11 3430   2.024   2.816  14.063
   27SAPE  H11A 3431   2.070   2.885  14.137
   27SAPE  H11B 3432   2.087   2.817  13.971
   27SAPE     P 3433   2.137   2.623  14.198
   27SAPE   O13 3434   2.259   2.702  14.167
   27SAPE   O14 3435   2.098   2.625  14.340
   27SAPE   O12 3436   2.017   2.682  14.113
   27SAPE   O11 3437   2.156   2.472  14.153
   27SAPE    C1 3438   2.089   2.418  14.037
   27SAPE    HA 3439   2.067   2.310  14.055
   27SAPE    HB 3440   1.990   2.465  14.019
   27SAPE    C2 3441   2.174   2.427  13.907
   27SAPE    HS 3442   2.270   2.375  13.923
   27SAPE   O21 3443   2.190   2.566  13.873
   27SAPE   C21 3444   2.315   2.609  13.873
   27SAPE   O22 3445   2.410   2.557  13.929
   27SAPE   C22 3446   2.322   2.732  13.784
   27SAPE   H2R 3447   2.273   2.817  13.837
   27SAPE   H2S 3448   2.430   2.756  13.771
   27SAPE    C3 3449   2.107   2.356  13.786
   27SAPE    HX 3450   2.000   2.388  13.782
   27SAPE    HY 3451   2.111   2.246  13.805
   27SAPE   O31 3452   2.172   2.392  13.662
   27SAPE   C31 3453   2.159   2.305  13.562
   27SAPE   O32 3454   2.092   2.204  13.565
   27SAPE   C32 3455   2.237   2.354  13.439
   27SAPE   H2X 3456   2.320   2.282  13.425
   27SAPE   H2Y 3457   2.281   2.454  13.459
   27SAPE   C23 3458   2.256   2.705  13.647
   27SAPE   H3R 3459   2.148   2.683  13.662
   27SAPE   H3S 3460   2.301   2.613  13.603
   27SAPE   C24 3461   2.269   2.820  13.547
   27SAPE   H4R 3462   2.228   2.912  13.594
   27SAPE   H4S 3463   2.203   2.797  13.460
   27SAPE   C25 3464   2.411   2.840  13.503
   27SAPE   H5R 3465   2.478   2.884  13.579
   27SAPE   C26 3466   2.464   2.805  13.384
   27SAPE   H6R 3467   2.570   2.827  13.365
   27SAPE   C27 3468   2.391   2.738  13.270
   27SAPE   H7R 3469   2.319   2.664  13.311
   27SAPE   H7S 3470   2.464   2.679  13.210
   27SAPE   C28 3471   2.315   2.835  13.182
   27SAPE   H8R 3472   2.285   2.929  13.230
   27SAPE   C29 3473   2.283   2.814  13.053
   27SAPE   H9R 3474   2.226   2.891  13.000
   27SAPE  C210 3475   2.317   2.690  12.974
   27SAPE  H10R 3476   2.249   2.608  13.005
   27SAPE  H10S 3477   2.420   2.656  12.997
   27SAPE  C211 3478   2.308   2.714  12.825
   27SAPE  H11R 3479   2.374   2.793  12.787
   27SAPE  C212 3480   2.231   2.647  12.737
   27SAPE  H12R 3481   2.235   2.675  12.631
   27SAPE  C213 3482   2.135   2.535  12.768
   27SAPE  H13R 3483   2.052   2.537  12.694
   27SAPE  H13S 3484   2.087   2.553  12.867
   27SAPE  C214 3485   2.202   2.400  12.772
   27SAPE  H14R 3486   2.299   2.399  12.824
   27SAPE  C215 3487   2.157   2.286  12.717
   27SAPE  H15R 3488   2.219   2.195  12.726
   27SAPE  C216 3489   2.029   2.266  12.639
   27SAPE  H16R 3490   1.957   2.348  12.658
   27SAPE  H16S 3491   1.980   2.172  12.672
   27SAPE  C217 3492   2.055   2.258  12.487
   27SAPE  H17R 3493   1.960   2.230  12.437
   27SAPE  H17S 3494   2.128   2.178  12.465
   27SAPE  C218 3495   2.105   2.391  12.427
   27SAPE  H18R 3496   2.201   2.418  12.474
   27SAPE  H18S 3497   2.032   2.471  12.451
   27SAPE  C219 3498   2.124   2.384  12.275
   27SAPE  H19R 3499   2.027   2.359  12.227
   27SAPE  H19S 3500   2.195   2.302  12.251
   27SAPE  C220 3501   2.178   2.515  12.216
   27SAPE  H20R 3502   2.109   2.599  12.238
   27SAPE  H20S 3503   2.190   2.507  12.106
   27SAPE  H20T 3504   2.277   2.539  12.261
   27SAPE   C33 3505   2.151   2.359  13.309
   27SAPE   H3X 3506   2.096   2.263  13.297
   27SAPE   H3Y 3507   2.220   2.368  13.223
   27SAPE   C34 3508   2.053   2.477  13.303
   27SAPE   H4X 3509   2.110   2.573  13.312
   27SAPE   H4Y 3510   1.983   2.471  13.389
   27SAPE   C35 3511   1.971   2.480  13.173
   27SAPE   H5X 3512   1.921   2.381  13.163
   27SAPE   H5Y 3513   2.039   2.490  13.085
   27SAPE   C36 3514   1.863   2.589  13.169
   27SAPE   H6X 3515   1.836   2.616  13.273
   27SAPE   H6Y 3516   1.771   2.548  13.121
   27SAPE   C37 3517   1.904   2.716  13.092
   27SAPE   H7X 3518   2.015   2.726  13.097
   27SAPE   H7Y 3519   1.861   2.806  13.142
   27SAPE   C38 3520   1.858   2.716  12.945
   27SAPE   H8X 3521   1.747   2.726  12.941
   27SAPE   H8Y 3522   1.884   2.618  12.901
   27SAPE   C39 3523   1.923   2.827  12.861
   27SAPE   H9X 3524   2.033   2.822  12.878
   27SAPE   H9Y 3525   1.889   2.927  12.895
   27SAPE  C310 3526   1.898   2.811  12.710
   27SAPE  H10X 3527   1.791   2.831  12.686
   27SAPE  H10Y 3528   1.918   2.705  12.683
   27SAPE  C311 3529   1.990   2.898  12.623
   27SAPE  H11X 3530   2.093   2.890  12.664
   27SAPE  H11Y 3531   1.959   3.005  12.632
   27SAPE  C312 3532   1.994   2.857  12.475
   27SAPE  H12X 3533   1.990   2.746  12.468
   27SAPE  H12Y 3534   2.091   2.890  12.433
   27SAPE  C313 3535   1.882   2.920  12.392
   27SAPE  H13X 3536   1.895   3.031  12.396
   27SAPE  H13Y 3537   1.783   2.897  12.436
   27SAPE  C314 3538   1.885   2.876  12.244
   27SAPE  H14X 3539   1.989   2.872  12.207
   27SAPE  H14Y 3540   1.832   2.954  12.184
   27SAPE  C315 3541   1.814   2.742  12.221
   27SAPE  H15X 3542   1.716   2.745  12.273
   27SAPE  H15Y 3543   1.874   2.660  12.266
   27SAPE  C316 3544   1.788   2.711  12.073
   27SAPE  H16X 3545   1.739   2.798  12.025
   27SAPE  H16Y 3546   1.716   2.626  12.067
   27SAPE  C317 3547   1.913   2.673  11.993
   27SAPE  H17X 3548   1.961   2.585  12.042
   27SAPE  H17Y 3549   1.986   2.757  11.998
   27SAPE  C318 3550   1.884   2.640  11.847
   27SAPE  H18X 3551   1.839   2.727  11.795
   27SAPE  H18Y 3552   1.814   2.554  11.840
   27SAPE  H18Z 3553   1.978   2.612  11.794
   28SAPE     N 3554   3.294   2.296  14.187
   28SAPE   HN1 3555   3.324   2.287  14.088
   28SAPE   HN2 3556   3.243   2.386  14.198
   28SAPE   HN3 3557   3.382   2.296  14.243
   28SAPE   C12 3558   3.210   2.177  14.225
   28SAPE  H12A 3559   3.130   2.168  14.148
   28SAPE  H12B 3560   3.163   2.197  14.323
   28SAPE   C11 3561   3.294   2.047  14.230
   28SAPE  H11A 3562   3.228   1.958  14.218
   28SAPE  H11B 3563   3.337   2.039  14.332
   28SAPE     P 3564   3.384   2.017  13.983
   28SAPE   O13 3565   3.501   2.079  13.918
   28SAPE   O14 3566   3.352   1.875  13.959
   28SAPE   O12 3567   3.403   2.044  14.138
   28SAPE   O11 3568   3.259   2.109  13.957
   28SAPE    C1 3569   3.225   2.158  13.828
   28SAPE    HA 3570   3.157   2.245  13.841
   28SAPE    HB 3571   3.313   2.194  13.771
   28SAPE    C2 3572   3.150   2.050  13.747
   28SAPE    HS 3573   3.099   1.986  13.822
   28SAPE   O21 3574   3.245   1.976  13.669
   28SAPE   C21 3575   3.215   1.849  13.650
   28SAPE   O22 3576   3.124   1.787  13.700
   28SAPE   C22 3577   3.309   1.792  13.544
   28SAPE   H2R 3578   3.413   1.805  13.581
   28SAPE   H2S 3579   3.288   1.683  13.533
   28SAPE    C3 3580   3.038   2.108  13.655
   28SAPE    HX 3581   2.959   2.153  13.720
   28SAPE    HY 3582   2.991   2.020  13.606
   28SAPE   O31 3583   3.084   2.197  13.550
   28SAPE   C31 3584   3.060   2.326  13.570
   28SAPE   O32 3585   3.024   2.376  13.675
   28SAPE   C32 3586   3.072   2.404  13.438
   28SAPE   H2X 3587   3.083   2.511  13.464
   28SAPE   H2Y 3588   2.975   2.390  13.385
   28SAPE   C23 3589   3.291   1.865  13.410
   28SAPE   H3R 3590   3.302   1.974  13.427
   28SAPE   H3S 3591   3.189   1.850  13.369
   28SAPE   C24 3592   3.397   1.826  13.305
   28SAPE   H4R 3593   3.496   1.820  13.354
   28SAPE   H4S 3594   3.401   1.910  13.232
   28SAPE   C25 3595   3.365   1.697  13.234
   28SAPE   H5R 3596   3.295   1.631  13.286
   28SAPE   C26 3597   3.415   1.658  13.115
   28SAPE   H6R 3598   3.384   1.561  13.075
   28SAPE   C27 3599   3.514   1.731  13.026
   28SAPE   H7R 3600   3.522   1.674  12.931
   28SAPE   H7S 3601   3.613   1.719  13.075
   28SAPE   C28 3602   3.501   1.877  12.990
   28SAPE   H8R 3603   3.594   1.934  13.003
   28SAPE   C29 3604   3.393   1.945  12.946
   28SAPE   H9R 3605   3.405   2.052  12.925
   28SAPE  C210 3606   3.254   1.894  12.919
   28SAPE  H10R 3607   3.250   1.783  12.927
   28SAPE  H10S 3608   3.226   1.917  12.815
   28SAPE  C211 3609   3.155   1.954  13.017
   28SAPE  H11R 3610   3.160   1.911  13.118
   28SAPE  C212 3611   3.066   2.053  12.992
   28SAPE  H12R 3612   3.003   2.087  13.075
   28SAPE  C213 3613   3.044   2.126  12.862
   28SAPE  H13R 3614   3.144   2.154  12.821
   28SAPE  H13S 3615   2.994   2.222  12.885
   28SAPE  C214 3616   2.963   2.052  12.758
   28SAPE  H14R 3617   2.891   1.979  12.797
   28SAPE  C215 3618   2.974   2.069  12.624
   28SAPE  H15R 3619   2.912   2.009  12.557
   28SAPE  C216 3620   3.070   2.164  12.557
   28SAPE  H16R 3621   3.164   2.110  12.532
   28SAPE  H16S 3622   3.098   2.246  12.626
   28SAPE  C217 3623   3.020   2.232  12.428
   28SAPE  H17R 3624   3.094   2.312  12.404
   28SAPE  H17S 3625   2.922   2.282  12.445
   28SAPE  C218 3626   3.012   2.138  12.307
   28SAPE  H18R 3627   2.926   2.069  12.321
   28SAPE  H18S 3628   3.104   2.075  12.303
   28SAPE  C219 3629   3.000   2.211  12.172
   28SAPE  H19R 3630   2.915   2.282  12.177
   28SAPE  H19S 3631   2.975   2.135  12.094
   28SAPE  C220 3632   3.127   2.285  12.128
   28SAPE  H20R 3633   3.114   2.329  12.027
   28SAPE  H20S 3634   3.214   2.216  12.126
   28SAPE  H20T 3635   3.150   2.368  12.199
   28SAPE   C33 3636   3.187   2.361  13.345
   28SAPE   H3X 3637   3.186   2.251  13.331
   28SAPE   H3Y 3638   3.284   2.389  13.391
   28SAPE   C34 3639   3.177   2.426  13.205
   28SAPE   H4X 3640   3.173   2.537  13.215
   28SAPE   H4Y 3641   3.082   2.393  13.158
   28SAPE   C35 3642   3.294   2.387  13.115
   28SAPE   H5X 3643   3.309   2.277  13.124
   28SAPE   H5Y 3644   3.387   2.435  13.151
   28SAPE   C36 3645   3.275   2.419  12.966
   28SAPE   H6X 3646   3.266   2.528  12.950
   28SAPE   H6Y 3647   3.180   2.372  12.932
   28SAPE   C37 3648   3.390   2.362  12.882
   28SAPE   H7X 3649   3.411   2.259  12.920
   28SAPE   H7Y 3650   3.482   2.422  12.900
   28SAPE   C38 3651   3.363   2.353  12.731
   28SAPE   H8X 3652   3.421   2.431  12.678
   28SAPE   H8Y 3653   3.255   2.374  12.714
   28SAPE   C39 3654   3.395   2.214  12.672
   28SAPE   H9X 3655   3.365   2.214  12.565
   28SAPE   H9Y 3656   3.335   2.137  12.724
   28SAPE  C310 3657   3.543   2.174  12.680
   28SAPE  H10X 3658   3.581   2.188  12.784
   28SAPE  H10Y 3659   3.601   2.242  12.614
   28SAPE  C311 3660   3.576   2.030  12.636
   28SAPE  H11X 3661   3.533   1.956  12.707
   28SAPE  H11Y 3662   3.687   2.020  12.640
   28SAPE  C312 3663   3.531   1.995  12.493
   28SAPE  H12X 3664   3.608   1.933  12.444
   28SAPE  H12Y 3665   3.522   2.089  12.434
   28SAPE  C313 3666   3.398   1.918  12.491
   28SAPE  H13X 3667   3.330   1.964  12.566
   28SAPE  H13Y 3668   3.415   1.813  12.523
   28SAPE  C314 3669   3.328   1.923  12.355
   28SAPE  H14X 3670   3.324   2.028  12.320
   28SAPE  H14Y 3671   3.223   1.888  12.369
   28SAPE  C315 3672   3.393   1.835  12.247
   28SAPE  H15X 3673   3.397   1.731  12.285
   28SAPE  H15Y 3674   3.497   1.868  12.227
   28SAPE  C316 3675   3.312   1.835  12.116
   28SAPE  H16X 3676   3.204   1.829  12.142
   28SAPE  H16Y 3677   3.337   1.745  12.056
   28SAPE  C317 3678   3.333   1.960  12.029
   28SAPE  H17X 3679   3.359   2.046  12.095
   28SAPE  H17Y 3680   3.238   1.984  11.979
   28SAPE  C318 3681   3.441   1.942  11.923
   28SAPE  H18X 3682   3.451   2.033  11.860
   28SAPE  H18Y 3683   3.414   1.857  11.856
   28SAPE  H18Z 3684   3.539   1.919  11.970
   29SAPE     N 3685   2.602   3.876  14.010
   29SAPE   HN1 3686   2.691   3.849  14.056
   29SAPE   HN2 3687   2.526   3.812  14.041
   29SAPE   HN3 3688   2.617   3.863  13.907
   29SAPE   C12 3689   2.569   4.019  14.042
   29SAPE  H12A 3690   2.470   4.020  14.092
   29SAPE  H12B 3691   2.562   4.075  13.947
   29SAPE   C11 3692   2.675   4.084  14.135
   29SAPE  H11A 3693   2.683   4.028  14.230
   29SAPE  H11B 3694   2.638   4.186  14.161
   29SAPE     P 3695   2.918   3.994  14.086
   29SAPE   O13 3696   3.011   4.041  14.191
   29SAPE   O14 3697   2.854   3.862  14.109
   29SAPE   O12 3698   2.800   4.098  14.069
   29SAPE   O11 3699   2.988   3.995  13.945
   29SAPE    C1 3700   2.966   4.098  13.849
   29SAPE    HA 3701   2.957   4.198  13.896
   29SAPE    HB 3702   3.054   4.103  13.780
   29SAPE    C2 3703   2.840   4.071  13.762
   29SAPE    HS 3704   2.755   4.057  13.833
   29SAPE   O21 3705   2.863   3.956  13.678
   29SAPE   C21 3706   2.759   3.875  13.666
   29SAPE   O22 3707   2.669   3.862  13.747
   29SAPE   C22 3708   2.760   3.813  13.526
   29SAPE   H2R 3709   2.655   3.801  13.494
   29SAPE   H2S 3710   2.808   3.887  13.458
   29SAPE    C3 3711   2.802   4.192  13.672
   29SAPE    HX 3712   2.897   4.224  13.623
   29SAPE    HY 3713   2.767   4.276  13.735
   29SAPE   O31 3714   2.700   4.151  13.577
   29SAPE   C31 3715   2.718   4.198  13.454
   29SAPE   O32 3716   2.796   4.285  13.423
   29SAPE   C32 3717   2.629   4.121  13.356
   29SAPE   H2X 3718   2.526   4.161  13.364
   29SAPE   H2Y 3719   2.627   4.014  13.384
   29SAPE   C23 3720   2.834   3.678  13.517
   29SAPE   H3R 3721   2.777   3.601  13.573
   29SAPE   H3S 3722   2.933   3.685  13.565
   29SAPE   C24 3723   2.851   3.632  13.370
   29SAPE   H4R 3724   2.752   3.635  13.319
   29SAPE   H4S 3725   2.885   3.526  13.371
   29SAPE   C25 3726   2.953   3.716  13.298
   29SAPE   H5R 3727   3.037   3.750  13.360
   29SAPE   C26 3728   2.952   3.754  13.169
   29SAPE   H6R 3729   3.035   3.817  13.133
   29SAPE   C27 3730   2.848   3.719  13.064
   29SAPE   H7R 3731   2.763   3.790  13.072
   29SAPE   H7S 3732   2.806   3.618  13.083
   29SAPE   C28 3733   2.904   3.726  12.924
   29SAPE   H8R 3734   3.006   3.766  12.914
   29SAPE   C29 3735   2.839   3.690  12.811
   29SAPE   H9R 3736   2.893   3.697  12.715
   29SAPE  C210 3737   2.699   3.635  12.804
   29SAPE  H10R 3738   2.641   3.666  12.893
   29SAPE  H10S 3739   2.705   3.524  12.808
   29SAPE  C211 3740   2.626   3.676  12.678
   29SAPE  H11R 3741   2.635   3.606  12.594
   29SAPE  C212 3742   2.553   3.788  12.661
   29SAPE  H12R 3743   2.507   3.807  12.563
   29SAPE  C213 3744   2.529   3.896  12.763
   29SAPE  H13R 3745   2.524   3.854  12.866
   29SAPE  H13S 3746   2.429   3.942  12.746
   29SAPE  C214 3747   2.637   4.001  12.760
   29SAPE  H14R 3748   2.727   3.974  12.817
   29SAPE  C215 3749   2.637   4.117  12.691
   29SAPE  H15R 3750   2.725   4.182  12.699
   29SAPE  C216 3751   2.528   4.168  12.600
   29SAPE  H16R 3752   2.486   4.262  12.641
   29SAPE  H16S 3753   2.444   4.096  12.593
   29SAPE  C217 3754   2.579   4.195  12.457
   29SAPE  H17R 3755   2.491   4.222  12.394
   29SAPE  H17S 3756   2.622   4.103  12.413
   29SAPE  C218 3757   2.682   4.310  12.449
   29SAPE  H18R 3758   2.780   4.272  12.485
   29SAPE  H18S 3759   2.650   4.392  12.517
   29SAPE  C219 3760   2.700   4.369  12.308
   29SAPE  H19R 3761   2.783   4.443  12.312
   29SAPE  H19S 3762   2.608   4.424  12.280
   29SAPE  C220 3763   2.729   4.266  12.199
   29SAPE  H20R 3764   2.821   4.209  12.223
   29SAPE  H20S 3765   2.743   4.316  12.101
   29SAPE  H20T 3766   2.645   4.194  12.189
   29SAPE   C33 3767   2.683   4.137  13.212
   29SAPE   H3X 3768   2.694   4.244  13.186
   29SAPE   H3Y 3769   2.611   4.093  13.140
   29SAPE   C34 3770   2.817   4.066  13.197
   29SAPE   H4X 3771   2.798   3.957  13.210
   29SAPE   H4Y 3772   2.888   4.096  13.278
   29SAPE   C35 3773   2.888   4.092  13.064
   29SAPE   H5X 3774   2.821   4.066  12.979
   29SAPE   H5Y 3775   2.976   4.026  13.059
   29SAPE   C36 3776   2.936   4.237  13.049
   29SAPE   H6X 3777   2.949   4.279  13.151
   29SAPE   H6Y 3778   2.860   4.299  12.998
   29SAPE   C37 3779   3.073   4.249  12.979
   29SAPE   H7X 3780   3.143   4.175  13.024
   29SAPE   H7Y 3781   3.112   4.350  13.002
   29SAPE   C38 3782   3.070   4.234  12.827
   29SAPE   H8X 3783   3.163   4.279  12.786
   29SAPE   H8Y 3784   2.984   4.292  12.788
   29SAPE   C39 3785   3.062   4.090  12.774
   29SAPE   H9X 3786   2.975   4.039  12.822
   29SAPE   H9Y 3787   3.154   4.034  12.801
   29SAPE  C310 3788   3.039   4.086  12.622
   29SAPE  H10X 3789   3.129   4.123  12.568
   29SAPE  H10Y 3790   2.955   4.156  12.599
   29SAPE  C311 3791   3.000   3.947  12.571
   29SAPE  H11X 3792   2.944   3.896  12.653
   29SAPE  H11Y 3793   3.091   3.886  12.550
   29SAPE  C312 3794   2.907   3.951  12.450
   29SAPE  H12X 3795   2.958   3.999  12.363
   29SAPE  H12Y 3796   2.819   4.014  12.476
   29SAPE  C313 3797   2.856   3.811  12.411
   29SAPE  H13X 3798   2.835   3.755  12.505
   29SAPE  H13Y 3799   2.936   3.757  12.357
   29SAPE  C314 3800   2.726   3.813  12.328
   29SAPE  H14X 3801   2.647   3.864  12.388
   29SAPE  H14Y 3802   2.693   3.708  12.311
   29SAPE  C315 3803   2.738   3.884  12.193
   29SAPE  H15X 3804   2.765   3.990  12.209
   29SAPE  H15Y 3805   2.639   3.882  12.143
   29SAPE  C316 3806   2.842   3.819  12.100
   29SAPE  H16X 3807   2.943   3.834  12.144
   29SAPE  H16Y 3808   2.823   3.710  12.096
   29SAPE  C317 3809   2.840   3.876  11.958
   29SAPE  H17X 3810   2.738   3.865  11.916
   29SAPE  H17Y 3811   2.908   3.814  11.895
   29SAPE  C318 3812   2.884   4.022  11.948
   29SAPE  H18X 3813   2.895   4.052  11.841
   29SAPE  H18Y 3814   2.981   4.037  11.999
   29SAPE  H18Z 3815   2.809   4.089  11.995
   30SAPE     N 3816   3.587   4.306  13.940
   30SAPE   HN1 3817   3.645   4.269  14.018
   30SAPE   HN2 3818   3.644   4.311  13.853
   30SAPE   HN3 3819   3.555   4.402  13.965
   30SAPE   C12 3820   3.463   4.220  13.933
   30SAPE  H12A 3821   3.429   4.215  13.827
   30SAPE  H12B 3822   3.385   4.271  13.993
   30SAPE   C11 3823   3.487   4.081  13.993
   30SAPE  H11A 3824   3.536   4.016  13.917
   30SAPE  H11B 3825   3.389   4.034  14.016
   30SAPE     P 3826   3.677   3.990  14.152
   30SAPE   O13 3827   3.765   4.056  14.251
   30SAPE   O14 3828   3.616   3.861  14.190
   30SAPE   O12 3829   3.564   4.093  14.114
   30SAPE   O11 3830   3.755   3.973  14.017
   30SAPE    C1 3831   3.891   3.928  14.015
   30SAPE    HA 3832   3.957   4.016  13.996
   30SAPE    HB 3833   3.923   3.883  14.111
   30SAPE    C2 3834   3.915   3.821  13.904
   30SAPE    HS 3835   4.023   3.794  13.906
   30SAPE   O21 3836   3.878   3.869  13.775
   30SAPE   C21 3837   3.954   3.962  13.722
   30SAPE   O22 3838   4.057   4.005  13.771
   30SAPE   C22 3839   3.897   4.003  13.587
   30SAPE   H2R 3840   3.981   4.046  13.528
   30SAPE   H2S 3841   3.859   3.913  13.535
   30SAPE    C3 3842   3.834   3.691  13.929
   30SAPE    HX 3843   3.726   3.713  13.917
   30SAPE    HY 3844   3.848   3.661  14.035
   30SAPE   O31 3845   3.883   3.586  13.842
   30SAPE   C31 3846   3.823   3.580  13.722
   30SAPE   O32 3847   3.720   3.636  13.693
   30SAPE   C32 3848   3.906   3.492  13.629
   30SAPE   H2X 3849   3.887   3.387  13.659
   30SAPE   H2Y 3850   4.014   3.514  13.642
   30SAPE   C23 3851   3.784   4.108  13.601
   30SAPE   H3R 3852   3.754   4.142  13.499
   30SAPE   H3S 3853   3.824   4.195  13.656
   30SAPE   C24 3854   3.658   4.059  13.675
   30SAPE   H4R 3855   3.593   4.148  13.688
   30SAPE   H4S 3856   3.689   4.026  13.776
   30SAPE   C25 3857   3.584   3.948  13.605
   30SAPE   H5R 3858   3.640   3.853  13.599
   30SAPE   C26 3859   3.460   3.954  13.552
   30SAPE   H6R 3860   3.420   3.865  13.502
   30SAPE   C27 3861   3.366   4.073  13.550
   30SAPE   H7R 3862   3.332   4.094  13.654
   30SAPE   H7S 3863   3.274   4.043  13.496
   30SAPE   C28 3864   3.416   4.201  13.487
   30SAPE   H8R 3865   3.418   4.289  13.554
   30SAPE   C29 3866   3.457   4.220  13.361
   30SAPE   H9R 3867   3.489   4.321  13.331
   30SAPE  C210 3868   3.463   4.116  13.251
   30SAPE  H10R 3869   3.411   4.022  13.282
   30SAPE  H10S 3870   3.569   4.089  13.232
   30SAPE  C211 3871   3.399   4.168  13.125
   30SAPE  H11R 3872   3.334   4.257  13.137
   30SAPE  C212 3873   3.414   4.117  13.001
   30SAPE  H12R 3874   3.362   4.167  12.918
   30SAPE  C213 3875   3.497   3.998  12.962
   30SAPE  H13R 3876   3.431   3.923  12.913
   30SAPE  H13S 3877   3.539   3.946  13.051
   30SAPE  C214 3878   3.610   4.035  12.869
   30SAPE  H14R 3879   3.711   4.028  12.913
   30SAPE  C215 3880   3.598   4.077  12.741
   30SAPE  H15R 3881   3.690   4.102  12.685
   30SAPE  C216 3882   3.469   4.094  12.666
   30SAPE  H16R 3883   3.431   4.198  12.679
   30SAPE  H16S 3884   3.390   4.026  12.705
   30SAPE  C217 3885   3.483   4.068  12.514
   30SAPE  H17R 3886   3.382   4.074  12.469
   30SAPE  H17S 3887   3.521   3.965  12.496
   30SAPE  C218 3888   3.573   4.171  12.443
   30SAPE  H18R 3889   3.679   4.155  12.473
   30SAPE  H18S 3890   3.543   4.272  12.478
   30SAPE  C219 3891   3.563   4.166  12.290
   30SAPE  H19R 3892   3.617   4.254  12.249
   30SAPE  H19S 3893   3.456   4.176  12.261
   30SAPE  C220 3894   3.621   4.039  12.229
   30SAPE  H20R 3895   3.572   3.948  12.271
   30SAPE  H20S 3896   3.730   4.032  12.250
   30SAPE  H20T 3897   3.607   4.038  12.119
   30SAPE   C33 3898   3.864   3.510  13.481
   30SAPE   H3X 3899   3.754   3.515  13.473
   30SAPE   H3Y 3900   3.898   3.421  13.424
   30SAPE   C34 3901   3.927   3.633  13.412
   30SAPE   H4X 3902   4.032   3.608  13.386
   30SAPE   H4Y 3903   3.930   3.719  13.483
   30SAPE   C35 3904   3.849   3.673  13.286
   30SAPE   H5X 3905   3.764   3.740  13.314
   30SAPE   H5Y 3906   3.804   3.581  13.245
   30SAPE   C36 3907   3.933   3.737  13.174
   30SAPE   H6X 3908   4.027   3.680  13.163
   30SAPE   H6Y 3909   3.960   3.841  13.202
   30SAPE   C37 3910   3.859   3.735  13.039
   30SAPE   H7X 3911   3.761   3.786  13.051
   30SAPE   H7Y 3912   3.838   3.630  13.012
   30SAPE   C38 3913   3.936   3.801  12.923
   30SAPE   H8X 3914   4.039   3.759  12.918
   30SAPE   H8Y 3915   3.945   3.910  12.944
   30SAPE   C39 3916   3.866   3.780  12.788
   30SAPE   H9X 3917   3.757   3.796  12.803
   30SAPE   H9Y 3918   3.879   3.675  12.755
   30SAPE  C310 3919   3.913   3.876  12.677
   30SAPE  H10X 3920   4.019   3.856  12.650
   30SAPE  H10Y 3921   3.908   3.979  12.717
   30SAPE  C311 3922   3.824   3.869  12.551
   30SAPE  H11X 3923   3.826   3.967  12.498
   30SAPE  H11Y 3924   3.719   3.853  12.584
   30SAPE  C312 3925   3.863   3.759  12.451
   30SAPE  H12X 3926   3.770   3.714  12.409
   30SAPE  H12Y 3927   3.918   3.679  12.505
   30SAPE  C313 3928   3.949   3.808  12.334
   30SAPE  H13X 3929   4.047   3.844  12.374
   30SAPE  H13Y 3930   3.898   3.894  12.286
   30SAPE  C314 3931   3.974   3.701  12.227
   30SAPE  H14X 3932   3.876   3.669  12.186
   30SAPE  H14Y 3933   4.021   3.612  12.274
   30SAPE  C315 3934   4.063   3.751  12.112
   30SAPE  H15X 3935   4.154   3.797  12.155
   30SAPE  H15Y 3936   4.009   3.830  12.056
   30SAPE  C316 3937   4.106   3.639  12.015
   30SAPE  H16X 3938   4.169   3.567  12.071
   30SAPE  H16Y 3939   4.169   3.684  11.935
   30SAPE  C317 3940   3.991   3.562  11.949
   30SAPE  H17X 3941   3.930   3.514  12.028
   30SAPE  H17Y 3942   4.035   3.480  11.888
   30SAPE  C318 3943   3.902   3.647  11.860
   30SAPE  H18X 3944   3.827   3.584  11.808
   30SAPE  H18Y 3945   3.962   3.700  11.783
   30SAPE  H18Z 3946   3.847   3.723  11.920
   31SAPE     N 3947   4.580   2.991  14.014
   31SAPE   HN1 3948   4.624   2.940  13.935
   31SAPE   HN2 3949   4.622   3.085  14.027
   31SAPE   HN3 3950   4.597   2.935  14.100
   31SAPE   C12 3951   4.430   3.002  13.999
   31SAPE  H12A 3952   4.411   3.064  13.908
   31SAPE  H12B 3953   4.391   3.057  14.087
   31SAPE   C11 3954   4.358   2.865  13.987
   31SAPE  H11A 3955   4.396   2.808  13.900
   31SAPE  H11B 3956   4.251   2.887  13.964
   31SAPE     P 3957   4.495   2.714  14.153
   31SAPE   O13 3958   4.575   2.815  14.227
   31SAPE   O14 3959   4.466   2.585  14.219
   31SAPE   O12 3960   4.361   2.787  14.108
   31SAPE   O11 3961   4.568   2.695  14.016
   31SAPE    C1 3962   4.610   2.567  13.973
   31SAPE    HA 3963   4.649   2.505  14.057
   31SAPE    HB 3964   4.525   2.512  13.927
   31SAPE    C2 3965   4.724   2.578  13.870
   31SAPE    HS 3966   4.807   2.639  13.912
   31SAPE   O21 3967   4.675   2.633  13.747
   31SAPE   C21 3968   4.684   2.762  13.729
   31SAPE   O22 3969   4.712   2.846  13.813
   31SAPE   C22 3970   4.654   2.791  13.582
   31SAPE   H2R 3971   4.679   2.702  13.521
   31SAPE   H2S 3972   4.544   2.809  13.576
   31SAPE    C3 3973   4.782   2.437  13.839
   31SAPE    HX 3974   4.849   2.409  13.923
   31SAPE    HY 3975   4.845   2.445  13.748
   31SAPE   O31 3976   4.677   2.338  13.828
   31SAPE   C31 3977   4.629   2.315  13.705
   31SAPE   O32 3978   4.674   2.358  13.601
   31SAPE   C32 3979   4.509   2.221  13.718
   31SAPE   H2X 3980   4.484   2.206  13.825
   31SAPE   H2Y 3981   4.539   2.124  13.673
   31SAPE   C23 3982   4.729   2.915  13.528
   31SAPE   H3R 3983   4.838   2.898  13.539
   31SAPE   H3S 3984   4.699   3.003  13.591
   31SAPE   C24 3985   4.697   2.943  13.380
   31SAPE   H4R 3986   4.589   2.919  13.365
   31SAPE   H4S 3987   4.753   2.870  13.318
   31SAPE   C25 3988   4.722   3.085  13.336
   31SAPE   H5R 3989   4.707   3.161  13.414
   31SAPE   C26 3990   4.751   3.126  13.211
   31SAPE   H6R 3991   4.765   3.234  13.192
   31SAPE   C27 3992   4.764   3.038  13.089
   31SAPE   H7R 3993   4.711   3.087  13.005
   31SAPE   H7S 3994   4.710   2.942  13.105
   31SAPE   C28 3995   4.907   3.013  13.049
   31SAPE   H8R 3996   4.970   3.103  13.039
   31SAPE   C29 3997   4.963   2.892  13.024
   31SAPE   H9R 3998   5.069   2.888  12.995
   31SAPE  C210 3999   4.894   2.758  13.031
   31SAPE  H10R 4000   4.941   2.690  12.958
   31SAPE  H10S 4001   4.788   2.769  12.997
   31SAPE  C211 4002   4.900   2.695  13.168
   31SAPE  H11R 4003   4.988   2.721  13.229
   31SAPE  C212 4004   4.808   2.613  13.223
   31SAPE  H12R 4005   4.825   2.574  13.324
   31SAPE  C213 4006   4.681   2.567  13.156
   31SAPE  H13R 4007   4.685   2.585  13.047
   31SAPE  H13S 4008   4.596   2.631  13.192
   31SAPE  C214 4009   4.649   2.423  13.184
   31SAPE  H14R 4010   4.595   2.404  13.278
   31SAPE  C215 4011   4.683   2.318  13.106
   31SAPE  H15R 4012   4.654   2.217  13.137
   31SAPE  C216 4013   4.761   2.327  12.977
   31SAPE  H16R 4014   4.810   2.230  12.955
   31SAPE  H16S 4015   4.843   2.402  12.987
   31SAPE  C217 4016   4.675   2.368  12.856
   31SAPE  H17R 4017   4.629   2.467  12.874
   31SAPE  H17S 4018   4.593   2.295  12.842
   31SAPE  C218 4019   4.759   2.376  12.727
   31SAPE  H18R 4020   4.788   2.273  12.697
   31SAPE  H18S 4021   4.851   2.434  12.748
   31SAPE  C219 4022   4.685   2.444  12.611
   31SAPE  H19R 4023   4.752   2.446  12.522
   31SAPE  H19S 4024   4.666   2.550  12.639
   31SAPE  C220 4025   4.553   2.378  12.574
   31SAPE  H20R 4026   4.568   2.270  12.549
   31SAPE  H20S 4027   4.506   2.428  12.486
   31SAPE  H20T 4028   4.482   2.383  12.659
   31SAPE   C33 4029   4.385   2.277  13.644
   31SAPE   H3X 4030   4.304   2.202  13.658
   31SAPE   H3Y 4031   4.404   2.285  13.535
   31SAPE   C34 4032   4.333   2.410  13.701
   31SAPE   H4X 4033   4.363   2.418  13.807
   31SAPE   H4Y 4034   4.222   2.409  13.700
   31SAPE   C35 4035   4.381   2.534  13.623
   31SAPE   H5X 4036   4.491   2.529  13.609
   31SAPE   H5Y 4037   4.360   2.625  13.684
   31SAPE   C36 4038   4.315   2.552  13.485
   31SAPE   H6X 4039   4.207   2.573  13.500
   31SAPE   H6Y 4040   4.325   2.459  13.425
   31SAPE   C37 4041   4.375   2.668  13.405
   31SAPE   H7X 4042   4.480   2.643  13.379
   31SAPE   H7Y 4043   4.377   2.757  13.472
   31SAPE   C38 4044   4.297   2.708  13.279
   31SAPE   H8X 4045   4.354   2.789  13.229
   31SAPE   H8Y 4046   4.198   2.750  13.308
   31SAPE   C39 4047   4.275   2.596  13.176
   31SAPE   H9X 4048   4.200   2.524  13.214
   31SAPE   H9Y 4049   4.371   2.541  13.163
   31SAPE  C310 4050   4.231   2.654  13.040
   31SAPE  H10X 4051   4.221   2.764  13.050
   31SAPE  H10Y 4052   4.130   2.615  13.013
   31SAPE  C311 4053   4.330   2.623  12.927
   31SAPE  H11X 4054   4.320   2.517  12.896
   31SAPE  H11Y 4055   4.433   2.637  12.966
   31SAPE  C312 4056   4.314   2.716  12.806
   31SAPE  H12X 4057   4.325   2.822  12.840
   31SAPE  H12Y 4058   4.212   2.705  12.762
   31SAPE  C313 4059   4.420   2.689  12.699
   31SAPE  H13X 4060   4.403   2.587  12.657
   31SAPE  H13Y 4061   4.520   2.690  12.747
   31SAPE  C314 4062   4.419   2.790  12.583
   31SAPE  H14X 4063   4.424   2.893  12.626
   31SAPE  H14Y 4064   4.323   2.781  12.529
   31SAPE  C315 4065   4.535   2.773  12.483
   31SAPE  H15X 4066   4.508   2.827  12.390
   31SAPE  H15Y 4067   4.546   2.666  12.458
   31SAPE  C316 4068   4.668   2.830  12.535
   31SAPE  H16X 4069   4.696   2.781  12.630
   31SAPE  H16Y 4070   4.655   2.939  12.556
   31SAPE  C317 4071   4.782   2.813  12.434
   31SAPE  H17X 4072   4.750   2.855  12.336
   31SAPE  H17Y 4073   4.800   2.704  12.419
   31SAPE  C318 4074   4.913   2.880  12.477
   31SAPE  H18X 4075   4.992   2.864  12.400
   31SAPE  H18Y 4076   4.948   2.838  12.573
   31SAPE  H18Z 4077   4.898   2.989  12.490
   32SAPE     N 4078   3.908   0.831  13.932
   32SAPE   HN1 4079   3.994   0.774  13.933
   32SAPE   HN2 4080   3.834   0.775  13.883
   32SAPE   HN3 4081   3.929   0.918  13.880
   32SAPE   C12 4082   3.869   0.856  14.075
   32SAPE  H12A 4083   3.763   0.891  14.076
   32SAPE  H12B 4084   3.934   0.937  14.114
   32SAPE   C11 4085   3.887   0.729  14.158
   32SAPE  H11A 4086   3.827   0.645  14.116
   32SAPE  H11B 4087   3.845   0.749  14.259
   32SAPE     P 4088   4.100   0.588  14.088
   32SAPE   O13 4089   4.230   0.558  14.152
   32SAPE   O14 4090   4.008   0.475  14.064
   32SAPE   O12 4091   4.025   0.697  14.173
   32SAPE   O11 4092   4.118   0.668  13.952
   32SAPE    C1 4093   4.096   0.600  13.827
   32SAPE    HA 4094   4.151   0.504  13.824
   32SAPE    HB 4095   3.988   0.578  13.813
   32SAPE    C2 4096   4.146   0.683  13.705
   32SAPE    HS 4097   4.256   0.690  13.716
   32SAPE   O21 4098   4.086   0.815  13.704
   32SAPE   C21 4099   4.145   0.895  13.614
   32SAPE   O22 4100   4.252   0.874  13.561
   32SAPE   C22 4101   4.054   1.013  13.583
   32SAPE   H2R 4102   3.955   0.998  13.631
   32SAPE   H2S 4103   4.102   1.103  13.628
   32SAPE    C3 4104   4.114   0.609  13.571
   32SAPE    HX 4105   4.154   0.506  13.580
   32SAPE    HY 4106   4.168   0.660  13.489
   32SAPE   O31 4107   3.972   0.601  13.546
   32SAPE   C31 4108   3.948   0.548  13.425
   32SAPE   O32 4109   4.034   0.522  13.343
   32SAPE   C32 4110   3.800   0.512  13.414
   32SAPE   H2X 4111   3.759   0.501  13.516
   32SAPE   H2Y 4112   3.794   0.412  13.365
   32SAPE   C23 4113   4.037   1.036  13.431
   32SAPE   H3R 4114   4.136   1.045  13.381
   32SAPE   H3S 4115   3.987   1.134  13.419
   32SAPE   C24 4116   3.953   0.926  13.362
   32SAPE   H4R 4117   3.884   0.882  13.437
   32SAPE   H4S 4118   4.022   0.844  13.333
   32SAPE   C25 4119   3.873   0.978  13.246
   32SAPE   H5R 4120   3.783   1.034  13.274
   32SAPE   C26 4121   3.900   0.963  13.114
   32SAPE   H6R 4122   3.831   1.008  13.041
   32SAPE   C27 4123   4.017   0.891  13.053
   32SAPE   H7R 4124   3.985   0.843  12.958
   32SAPE   H7S 4125   4.049   0.806  13.118
   32SAPE   C28 4126   4.135   0.982  13.034
   32SAPE   H8R 4127   4.170   1.033  13.125
   32SAPE   C29 4128   4.199   1.006  12.918
   32SAPE   H9R 4129   4.284   1.076  12.918
   32SAPE  C210 4130   4.167   0.947  12.783
   32SAPE  H10R 4131   4.207   1.014  12.704
   32SAPE  H10S 4132   4.057   0.948  12.768
   32SAPE  C211 4133   4.221   0.809  12.759
   32SAPE  H11R 4134   4.307   0.779  12.822
   32SAPE  C212 4135   4.174   0.721  12.667
   32SAPE  H12R 4136   4.223   0.623  12.659
   32SAPE  C213 4137   4.059   0.743  12.572
   32SAPE  H13R 4138   3.965   0.751  12.631
   32SAPE  H13S 4139   4.046   0.651  12.512
   32SAPE  C214 4140   4.065   0.862  12.478
   32SAPE  H14R 4141   4.000   0.946  12.506
   32SAPE  C215 4142   4.140   0.873  12.367
   32SAPE  H15R 4143   4.134   0.965  12.307
   32SAPE  C216 4144   4.236   0.770  12.313
   32SAPE  H16R 4145   4.196   0.725  12.219
   32SAPE  H16S 4146   4.248   0.687  12.385
   32SAPE  C217 4147   4.377   0.825  12.283
   32SAPE  H17R 4148   4.442   0.737  12.265
   32SAPE  H17S 4149   4.417   0.878  12.372
   32SAPE  C218 4150   4.388   0.915  12.159
   32SAPE  H18R 4151   4.346   1.015  12.182
   32SAPE  H18S 4152   4.328   0.870  12.077
   32SAPE  C219 4153   4.533   0.930  12.112
   32SAPE  H19R 4154   4.573   0.828  12.090
   32SAPE  H19S 4155   4.593   0.972  12.196
   32SAPE  C220 4156   4.551   1.017  11.988
   32SAPE  H20R 4157   4.491   0.979  11.904
   32SAPE  H20S 4158   4.658   1.019  11.957
   32SAPE  H20T 4159   4.520   1.122  12.010
   32SAPE   C33 4160   3.718   0.613  13.331
   32SAPE   H3X 4161   3.718   0.713  13.381
   32SAPE   H3Y 4162   3.613   0.578  13.328
   32SAPE   C34 4163   3.767   0.629  13.186
   32SAPE   H4X 4164   3.864   0.683  13.186
   32SAPE   H4Y 4165   3.693   0.693  13.134
   32SAPE   C35 4166   3.786   0.497  13.109
   32SAPE   H5X 4167   3.692   0.438  13.113
   32SAPE   H5Y 4168   3.865   0.438  13.159
   32SAPE   C36 4169   3.830   0.517  12.963
   32SAPE   H6X 4170   3.867   0.419  12.927
   32SAPE   H6Y 4171   3.915   0.588  12.957
   32SAPE   C37 4172   3.716   0.560  12.869
   32SAPE   H7X 4173   3.619   0.520  12.907
   32SAPE   H7Y 4174   3.734   0.515  12.770
   32SAPE   C38 4175   3.705   0.712  12.849
   32SAPE   H8X 4176   3.799   0.748  12.801
   32SAPE   H8Y 4177   3.695   0.766  12.946
   32SAPE   C39 4178   3.585   0.747  12.760
   32SAPE   H9X 4179   3.491   0.715  12.808
   32SAPE   H9Y 4180   3.597   0.688  12.667
   32SAPE  C310 4181   3.578   0.897  12.727
   32SAPE  H10X 4182   3.681   0.935  12.709
   32SAPE  H10Y 4183   3.539   0.951  12.816
   32SAPE  C311 4184   3.490   0.931  12.605
   32SAPE  H11X 4185   3.498   1.039  12.584
   32SAPE  H11Y 4186   3.385   0.909  12.631
   32SAPE  C312 4187   3.524   0.852  12.476
   32SAPE  H12X 4188   3.458   0.885  12.393
   32SAPE  H12Y 4189   3.498   0.746  12.494
   32SAPE  C313 4190   3.670   0.865  12.429
   32SAPE  H13X 4191   3.738   0.875  12.516
   32SAPE  H13Y 4192   3.681   0.957  12.368
   32SAPE  C314 4193   3.719   0.742  12.349
   32SAPE  H14X 4194   3.821   0.765  12.310
   32SAPE  H14Y 4195   3.653   0.724  12.263
   32SAPE  C315 4196   3.728   0.616  12.436
   32SAPE  H15X 4197   3.626   0.583  12.465
   32SAPE  H15Y 4198   3.783   0.640  12.530
   32SAPE  C316 4199   3.798   0.499  12.367
   32SAPE  H16X 4200   3.902   0.529  12.342
   32SAPE  H16Y 4201   3.745   0.474  12.273
   32SAPE  C317 4202   3.805   0.374  12.456
   32SAPE  H17X 4203   3.702   0.350  12.492
   32SAPE  H17Y 4204   3.867   0.396  12.545
   32SAPE  C318 4205   3.861   0.252  12.383
   32SAPE  H18X 4206   3.795   0.225  12.298
   32SAPE  H18Y 4207   3.869   0.166  12.452
   32SAPE  H18Z 4208   3.962   0.274  12.342
   33SAPE     N 4209   4.785   3.270  13.671
   33SAPE   HN1 4210   4.793   3.360  13.620
   33SAPE   HN2 4211   4.855   3.203  13.634
   33SAPE   HN3 4212   4.689   3.233  13.659
   33SAPE   C12 4213   4.810   3.293  13.818
   33SAPE  H12A 4214   4.798   3.195  13.869
   33SAPE  H12B 4215   4.732   3.363  13.854
   33SAPE   C11 4216   4.951   3.348  13.848
   33SAPE  H11A 4217   4.966   3.446  13.799
   33SAPE  H11B 4218   5.027   3.279  13.806
   33SAPE     P 4219   4.930   3.482  14.075
   33SAPE   O13 4220   4.782   3.493  14.072
   33SAPE   O14 4221   4.994   3.479  14.208
   33SAPE   O12 4222   4.972   3.356  13.990
   33SAPE   O11 4223   4.993   3.601  13.992
   33SAPE    C1 4224   5.137   3.606  13.985
   33SAPE    HA 4225   5.183   3.607  14.086
   33SAPE    HB 4226   5.177   3.519  13.929
   33SAPE    C2 4227   5.188   3.733  13.912
   33SAPE    HS 4228   5.160   3.822  13.973
   33SAPE   O21 4229   5.132   3.738  13.779
   33SAPE   C21 4230   5.019   3.803  13.766
   33SAPE   O22 4231   4.970   3.882  13.846
   33SAPE   C22 4232   4.959   3.763  13.632
   33SAPE   H2R 4233   5.041   3.758  13.558
   33SAPE   H2S 4234   4.916   3.662  13.644
   33SAPE    C3 4235   0.152   3.732  13.900
   33SAPE    HX 4236   0.194   3.712  14.000
   33SAPE    HY 4237   0.185   3.835  13.872
   33SAPE   O31 4238   0.195   3.629  13.808
   33SAPE   C31 4239   0.241   3.672  13.691
   33SAPE   O32 4240   0.277   3.785  13.666
   33SAPE   C32 4241   0.238   3.559  13.588
   33SAPE   H2X 4242   0.202   3.465  13.636
   33SAPE   H2Y 4243   0.342   3.543  13.553
   33SAPE   C23 4244   4.850   3.861  13.582
   33SAPE   H3R 4245   4.892   3.963  13.571
   33SAPE   H3S 4246   4.769   3.867  13.658
   33SAPE   C24 4247   4.786   3.816  13.449
   33SAPE   H4R 4248   4.707   3.889  13.422
   33SAPE   H4S 4249   4.735   3.719  13.465
   33SAPE   C25 4250   4.887   3.810  13.337
   33SAPE   H5R 4251   4.945   3.902  13.322
   33SAPE   C26 4252   4.911   3.706  13.255
   33SAPE   H6R 4253   4.986   3.718  13.175
   33SAPE   C27 4254   4.843   3.570  13.255
   33SAPE   H7R 4255   4.785   3.553  13.348
   33SAPE   H7S 4256   4.920   3.490  13.252
   33SAPE   C28 4257   4.751   3.558  13.136
   33SAPE   H8R 4258   4.645   3.579  13.157
   33SAPE   C29 4259   4.786   3.527  13.010
   33SAPE   H9R 4260   4.708   3.528  12.932
   33SAPE  C210 4261   4.925   3.497  12.958
   33SAPE  H10R 4262   4.994   3.471  13.041
   33SAPE  H10S 4263   4.967   3.591  12.915
   33SAPE  C211 4264   4.929   3.389  12.854
   33SAPE  H11R 4265   4.961   3.290  12.890
   33SAPE  C212 4266   4.897   3.402  12.723
   33SAPE  H12R 4267   4.906   3.314  12.657
   33SAPE  C213 4268   4.851   3.529  12.656
   33SAPE  H13R 4269   4.939   3.580  12.611
   33SAPE  H13S 4270   4.810   3.601  12.730
   33SAPE  C214 4271   4.747   3.506  12.548
   33SAPE  H14R 4272   4.691   3.412  12.554
   33SAPE  C215 4273   4.718   3.593  12.450
   33SAPE  H15R 4274   4.641   3.566  12.375
   33SAPE  C216 4275   4.782   3.728  12.429
   33SAPE  H16R 4276   4.820   3.769  12.526
   33SAPE  H16S 4277   4.708   3.802  12.392
   33SAPE  C217 4278   4.902   3.723  12.331
   33SAPE  H17R 4279   4.975   3.648  12.368
   33SAPE  H17S 4280   4.954   3.821  12.334
   33SAPE  C218 4281   4.865   3.689  12.186
   33SAPE  H18R 4282   4.810   3.592  12.183
   33SAPE  H18S 4283   4.959   3.675  12.129
   33SAPE  C219 4284   4.782   3.796  12.113
   33SAPE  H19R 4285   4.683   3.807  12.163
   33SAPE  H19S 4286   4.762   3.760  12.010
   33SAPE  C220 4287   4.849   3.934  12.104
   33SAPE  H20R 4288   4.951   3.925  12.061
   33SAPE  H20S 4289   4.857   3.980  12.205
   33SAPE  H20T 4290   4.789   4.002  12.039
   33SAPE   C33 4291   0.147   3.597  13.469
   33SAPE   H3X 4292   0.178   3.695  13.427
   33SAPE   H3Y 4293   0.042   3.608  13.505
   33SAPE   C34 4294   0.150   3.493  13.356
   33SAPE   H4X 4295   0.132   3.394  13.401
   33SAPE   H4Y 4296   0.252   3.491  13.312
   33SAPE   C35 4297   0.046   3.518  13.246
   33SAPE   H5X 4298   5.137   3.528  13.295
   33SAPE   H5Y 4299   0.041   3.430  13.179
   33SAPE   C36 4300   0.072   3.641  13.158
   33SAPE   H6X 4301   0.068   3.734  13.219
   33SAPE   H6Y 4302   5.181   3.648  13.084
   33SAPE   C37 4303   0.206   3.635  13.082
   33SAPE   H7X 4304   0.247   3.531  13.087
   33SAPE   H7Y 4305   0.279   3.701  13.134
   33SAPE   C38 4306   0.195   3.675  12.934
   33SAPE   H8X 4307   0.297   3.692  12.895
   33SAPE   H8Y 4308   0.139   3.770  12.924
   33SAPE   C39 4309   0.128   3.568  12.847
   33SAPE   H9X 4310   0.019   3.563  12.871
   33SAPE   H9Y 4311   0.171   3.468  12.871
   33SAPE  C310 4312   0.146   3.595  12.697
   33SAPE  H10X 4313   0.255   3.589  12.673
   33SAPE  H10Y 4314   0.112   3.697  12.673
   33SAPE  C311 4315   0.071   3.495  12.609
   33SAPE  H11X 4316   5.153   3.511  12.622
   33SAPE  H11Y 4317   0.093   3.391  12.642
   33SAPE  C312 4318   0.107   3.509  12.461
   33SAPE  H12X 4319   0.214   3.479  12.448
   33SAPE  H12Y 4320   0.098   3.615  12.430
   33SAPE  C313 4321   0.020   3.423  12.368
   33SAPE  H13X 4322   5.109   3.465  12.364
   33SAPE  H13Y 4323   0.012   3.320  12.409
   33SAPE  C314 4324   0.079   3.416  12.227
   33SAPE  H14X 4325   0.180   3.371  12.232
   33SAPE  H14Y 4326   0.091   3.519  12.188
   33SAPE  C315 4327   5.185   3.333  12.129
   33SAPE  H15X 4328   5.085   3.379  12.118
   33SAPE  H15Y 4329   5.170   3.232  12.172
   33SAPE  C316 4330   0.061   3.319  11.992
   33SAPE  H16X 4331   0.168   3.295  12.006
   33SAPE  H16Y 4332   0.056   3.417  11.938
   33SAPE  C317 4333   5.190   3.211  11.903
   33SAPE  H17X 4334   0.012   3.112  11.953
   33SAPE  H17Y 4335   0.056   3.207  11.808
   33SAPE  C318 4336   5.042   3.231  11.870
   33SAPE  H18X 4337   5.007   3.151  11.801
   33SAPE  H18Y 4338   5.026   3.329  11.820
   33SAPE  H18Z 4339   4.980   3.227  11.962
   34SAPE     N 4340   1.076   3.419  10.079
   34SAPE   HN1 4341   0.987   3.453  10.038
   34SAPE   HN2 4342   1.112   3.343  10.017
   34SAPE   HN3 4343   1.056   3.378  10.172
   34SAPE   C12 4344   1.183   3.525  10.082
   34SAPE  H12A 4345   1.267   3.486  10.143
   34SAPE  H12B 4346   1.142   3.616  10.131
   34SAPE   C11 4347   1.232   3.557   9.940
   34SAPE  H11A 4348   1.330   3.609   9.944
   34SAPE  H11B 4349   1.161   3.628   9.894
   34SAPE     P 4350   1.340   3.323   9.881
   34SAPE   O13 4351   1.258   3.214   9.938
   34SAPE   O14 4352   1.410   3.299   9.754
   34SAPE   O12 4353   1.239   3.441   9.857
   34SAPE   O11 4354   1.437   3.380   9.991
   34SAPE    C1 4355   1.564   3.320  10.019
   34SAPE    HA 4356   1.589   3.237   9.950
   34SAPE    HB 4357   1.644   3.397  10.005
   34SAPE    C2 4358   1.574   3.266  10.165
   34SAPE    HS 4359   1.668   3.207  10.173
   34SAPE   O21 4360   1.459   3.187  10.198
   34SAPE   C21 4361   1.462   3.066  10.145
   34SAPE   O22 4362   1.554   3.016  10.082
   34SAPE   C22 4363   1.331   2.993  10.176
   34SAPE   H2R 4364   1.252   3.069  10.197
   34SAPE   H2S 4365   1.305   2.941  10.082
   34SAPE    C3 4366   1.587   3.383  10.268
   34SAPE    HX 4367   1.514   3.461  10.237
   34SAPE    HY 4368   1.688   3.429  10.258
   34SAPE   O31 4369   1.560   3.348  10.405
   34SAPE   C31 4370   1.639   3.257  10.462
   34SAPE   O32 4371   1.720   3.186  10.407
   34SAPE   C32 4372   1.609   3.253  10.611
   34SAPE   H2X 4373   1.640   3.153  10.649
   34SAPE   H2Y 4374   1.499   3.263  10.624
   34SAPE   C23 4375   1.343   2.890  10.291
   34SAPE   H3R 4376   1.437   2.831  10.279
   34SAPE   H3S 4377   1.258   2.819  10.282
   34SAPE   C24 4378   1.338   2.955  10.431
   34SAPE   H4R 4379   1.246   3.016  10.438
   34SAPE   H4S 4380   1.424   3.024  10.441
   34SAPE   C25 4381   1.341   2.852  10.541
   34SAPE   H5R 4382   1.339   2.747  10.507
   34SAPE   C26 4383   1.349   2.876  10.673
   34SAPE   H6R 4384   1.353   2.791  10.742
   34SAPE   C27 4385   1.356   3.012  10.738
   34SAPE   H7R 4386   1.328   3.093  10.666
   34SAPE   H7S 4387   1.462   3.032  10.766
   34SAPE   C28 4388   1.270   3.024  10.862
   34SAPE   H8R 4389   1.211   2.935  10.889
   34SAPE   C29 4390   1.262   3.133  10.941
   34SAPE   H9R 4391   1.197   3.130  11.029
   34SAPE  C210 4392   1.335   3.263  10.922
   34SAPE  H10R 4393   1.396   3.264  10.828
   34SAPE  H10S 4394   1.409   3.275  11.004
   34SAPE  C211 4395   1.241   3.382  10.919
   34SAPE  H11R 4396   1.201   3.407  10.820
   34SAPE  C212 4397   1.205   3.457  11.025
   34SAPE  H12R 4398   1.136   3.541  11.010
   34SAPE  C213 4399   1.250   3.438  11.169
   34SAPE  H13R 4400   1.283   3.333  11.185
   34SAPE  H13S 4401   1.163   3.453  11.236
   34SAPE  C214 4402   1.359   3.534  11.209
   34SAPE  H14R 4403   1.366   3.626  11.150
   34SAPE  C215 4404   1.447   3.515  11.309
   34SAPE  H15R 4405   1.522   3.593  11.328
   34SAPE  C216 4406   1.455   3.396  11.402
   34SAPE  H16R 4407   1.548   3.340  11.379
   34SAPE  H16S 4408   1.370   3.326  11.389
   34SAPE  C217 4409   1.461   3.439  11.550
   34SAPE  H17R 4410   1.363   3.481  11.581
   34SAPE  H17S 4411   1.537   3.518  11.562
   34SAPE  C218 4412   1.498   3.323  11.645
   34SAPE  H18R 4413   1.582   3.266  11.599
   34SAPE  H18S 4414   1.411   3.254  11.653
   34SAPE  C219 4415   1.543   3.369  11.784
   34SAPE  H19R 4416   1.629   3.438  11.772
   34SAPE  H19S 4417   1.580   3.280  11.840
   34SAPE  C220 4418   1.434   3.437  11.868
   34SAPE  H20R 4419   1.394   3.526  11.815
   34SAPE  H20S 4420   1.475   3.470  11.965
   34SAPE  H20T 4421   1.350   3.367  11.887
   34SAPE   C33 4422   1.681   3.365  10.688
   34SAPE   H3X 4423   1.642   3.371  10.792
   34SAPE   H3Y 4424   1.658   3.463  10.640
   34SAPE   C34 4425   1.834   3.347  10.693
   34SAPE   H4X 4426   1.880   3.437  10.740
   34SAPE   H4Y 4427   1.875   3.342  10.590
   34SAPE   C35 4428   1.883   3.226  10.773
   34SAPE   H5X 4429   1.994   3.232  10.780
   34SAPE   H5Y 4430   1.859   3.132  10.718
   34SAPE   C36 4431   1.826   3.217  10.916
   34SAPE   H6X 4432   1.719   3.187  10.909
   34SAPE   H6Y 4433   1.830   3.316  10.965
   34SAPE   C37 4434   1.902   3.115  11.001
   34SAPE   H7X 4435   1.996   3.160  11.039
   34SAPE   H7Y 4436   1.930   3.031  10.934
   34SAPE   C38 4437   1.820   3.058  11.118
   34SAPE   H8X 4438   1.880   2.977  11.166
   34SAPE   H8Y 4439   1.727   3.013  11.078
   34SAPE   C39 4440   1.783   3.161  11.225
   34SAPE   H9X 4441   1.713   3.235  11.182
   34SAPE   H9Y 4442   1.875   3.215  11.256
   34SAPE  C310 4443   1.720   3.099  11.351
   34SAPE  H10X 4444   1.698   3.181  11.422
   34SAPE  H10Y 4445   1.792   3.031  11.400
   34SAPE  C311 4446   1.589   3.022  11.323
   34SAPE  H11X 4447   1.613   2.922  11.281
   34SAPE  H11Y 4448   1.531   3.078  11.246
   34SAPE  C312 4449   1.499   3.005  11.447
   34SAPE  H12X 4450   1.410   2.946  11.419
   34SAPE  H12Y 4451   1.463   3.106  11.477
   34SAPE  C313 4452   1.568   2.940  11.568
   34SAPE  H13X 4453   1.662   2.994  11.592
   34SAPE  H13Y 4454   1.595   2.835  11.542
   34SAPE  C314 4455   1.479   2.940  11.693
   34SAPE  H14X 4456   1.382   2.891  11.669
   34SAPE  H14Y 4457   1.458   3.046  11.720
   34SAPE  C315 4458   1.543   2.870  11.813
   34SAPE  H15X 4459   1.644   2.912  11.832
   34SAPE  H15Y 4460   1.556   2.762  11.788
   34SAPE  C316 4461   1.458   2.880  11.942
   34SAPE  H16X 4462   1.496   2.808  12.016
   34SAPE  H16Y 4463   1.354   2.851  11.917
   34SAPE  C317 4464   1.455   3.020  12.007
   34SAPE  H17X 4465   1.379   3.019  12.087
   34SAPE  H17Y 4466   1.423   3.096  11.932
   34SAPE  C318 4467   1.588   3.064  12.068
   34SAPE  H18X 4468   1.668   3.069  11.991
   34SAPE  H18Y 4469   1.620   2.992  12.147
   34SAPE  H18Z 4470   1.579   3.165  12.114
   35SAPE     N 4471   2.435   1.358  10.075
   35SAPE   HN1 4472   2.531   1.361  10.116
   35SAPE   HN2 4473   2.384   1.446  10.094
   35SAPE   HN3 4474   2.384   1.277  10.116
   35SAPE   C12 4475   2.457   1.347   9.927
   35SAPE  H12A 4476   2.486   1.447   9.890
   35SAPE  H12B 4477   2.361   1.317   9.879
   35SAPE   C11 4478   2.570   1.247   9.899
   35SAPE  H11A 4479   2.589   1.249   9.790
   35SAPE  H11B 4480   2.536   1.144   9.926
   35SAPE     P 4481   2.820   1.199   9.945
   35SAPE   O13 4482   2.794   1.106   9.833
   35SAPE   O14 4483   2.933   1.294   9.927
   35SAPE   O12 4484   2.687   1.282   9.975
   35SAPE   O11 4485   2.840   1.120  10.081
   35SAPE    C1 4486   2.972   1.096  10.134
   35SAPE    HA 4487   3.010   0.998  10.098
   35SAPE    HB 4488   3.044   1.175  10.104
   35SAPE    C2 4489   2.976   1.098  10.290
   35SAPE    HS 4490   2.927   1.005  10.328
   35SAPE   O21 4491   2.910   1.217  10.337
   35SAPE   C21 4492   2.786   1.201  10.377
   35SAPE   O22 4493   2.724   1.096  10.383
   35SAPE   C22 4494   2.731   1.338  10.416
   35SAPE   H2R 4495   2.798   1.383  10.492
   35SAPE   H2S 4496   2.733   1.401  10.325
   35SAPE    C3 4497   3.122   1.096  10.345
   35SAPE    HX 4498   3.186   1.159  10.279
   35SAPE    HY 4499   3.161   0.992  10.335
   35SAPE   O31 4500   3.128   1.137  10.483
   35SAPE   C31 4501   3.149   1.267  10.504
   35SAPE   O32 4502   3.183   1.348  10.420
   35SAPE   C32 4503   3.117   1.302  10.649
   35SAPE   H2X 4504   3.112   1.209  10.710
   35SAPE   H2Y 4505   3.016   1.349  10.649
   35SAPE   C23 4506   2.587   1.326  10.470
   35SAPE   H3R 4507   2.585   1.272  10.567
   35SAPE   H3S 4508   2.530   1.264  10.398
   35SAPE   C24 4509   2.514   1.461  10.480
   35SAPE   H4R 4510   2.406   1.437  10.492
   35SAPE   H4S 4511   2.522   1.509  10.381
   35SAPE   C25 4512   2.550   1.563  10.585
   35SAPE   H5R 4513   2.511   1.662  10.559
   35SAPE   C26 4514   2.615   1.554  10.704
   35SAPE   H6R 4515   2.625   1.648  10.761
   35SAPE   C27 4516   2.675   1.436  10.776
   35SAPE   H7R 4517   2.724   1.366  10.705
   35SAPE   H7S 4518   2.593   1.378  10.823
   35SAPE   C28 4519   2.774   1.477  10.882
   35SAPE   H8R 4520   2.879   1.466  10.853
   35SAPE   C29 4521   2.746   1.523  11.006
   35SAPE   H9R 4522   2.829   1.548  11.073
   35SAPE  C210 4523   2.609   1.542  11.068
   35SAPE  H10R 4524   2.532   1.550  10.989
   35SAPE  H10S 4525   2.607   1.638  11.123
   35SAPE  C211 4526   2.574   1.426  11.157
   35SAPE  H11R 4527   2.601   1.327  11.117
   35SAPE  C212 4528   2.518   1.431  11.279
   35SAPE  H12R 4529   2.498   1.336  11.331
   35SAPE  C213 4530   2.476   1.555  11.355
   35SAPE  H13R 4531   2.384   1.595  11.307
   35SAPE  H13S 4532   2.553   1.635  11.343
   35SAPE  C214 4533   2.449   1.535  11.502
   35SAPE  H14R 4534   2.350   1.569  11.535
   35SAPE  C215 4535   2.531   1.480  11.594
   35SAPE  H15R 4536   2.496   1.472  11.699
   35SAPE  C216 4537   2.670   1.427  11.570
   35SAPE  H16R 4538   2.713   1.465  11.475
   35SAPE  H16S 4539   2.666   1.316  11.561
   35SAPE  C217 4540   2.768   1.461  11.684
   35SAPE  H17R 4541   2.864   1.409  11.664
   35SAPE  H17S 4542   2.729   1.422  11.780
   35SAPE  C218 4543   2.797   1.611  11.697
   35SAPE  H18R 4544   2.702   1.667  11.710
   35SAPE  H18S 4545   2.844   1.647  11.603
   35SAPE  C219 4546   2.889   1.641  11.816
   35SAPE  H19R 4547   2.977   1.574  11.811
   35SAPE  H19S 4548   2.834   1.619  11.910
   35SAPE  C220 4549   2.939   1.786  11.820
   35SAPE  H20R 4550   3.003   1.806  11.732
   35SAPE  H20S 4551   2.998   1.806  11.911
   35SAPE  H20T 4552   2.853   1.857  11.818
   35SAPE   C33 4553   3.219   1.401  10.711
   35SAPE   H3X 4554   3.243   1.482  10.639
   35SAPE   H3Y 4555   3.313   1.344  10.732
   35SAPE   C34 4556   3.174   1.464  10.843
   35SAPE   H4X 4557   3.087   1.530  10.826
   35SAPE   H4Y 4558   3.257   1.528  10.882
   35SAPE   C35 4559   3.140   1.359  10.949
   35SAPE   H5X 4560   3.226   1.288  10.958
   35SAPE   H5Y 4561   3.052   1.301  10.915
   35SAPE   C36 4562   3.113   1.418  11.088
   35SAPE   H6X 4563   3.032   1.493  11.082
   35SAPE   H6Y 4564   3.205   1.471  11.122
   35SAPE   C37 4565   3.077   1.312  11.193
   35SAPE   H7X 4566   3.071   1.361  11.293
   35SAPE   H7Y 4567   3.160   1.238  11.198
   35SAPE   C38 4568   2.945   1.238  11.167
   35SAPE   H8X 4569   2.942   1.201  11.063
   35SAPE   H8Y 4570   2.860   1.308  11.180
   35SAPE   C39 4571   2.925   1.116  11.258
   35SAPE   H9X 4572   3.010   1.046  11.243
   35SAPE   H9Y 4573   2.833   1.062  11.228
   35SAPE  C310 4574   2.916   1.151  11.407
   35SAPE  H10X 4575   2.825   1.212  11.426
   35SAPE  H10Y 4576   3.004   1.211  11.437
   35SAPE  C311 4577   2.913   1.025  11.495
   35SAPE  H11X 4578   3.003   0.964  11.472
   35SAPE  H11Y 4579   2.823   0.964  11.472
   35SAPE  C312 4580   2.914   1.059  11.645
   35SAPE  H12X 4581   2.818   1.107  11.672
   35SAPE  H12Y 4582   2.996   1.132  11.665
   35SAPE  C313 4583   2.938   0.934  11.731
   35SAPE  H13X 4584   3.032   0.887  11.698
   35SAPE  H13Y 4585   2.856   0.861  11.713
   35SAPE  C314 4586   2.949   0.964  11.881
   35SAPE  H14X 4587   3.035   1.032  11.898
   35SAPE  H14Y 4588   2.971   0.869  11.935
   35SAPE  C315 4589   2.822   1.027  11.942
   35SAPE  H15X 4590   2.799   1.123  11.891
   35SAPE  H15Y 4591   2.842   1.050  12.049
   35SAPE  C316 4592   2.700   0.934  11.936
   35SAPE  H16X 4593   2.724   0.840  11.989
   35SAPE  H16Y 4594   2.676   0.909  11.831
   35SAPE  C317 4595   2.578   0.999  12.001
   35SAPE  H17X 4596   2.550   1.089  11.942
   35SAPE  H17Y 4597   2.606   1.033  12.103
   35SAPE  C318 4598   2.459   0.905  12.011
   35SAPE  H18X 4599   2.486   0.815  12.070
   35SAPE  H18Y 4600   2.426   0.872  11.910
   35SAPE  H18Z 4601   2.374   0.956  12.061
   36SAPE     N 4602   3.176   3.692   9.686
   36SAPE   HN1 4603   3.228   3.657   9.604
   36SAPE   HN2 4604   3.161   3.617   9.756
   36SAPE   HN3 4605   3.082   3.721   9.652
   36SAPE   C12 4606   3.234   3.813   9.753
   36SAPE  H12A 4607   3.219   3.900   9.686
   36SAPE  H12B 4608   3.342   3.797   9.770
   36SAPE   C11 4609   3.159   3.834   9.885
   36SAPE  H11A 4610   3.197   3.766   9.964
   36SAPE  H11B 4611   3.052   3.809   9.869
   36SAPE     P 4612   3.069   4.027  10.030
   36SAPE   O13 4613   3.071   3.940  10.148
   36SAPE   O14 4614   3.087   4.173  10.044
   36SAPE   O12 4615   3.176   3.969   9.926
   36SAPE   O11 4616   2.937   4.000   9.944
   36SAPE    C1 4617   2.822   3.936   9.999
   36SAPE    HA 4618   2.774   3.875   9.919
   36SAPE    HB 4619   2.847   3.867  10.082
   36SAPE    C2 4620   2.718   4.039  10.049
   36SAPE    HS 4621   2.691   4.105   9.964
   36SAPE   O21 4622   2.778   4.112  10.156
   36SAPE   C21 4623   2.737   4.235  10.176
   36SAPE   O22 4624   2.663   4.300  10.104
   36SAPE   C22 4625   2.792   4.277  10.311
   36SAPE   H2R 4626   2.740   4.215  10.387
   36SAPE   H2S 4627   2.900   4.249  10.313
   36SAPE    C3 4628   2.588   3.969  10.102
   36SAPE    HX 4629   2.550   3.905  10.020
   36SAPE    HY 4630   2.510   4.046  10.121
   36SAPE   O31 4631   2.618   3.886  10.217
   36SAPE   C31 4632   2.606   3.949  10.334
   36SAPE   O32 4633   2.551   4.056  10.352
   36SAPE   C32 4634   2.676   3.868  10.444
   36SAPE   H2X 4635   2.765   3.818  10.400
   36SAPE   H2Y 4636   2.604   3.791  10.479
   36SAPE   C23 4637   2.774   4.426  10.349
   36SAPE   H3R 4638   2.673   4.462  10.319
   36SAPE   H3S 4639   2.849   4.487  10.294
   36SAPE   C24 4640   2.788   4.446  10.501
   36SAPE   H4R 4641   2.701   4.401  10.551
   36SAPE   H4S 4642   2.788   4.555  10.523
   36SAPE   C25 4643   2.917   4.380  10.543
   36SAPE   H5R 4644   3.001   4.396  10.473
   36SAPE   C26 4645   2.937   4.302  10.650
   36SAPE   H6R 4646   3.035   4.253  10.660
   36SAPE   C27 4647   2.835   4.264  10.754
   36SAPE   H7R 4648   2.780   4.174  10.720
   36SAPE   H7S 4649   2.759   4.344  10.766
   36SAPE   C28 4650   2.902   4.237  10.886
   36SAPE   H8R 4651   3.010   4.255  10.891
   36SAPE   C29 4652   2.840   4.195  10.998
   36SAPE   H9R 4653   2.901   4.178  11.088
   36SAPE  C210 4654   2.693   4.168  11.011
   36SAPE  H10R 4655   2.644   4.155  10.912
   36SAPE  H10S 4656   2.646   4.258  11.055
   36SAPE  C211 4657   2.659   4.049  11.098
   36SAPE  H11R 4658   2.616   3.962  11.046
   36SAPE  C212 4659   2.678   4.042  11.231
   36SAPE  H12R 4660   2.650   3.950  11.283
   36SAPE  C213 4661   2.737   4.153  11.315
   36SAPE  H13R 4662   2.692   4.251  11.286
   36SAPE  H13S 4663   2.845   4.163  11.292
   36SAPE  C214 4664   2.717   4.132  11.462
   36SAPE  H14R 4665   2.613   4.142  11.495
   36SAPE  C215 4666   2.811   4.102  11.553
   36SAPE  H15R 4667   2.780   4.092  11.658
   36SAPE  C216 4668   2.958   4.084  11.528
   36SAPE  H16R 4669   2.979   4.046  11.425
   36SAPE  H16S 4670   2.996   4.006  11.597
   36SAPE  C217 4671   3.036   4.215  11.548
   36SAPE  H17R 4672   2.988   4.276  11.627
   36SAPE  H17S 4673   3.030   4.275  11.454
   36SAPE  C218 4674   3.183   4.195  11.587
   36SAPE  H18R 4675   3.229   4.295  11.600
   36SAPE  H18S 4676   3.237   4.143  11.505
   36SAPE  C219 4677   3.202   4.116  11.718
   36SAPE  H19R 4678   3.194   4.007  11.696
   36SAPE  H19S 4679   3.119   4.141  11.787
   36SAPE  C220 4680   3.334   4.144  11.788
   36SAPE  H20R 4681   3.340   4.251  11.818
   36SAPE  H20S 4682   3.420   4.122  11.720
   36SAPE  H20T 4683   3.345   4.082  11.879
   36SAPE   C33 4684   2.719   3.958  10.562
   36SAPE   H3X 4685   2.631   4.017  10.595
   36SAPE   H3Y 4686   2.797   4.030  10.530
   36SAPE   C34 4687   2.770   3.880  10.685
   36SAPE   H4X 4688   2.707   3.790  10.699
   36SAPE   H4Y 4689   2.756   3.944  10.775
   36SAPE   C35 4690   2.918   3.840  10.677
   36SAPE   H5X 4691   2.982   3.931  10.667
   36SAPE   H5Y 4692   2.933   3.779  10.585
   36SAPE   C36 4693   2.964   3.758  10.799
   36SAPE   H6X 4694   3.057   3.703  10.775
   36SAPE   H6Y 4695   2.885   3.682  10.818
   36SAPE   C37 4696   2.986   3.839  10.928
   36SAPE   H7X 4697   2.914   3.924  10.930
   36SAPE   H7Y 4698   3.088   3.882  10.927
   36SAPE   C38 4699   2.964   3.756  11.056
   36SAPE   H8X 4700   3.026   3.665  11.054
   36SAPE   H8Y 4701   2.857   3.725  11.056
   36SAPE   C39 4702   2.991   3.836  11.184
   36SAPE   H9X 4703   2.957   3.940  11.167
   36SAPE   H9Y 4704   3.100   3.841  11.205
   36SAPE  C310 4705   2.915   3.784  11.308
   36SAPE  H10X 4706   2.839   3.709  11.277
   36SAPE  H10Y 4707   2.859   3.869  11.352
   36SAPE  C311 4708   3.002   3.725  11.420
   36SAPE  H11X 4709   3.085   3.794  11.443
   36SAPE  H11Y 4710   3.046   3.628  11.386
   36SAPE  C312 4711   2.918   3.703  11.547
   36SAPE  H12X 4712   2.827   3.646  11.519
   36SAPE  H12Y 4713   2.884   3.801  11.586
   36SAPE  C313 4714   2.988   3.626  11.660
   36SAPE  H13X 4715   3.026   3.529  11.621
   36SAPE  H13Y 4716   2.913   3.603  11.738
   36SAPE  C314 4717   3.103   3.703  11.727
   36SAPE  H14X 4718   3.069   3.806  11.751
   36SAPE  H14Y 4719   3.188   3.712  11.656
   36SAPE  C315 4720   3.150   3.634  11.855
   36SAPE  H15X 4721   3.185   3.532  11.828
   36SAPE  H15Y 4722   3.065   3.621  11.925
   36SAPE  C316 4723   3.264   3.708  11.927
   36SAPE  H16X 4724   3.333   3.753  11.852
   36SAPE  H16Y 4725   3.323   3.634  11.986
   36SAPE  C317 4726   3.216   3.817  12.023
   36SAPE  H17X 4727   3.144   3.771  12.095
   36SAPE  H17Y 4728   3.162   3.894  11.965
   36SAPE  C318 4729   3.330   3.882  12.102
   36SAPE  H18X 4730   3.291   3.962  12.169
   36SAPE  H18Y 4731   3.404   3.927  12.033
   36SAPE  H18Z 4732   3.382   3.806  12.165
   37SAPE     N 4733   4.313   2.646   9.937
   37SAPE   HN1 4734   4.242   2.644  10.013
   37SAPE   HN2 4735   4.278   2.585   9.861
   37SAPE   HN3 4736   4.402   2.606   9.972
   37SAPE   C12 4737   4.345   2.784   9.886
   37SAPE  H12A 4738   4.453   2.783   9.857
   37SAPE  H12B 4739   4.334   2.854   9.971
   37SAPE   C11 4740   4.259   2.821   9.764
   37SAPE  H11A 4741   4.289   2.754   9.681
   37SAPE  H11B 4742   4.284   2.924   9.730
   37SAPE     P 4743   4.030   2.908   9.868
   37SAPE   O13 4744   3.990   3.017   9.775
   37SAPE   O14 4745   3.918   2.829   9.923
   37SAPE   O12 4746   4.119   2.806   9.786
   37SAPE   O11 4747   4.127   2.965   9.980
   37SAPE    C1 4748   4.201   3.086   9.957
   37SAPE    HA 4749   4.286   3.068   9.887
   37SAPE    HB 4750   4.137   3.164   9.912
   37SAPE    C2 4751   4.260   3.153  10.086
   37SAPE    HS 4752   4.304   3.250  10.055
   37SAPE   O21 4753   4.361   3.071  10.151
   37SAPE   C21 4754   4.483   3.078  10.096
   37SAPE   O22 4755   4.503   3.121   9.984
   37SAPE   C22 4756   4.591   3.024  10.193
   37SAPE   H2R 4757   4.539   2.976  10.279
   37SAPE   H2S 4758   4.646   2.945  10.138
   37SAPE    C3 4759   4.146   3.190  10.187
   37SAPE    HX 4760   4.063   3.237  10.131
   37SAPE    HY 4761   4.190   3.268  10.253
   37SAPE   O31 4762   4.095   3.077  10.263
   37SAPE   C31 4763   4.032   3.114  10.376
   37SAPE   O32 4764   4.022   3.229  10.414
   37SAPE   C32 4765   3.987   2.989  10.452
   37SAPE   H2X 4766   4.071   2.917  10.457
   37SAPE   H2Y 4767   3.904   2.945  10.392
   37SAPE   C23 4768   4.696   3.129  10.245
   37SAPE   H3R 4769   4.661   3.231  10.220
   37SAPE   H3S 4770   4.790   3.114  10.187
   37SAPE   C24 4771   4.728   3.128  10.397
   37SAPE   H4R 4772   4.769   3.028  10.422
   37SAPE   H4S 4773   4.634   3.141  10.454
   37SAPE   C25 4774   4.827   3.235  10.438
   37SAPE   H5R 4775   4.910   3.242  10.365
   37SAPE   C26 4776   4.829   3.322  10.542
   37SAPE   H6R 4777   4.912   3.394  10.544
   37SAPE   C27 4778   4.735   3.347  10.658
   37SAPE   H7R 4779   4.631   3.318  10.630
   37SAPE   H7S 4780   4.728   3.456  10.676
   37SAPE   C28 4781   4.776   3.279  10.787
   37SAPE   H8R 4782   4.866   3.216  10.779
   37SAPE   C29 4783   4.717   3.285  10.909
   37SAPE   H9R 4784   4.761   3.226  10.990
   37SAPE  C210 4785   4.593   3.361  10.951
   37SAPE  H10R 4786   4.591   3.459  10.899
   37SAPE  H10S 4787   4.600   3.385  11.060
   37SAPE  C211 4788   4.464   3.290  10.921
   37SAPE  H11R 4789   4.445   3.279  10.813
   37SAPE  C212 4790   4.370   3.244  11.006
   37SAPE  H12R 4791   4.282   3.197  10.961
   37SAPE  C213 4792   4.369   3.252  11.158
   37SAPE  H13R 4793   4.383   3.357  11.190
   37SAPE  H13S 4794   4.455   3.195  11.200
   37SAPE  C214 4795   4.237   3.201  11.212
   37SAPE  H14R 4796   4.151   3.234  11.151
   37SAPE  C215 4797   4.210   3.123  11.318
   37SAPE  H15R 4798   4.105   3.097  11.338
   37SAPE  C216 4799   4.307   3.062  11.416
   37SAPE  H16R 4800   4.410   3.098  11.399
   37SAPE  H16S 4801   4.308   2.952  11.404
   37SAPE  C217 4802   4.269   3.095  11.562
   37SAPE  H17R 4803   4.328   3.028  11.629
   37SAPE  H17S 4804   4.162   3.073  11.581
   37SAPE  C218 4805   4.300   3.241  11.599
   37SAPE  H18R 4806   4.242   3.308  11.532
   37SAPE  H18S 4807   4.408   3.260  11.580
   37SAPE  C219 4808   4.268   3.276  11.744
   37SAPE  H19R 4809   4.327   3.210  11.812
   37SAPE  H19S 4810   4.161   3.256  11.764
   37SAPE  C220 4811   4.300   3.422  11.777
   37SAPE  H20R 4812   4.239   3.490  11.714
   37SAPE  H20S 4813   4.407   3.444  11.758
   37SAPE  H20T 4814   4.278   3.444  11.884
   37SAPE   C33 4815   3.933   3.022  10.594
   37SAPE   H3X 4816   3.869   2.937  10.627
   37SAPE   H3Y 4817   3.866   3.110  10.588
   37SAPE   C34 4818   4.040   3.044  10.702
   37SAPE   H4X 4819   3.993   3.098  10.787
   37SAPE   H4Y 4820   4.120   3.111  10.662
   37SAPE   C35 4821   4.100   2.915  10.761
   37SAPE   H5X 4822   4.163   2.865  10.684
   37SAPE   H5Y 4823   4.017   2.846  10.787
   37SAPE   C36 4824   4.184   2.940  10.888
   37SAPE   H6X 4825   4.122   2.991  10.964
   37SAPE   H6Y 4826   4.267   3.010  10.861
   37SAPE   C37 4827   4.243   2.811  10.949
   37SAPE   H7X 4828   4.294   2.753  10.870
   37SAPE   H7Y 4829   4.158   2.750  10.985
   37SAPE   C38 4830   4.341   2.833  11.067
   37SAPE   H8X 4831   4.345   2.738  11.123
   37SAPE   H8Y 4832   4.303   2.912  11.135
   37SAPE   C39 4833   4.485   2.866  11.022
   37SAPE   H9X 4834   4.488   2.969  10.981
   37SAPE   H9Y 4835   4.510   2.795  10.940
   37SAPE  C310 4836   4.596   2.851  11.128
   37SAPE  H10X 4837   4.688   2.818  11.075
   37SAPE  H10Y 4838   4.570   2.772  11.201
   37SAPE  C311 4839   4.629   2.982  11.200
   37SAPE  H11X 4840   4.543   3.011  11.263
   37SAPE  H11Y 4841   4.643   3.061  11.123
   37SAPE  C312 4842   4.756   2.975  11.286
   37SAPE  H12X 4843   4.795   3.078  11.305
   37SAPE  H12Y 4844   4.834   2.921  11.229
   37SAPE  C313 4845   4.734   2.906  11.422
   37SAPE  H13X 4846   4.830   2.858  11.454
   37SAPE  H13Y 4847   4.659   2.825  11.410
   37SAPE  C314 4848   4.690   3.002  11.534
   37SAPE  H14X 4849   4.602   3.060  11.499
   37SAPE  H14Y 4850   4.772   3.074  11.555
   37SAPE  C315 4851   4.653   2.927  11.662
   37SAPE  H15X 4852   4.741   2.871  11.700
   37SAPE  H15Y 4853   4.575   2.852  11.634
   37SAPE  C316 4854   4.596   3.014  11.776
   37SAPE  H16X 4855   4.561   2.946  11.856
   37SAPE  H16Y 4856   4.507   3.070  11.740
   37SAPE  C317 4857   4.696   3.113  11.836
   37SAPE  H17X 4858   4.799   3.075  11.820
   37SAPE  H17Y 4859   4.680   3.117  11.946
   37SAPE  C318 4860   4.682   3.256  11.782
   37SAPE  H18X 4861   4.696   3.258  11.672
   37SAPE  H18Y 4862   4.757   3.323  11.829
   37SAPE  H18Z 4863   4.581   3.296  11.805
   38SAPE     N 4864   0.573   2.366   9.768
   38SAPE   HN1 4865   0.674   2.372   9.747
   38SAPE   HN2 4866   0.564   2.372   9.871
   38SAPE   HN3 4867   0.539   2.271   9.744
   38SAPE   C12 4868   0.486   2.474   9.709
   38SAPE  H12A 4869   0.397   2.424   9.666
   38SAPE  H12B 4870   0.543   2.525   9.628
   38SAPE   C11 4871   0.443   2.573   9.819
   38SAPE  H11A 4872   0.360   2.637   9.782
   38SAPE  H11B 4873   0.528   2.641   9.840
   38SAPE     P 4874   0.276   2.418   9.952
   38SAPE   O13 4875   0.166   2.489   9.884
   38SAPE   O14 4876   0.309   2.282   9.902
   38SAPE   O12 4877   0.407   2.507   9.941
   38SAPE   O11 4878   0.253   2.419  10.107
   38SAPE    C1 4879   0.254   2.301  10.186
   38SAPE    HA 4880   0.167   2.237  10.161
   38SAPE    HB 4881   0.347   2.242  10.172
   38SAPE    C2 4882   0.242   2.342  10.336
   38SAPE    HS 4883   0.343   2.370  10.373
   38SAPE   O21 4884   0.185   2.235  10.414
   38SAPE   C21 4885   0.271   2.139  10.446
   38SAPE   O22 4886   0.387   2.134  10.409
   38SAPE   C22 4887   0.206   2.041  10.543
   38SAPE   H2R 4888   0.096   2.049  10.533
   38SAPE   H2S 4889   0.235   1.938  10.512
   38SAPE    C3 4890   0.155   2.470  10.349
   38SAPE    HX 4891   0.065   2.456  10.286
   38SAPE    HY 4892   0.210   2.557  10.306
   38SAPE   O31 4893   0.112   2.494  10.484
   38SAPE   C31 4894   0.183   2.575  10.559
   38SAPE   O32 4895   0.284   2.635  10.525
   38SAPE   C32 4896   0.116   2.579  10.696
   38SAPE   H2X 4897   0.113   2.475  10.733
   38SAPE   H2Y 4898   0.011   2.613  10.680
   38SAPE   C23 4899   0.249   2.064  10.691
   38SAPE   H3R 4900   0.250   2.172  10.715
   38SAPE   H3S 4901   0.354   2.027  10.702
   38SAPE   C24 4902   0.160   1.990  10.793
   38SAPE   H4R 4903   0.213   1.986  10.890
   38SAPE   H4S 4904   0.148   1.885  10.758
   38SAPE   C25 4905   0.025   2.055  10.809
   38SAPE   H5R 4906   5.186   2.117  10.723
   38SAPE   C26 4907   5.131   2.045  10.913
   38SAPE   H6R 4908   5.036   2.100  10.908
   38SAPE   C27 4909   5.147   1.965  11.040
   38SAPE   H7R 4910   0.055   1.915  11.043
   38SAPE   H7S 4911   5.073   1.883  11.039
   38SAPE   C28 4912   5.124   2.045  11.166
   38SAPE   H8R 4913   5.023   2.040  11.207
   38SAPE   C29 4914   0.025   2.121  11.229
   38SAPE   H9R 4915   5.187   2.175  11.320
   38SAPE  C210 4916   0.168   2.140  11.185
   38SAPE  H10R 4917   0.193   2.076  11.098
   38SAPE  H10S 4918   0.235   2.105  11.266
   38SAPE  C211 4919   0.193   2.284  11.148
   38SAPE  H11R 4920   0.150   2.314  11.051
   38SAPE  C212 4921   0.263   2.374  11.219
   38SAPE  H12R 4922   0.274   2.476  11.178
   38SAPE  C213 4923   0.330   2.351  11.352
   38SAPE  H13R 4924   0.440   2.343  11.339
   38SAPE  H13S 4925   0.301   2.252  11.394
   38SAPE  C214 4926   0.299   2.461  11.451
   38SAPE  H14R 4927   0.346   2.558  11.429
   38SAPE  C215 4928   0.222   2.448  11.560
   38SAPE  H15R 4929   0.207   2.535  11.626
   38SAPE  C216 4930   0.151   2.322  11.602
   38SAPE  H16R 4931   0.112   2.267  11.514
   38SAPE  H16S 4932   0.063   2.347  11.665
   38SAPE  C217 4933   0.246   2.229  11.680
   38SAPE  H17R 4934   0.329   2.198  11.613
   38SAPE  H17S 4935   0.191   2.138  11.709
   38SAPE  C218 4936   0.308   2.293  11.805
   38SAPE  H18R 4937   0.353   2.392  11.781
   38SAPE  H18S 4938   0.391   2.229  11.842
   38SAPE  C219 4939   0.206   2.310  11.918
   38SAPE  H19R 4940   0.174   2.209  11.952
   38SAPE  H19S 4941   0.116   2.363  11.880
   38SAPE  C220 4942   0.261   2.387  12.037
   38SAPE  H20R 4943   0.280   2.493  12.009
   38SAPE  H20S 4944   0.357   2.342  12.071
   38SAPE  H20T 4945   0.190   2.386  12.122
   38SAPE   C33 4946   0.181   2.669  10.804
   38SAPE   H3X 4947   0.177   2.776  10.773
   38SAPE   H3Y 4948   0.287   2.640  10.820
   38SAPE   C34 4949   0.103   2.650  10.935
   38SAPE   H4X 4950   0.109   2.542  10.963
   38SAPE   H4Y 4951   5.187   2.672  10.916
   38SAPE   C35 4952   0.149   2.733  11.054
   38SAPE   H5X 4953   0.141   2.842  11.031
   38SAPE   H5Y 4954   0.255   2.710  11.076
   38SAPE   C36 4955   0.063   2.701  11.178
   38SAPE   H6X 4956   0.063   2.591  11.193
   38SAPE   H6Y 4957   5.149   2.732  11.160
   38SAPE   C37 4958   0.113   2.768  11.306
   38SAPE   H7X 4959   0.097   2.878  11.301
   38SAPE   H7Y 4960   0.222   2.750  11.312
   38SAPE   C38 4961   0.049   2.710  11.433
   38SAPE   H8X 4962   0.118   2.736  11.517
   38SAPE   H8Y 4963   0.047   2.599  11.426
   38SAPE   C39 4964   5.099   2.758  11.467
   38SAPE   H9X 4965   5.026   2.710  11.400
   38SAPE   H9Y 4966   5.092   2.868  11.448
   38SAPE  C310 4967   5.059   2.733  11.614
   38SAPE  H10X 4968   5.047   2.624  11.633
   38SAPE  H10Y 4969   4.960   2.781  11.632
   38SAPE  C311 4970   5.160   2.790  11.715
   38SAPE  H11X 4971   0.014   2.879  11.667
   38SAPE  H11Y 4972   0.050   2.717  11.733
   38SAPE  C312 4973   5.102   2.839  11.848
   38SAPE  H12X 4974   5.021   2.912  11.826
   38SAPE  H12Y 4975   5.181   2.893  11.905
   38SAPE  C313 4976   5.045   2.729  11.939
   38SAPE  H13X 4977   4.974   2.667  11.881
   38SAPE  H13Y 4978   4.989   2.779  12.021
   38SAPE  C314 4979   5.152   2.639  12.003
   38SAPE  H14X 4980   0.027   2.698  12.069
   38SAPE  H14Y 4981   0.025   2.596  11.922
   38SAPE  C315 4982   5.090   2.522  12.081
   38SAPE  H15X 4983   5.169   2.447  12.105
   38SAPE  H15Y 4984   5.018   2.472  12.013
   38SAPE  C316 4985   5.017   2.562  12.210
   38SAPE  H16X 4986   4.942   2.483  12.234
   38SAPE  H16Y 4987   4.960   2.656  12.194
   38SAPE  C317 4988   5.107   2.578  12.333
   38SAPE  H17X 4989   5.047   2.625  12.414
   38SAPE  H17Y 4990   5.190   2.649  12.308
   38SAPE  C318 4991   5.165   2.447  12.386
   38SAPE  H18X 4992   0.032   2.465  12.480
   38SAPE  H18Y 4993   0.041   2.400  12.312
   38SAPE  H18Z 4994   5.083   2.375  12.409
   39SAPE     N 4995   3.928   4.447  10.059
   39SAPE   HN1 4996   3.992   4.365  10.062
   39SAPE   HN2 4997   3.837   4.418  10.100
   39SAPE   HN3 4998   3.915   4.463   9.957
   39SAPE   C12 4999   3.988   4.570  10.119
   39SAPE  H12A 5000   4.017   4.549  10.224
   39SAPE  H12B 5001   3.910   4.649  10.117
   39SAPE   C11 5002   4.107   4.614  10.033
   39SAPE  H11A 5003   4.192   4.547  10.057
   39SAPE  H11B 5004   4.136   4.717  10.062
   39SAPE     P 5005   4.181   4.647   9.787
   39SAPE   O13 5006   4.173   4.556   9.670
   39SAPE   O14 5007   4.165   4.792   9.760
   39SAPE   O12 5008   4.072   4.606   9.894
   39SAPE   O11 5009   4.316   4.622   9.864
   39SAPE    C1 5010   4.427   4.712   9.858
   39SAPE    HA 5011   4.500   4.671   9.784
   39SAPE    HB 5012   4.400   4.814   9.824
   39SAPE    C2 5013   4.502   4.725   9.995
   39SAPE    HS 5014   4.611   4.737   9.974
   39SAPE   O21 5015   4.480   4.611  10.080
   39SAPE   C21 5016   4.523   4.495  10.038
   39SAPE   O22 5017   4.583   4.474   9.933
   39SAPE   C22 5018   4.493   4.390  10.145
   39SAPE   H2R 5019   4.579   4.319  10.149
   39SAPE   H2S 5020   4.487   4.442  10.243
   39SAPE    C3 5021   4.458   4.851  10.074
   39SAPE    HX 5022   4.349   4.844  10.097
   39SAPE    HY 5023   4.472   4.940  10.009
   39SAPE   O31 5024   4.541   4.866  10.192
   39SAPE   C31 5025   4.492   4.812  10.305
   39SAPE   O32 5026   4.377   4.774  10.321
   39SAPE   C32 5027   4.608   4.790  10.403
   39SAPE   H2X 5028   4.703   4.817  10.352
   39SAPE   H2Y 5029   4.612   4.681  10.425
   39SAPE   C23 5030   4.361   4.312  10.120
   39SAPE   H3R 5031   4.386   4.210  10.085
   39SAPE   H3S 5032   4.303   4.360  10.039
   39SAPE   C24 5033   4.270   4.305  10.244
   39SAPE   H4R 5034   4.174   4.258  10.214
   39SAPE   H4S 5035   4.246   4.408  10.277
   39SAPE   C25 5036   4.333   4.223  10.354
   39SAPE   H5R 5037   4.348   4.117  10.327
   39SAPE   C26 5038   4.363   4.262  10.479
   39SAPE   H6R 5039   4.408   4.189  10.547
   39SAPE   C27 5040   4.341   4.399  10.539
   39SAPE   H7R 5041   4.341   4.478  10.461
   39SAPE   H7S 5042   4.425   4.424  10.607
   39SAPE   C28 5043   4.209   4.402  10.613
   39SAPE   H8R 5044   4.137   4.325  10.583
   39SAPE   C29 5045   4.175   4.484  10.713
   39SAPE   H9R 5046   4.077   4.473  10.761
   39SAPE  C210 5047   4.263   4.591  10.772
   39SAPE  H10R 5048   4.257   4.682  10.708
   39SAPE  H10S 5049   4.370   4.560  10.769
   39SAPE  C211 5050   4.228   4.630  10.913
   39SAPE  H11R 5051   4.173   4.724  10.923
   39SAPE  C212 5052   4.260   4.562  11.025
   39SAPE  H12R 5053   4.231   4.604  11.122
   39SAPE  C213 5054   4.337   4.432  11.034
   39SAPE  H13R 5055   4.356   4.388  10.934
   39SAPE  H13S 5056   4.277   4.356  11.089
   39SAPE  C214 5057   4.468   4.455  11.104
   39SAPE  H14R 5058   4.551   4.476  11.035
   39SAPE  C215 5059   4.492   4.456  11.236
   39SAPE  H15R 5060   4.593   4.487  11.268
   39SAPE  C216 5061   4.395   4.432  11.350
   39SAPE  H16R 5062   4.306   4.375  11.316
   39SAPE  H16S 5063   4.360   4.529  11.389
   39SAPE  C217 5064   4.464   4.354  11.464
   39SAPE  H17R 5065   4.558   4.405  11.492
   39SAPE  H17S 5066   4.490   4.252  11.429
   39SAPE  C218 5067   4.380   4.342  11.593
   39SAPE  H18R 5068   4.440   4.285  11.667
   39SAPE  H18S 5069   4.288   4.284  11.573
   39SAPE  C219 5070   4.344   4.478  11.656
   39SAPE  H19R 5071   4.259   4.521  11.599
   39SAPE  H19S 5072   4.430   4.547  11.643
   39SAPE  C220 5073   4.309   4.470  11.805
   39SAPE  H20R 5074   4.281   4.570  11.843
   39SAPE  H20S 5075   4.397   4.433  11.863
   39SAPE  H20T 5076   4.225   4.400  11.822
   39SAPE   C33 5077   4.598   4.868  10.536
   39SAPE   H3X 5078   4.579   4.977  10.520
   39SAPE   H3Y 5079   4.697   4.859  10.585
   39SAPE   C34 5080   4.492   4.813  10.632
   39SAPE   H4X 5081   4.487   4.703  10.622
   39SAPE   H4Y 5082   4.393   4.854  10.603
   39SAPE   C35 5083   4.521   4.847  10.779
   39SAPE   H5X 5084   4.430   4.823  10.838
   39SAPE   H5Y 5085   4.540   4.956  10.792
   39SAPE   C36 5086   4.638   4.766  10.837
   39SAPE   H6X 5087   4.735   4.813  10.812
   39SAPE   H6Y 5088   4.635   4.665  10.789
   39SAPE   C37 5089   4.626   4.742  10.989
   39SAPE   H7X 5090   4.695   4.660  11.018
   39SAPE   H7Y 5091   4.522   4.709  11.010
   39SAPE   C38 5092   4.658   4.865  11.075
   39SAPE   H8X 5093   4.598   4.952  11.040
   39SAPE   H8Y 5094   4.765   4.892  11.061
   39SAPE   C39 5095   4.632   4.841  11.225
   39SAPE   H9X 5096   4.671   4.928  11.282
   39SAPE   H9Y 5097   4.691   4.752  11.257
   39SAPE  C310 5098   4.485   4.820  11.265
   39SAPE  H10X 5099   4.481   4.803  11.375
   39SAPE  H10Y 5100   4.447   4.728  11.216
   39SAPE  C311 5101   4.390   4.935  11.229
   39SAPE  H11X 5102   4.396   4.952  11.119
   39SAPE  H11Y 5103   4.423   5.029  11.278
   39SAPE  C312 5104   4.243   4.906  11.262
   39SAPE  H12X 5105   4.217   4.806  11.220
   39SAPE  H12Y 5106   4.179   4.981  11.211
   39SAPE  C313 5107   4.207   4.906  11.412
   39SAPE  H13X 5108   4.275   4.838  11.469
   39SAPE  H13Y 5109   4.105   4.865  11.421
   39SAPE  C314 5110   4.207   5.047  11.475
   39SAPE  H14X 5111   4.122   5.055  11.547
   39SAPE  H14Y 5112   4.188   5.121  11.395
   39SAPE  C315 5113   4.336   5.084  11.549
   39SAPE  H15X 5114   4.356   0.000  11.530
   39SAPE  H15Y 5115   4.422   5.027  11.507
   39SAPE  C316 5116   4.329   5.065  11.702
   39SAPE  H16X 5117   4.242   5.120  11.741
   39SAPE  H16Y 5118   4.420   5.110  11.748
   39SAPE  C317 5119   4.321   4.918  11.746
   39SAPE  H17X 5120   4.407   4.863  11.703
   39SAPE  H17Y 5121   4.229   4.873  11.706
   39SAPE  C318 5122   4.323   4.903  11.899
   39SAPE  H18X 5123   4.416   4.947  11.941
   39SAPE  H18Y 5124   4.319   4.795  11.927
   39SAPE  H18Z 5125   4.236   4.954  11.944
   40SAPE     N 5126   0.522   4.952   9.872
   40SAPE   HN1 5127   0.577   4.864   9.878
   40SAPE   HN2 5128   0.471   4.949   9.781
   40SAPE   HN3 5129   0.583   5.036   9.874
   40SAPE   C12 5130   0.422   4.957   9.984
   40SAPE  H12A 5131   0.344   5.032   9.958
   40SAPE  H12B 5132   0.475   4.990  10.076
   40SAPE   C11 5133   0.360   4.818  10.006
   40SAPE  H11A 5134   0.304   4.786   9.915
   40SAPE  H11B 5135   0.286   4.826  10.088
   40SAPE     P 5136   0.519   4.616   9.948
   40SAPE   O13 5137   0.408   4.531   9.900
   40SAPE   O14 5138   0.596   4.688   9.843
   40SAPE   O12 5139   0.460   4.725  10.045
   40SAPE   O11 5140   0.618   4.537  10.042
   40SAPE    C1 5141   0.728   4.459   9.995
   40SAPE    HA 5142   0.722   4.359  10.044
   40SAPE    HB 5143   0.723   4.442   9.885
   40SAPE    C2 5144   0.871   4.516  10.027
   40SAPE    HS 5145   0.941   4.459   9.963
   40SAPE   O21 5146   0.901   4.488  10.165
   40SAPE   C21 5147   1.024   4.512  10.207
   40SAPE   O22 5148   1.114   4.560  10.140
   40SAPE   C22 5149   1.036   4.478  10.356
   40SAPE   H2R 5150   1.032   4.367  10.366
   40SAPE   H2S 5151   1.137   4.512  10.388
   40SAPE    C3 5152   0.886   4.667   9.989
   40SAPE    HX 5153   0.834   4.682   9.891
   40SAPE    HY 5154   0.993   4.687   9.967
   40SAPE   O31 5155   0.828   4.757  10.087
   40SAPE   C31 5156   0.913   4.833  10.154
   40SAPE   O32 5157   1.033   4.841  10.131
   40SAPE   C32 5158   0.847   4.907  10.269
   40SAPE   H2X 5159   0.897   5.006  10.278
   40SAPE   H2Y 5160   0.868   4.850  10.362
   40SAPE   C23 5161   0.928   4.544  10.445
   40SAPE   H3R 5162   0.845   4.473  10.463
   40SAPE   H3S 5163   0.883   4.630  10.390
   40SAPE   C24 5164   0.983   4.601  10.578
   40SAPE   H4R 5165   0.903   4.665  10.622
   40SAPE   H4S 5166   1.068   4.668  10.555
   40SAPE   C25 5167   1.020   4.495  10.679
   40SAPE   H5R 5168   0.938   4.426  10.706
   40SAPE   C26 5169   1.138   4.480  10.741
   40SAPE   H6R 5170   1.149   4.398  10.815
   40SAPE   C27 5171   1.263   4.564  10.724
   40SAPE   H7R 5172   1.292   4.563  10.617
   40SAPE   H7S 5173   1.347   4.514  10.777
   40SAPE   C28 5174   1.255   4.707  10.771
   40SAPE   H8R 5175   1.249   4.782  10.690
   40SAPE   C29 5176   1.253   4.751  10.899
   40SAPE   H9R 5177   1.247   4.860  10.917
   40SAPE  C210 5178   1.259   4.667  11.024
   40SAPE  H10R 5179   1.342   4.704  11.088
   40SAPE  H10S 5180   1.285   4.562  11.000
   40SAPE  C211 5181   1.127   4.670  11.096
   40SAPE  H11R 5182   1.042   4.636  11.035
   40SAPE  C212 5183   1.103   4.708  11.223
   40SAPE  H12R 5184   0.999   4.698  11.259
   40SAPE  C213 5185   1.200   4.756  11.328
   40SAPE  H13R 5186   1.305   4.744  11.295
   40SAPE  H13S 5187   1.191   4.692  11.418
   40SAPE  C214 5188   1.176   4.900  11.364
   40SAPE  H14R 5189   1.215   4.971  11.290
   40SAPE  C215 5190   1.116   4.950  11.474
   40SAPE  H15R 5191   1.105   5.059  11.483
   40SAPE  C216 5192   1.055   4.874  11.590
   40SAPE  H16R 5193   1.071   4.765  11.583
   40SAPE  H16S 5194   0.946   4.891  11.589
   40SAPE  C217 5195   1.109   4.925  11.725
   40SAPE  H17R 5196   1.111   5.036  11.727
   40SAPE  H17S 5197   1.213   4.889  11.739
   40SAPE  C218 5198   1.021   4.879  11.843
   40SAPE  H18R 5199   1.022   4.768  11.848
   40SAPE  H18S 5200   0.916   4.910  11.823
   40SAPE  C219 5201   1.063   4.937  11.979
   40SAPE  H19R 5202   0.984   4.913  12.053
   40SAPE  H19S 5203   1.068   5.048  11.971
   40SAPE  C220 5204   1.197   4.884  12.031
   40SAPE  H20R 5205   1.217   4.924  12.133
   40SAPE  H20S 5206   1.280   4.916  11.964
   40SAPE  H20T 5207   1.196   4.773  12.037
   40SAPE   C33 5208   0.695   4.929  10.256
   40SAPE   H3X 5209   0.643   4.831  10.242
   40SAPE   H3Y 5210   0.673   4.993  10.168
   40SAPE   C34 5211   0.640   4.996  10.383
   40SAPE   H4X 5212   0.690   5.094  10.397
   40SAPE   H4Y 5213   0.666   4.933  10.470
   40SAPE   C35 5214   0.488   5.017  10.379
   40SAPE   H5X 5215   0.438   4.918  10.369
   40SAPE   H5Y 5216   0.461   5.078  10.290
   40SAPE   C36 5217   0.433   5.089  10.504
   40SAPE   H6X 5218   0.322   5.093  10.496
   40SAPE   H6Y 5219   0.469   0.003  10.502
   40SAPE   C37 5220   0.472   5.027  10.639
   40SAPE   H7X 5221   0.424   5.087  10.719
   40SAPE   H7Y 5222   0.582   5.035  10.653
   40SAPE   C38 5223   0.430   4.880  10.654
   40SAPE   H8X 5224   0.476   4.820  10.572
   40SAPE   H8Y 5225   0.320   4.871  10.644
   40SAPE   C39 5226   0.473   4.817  10.788
   40SAPE   H9X 5227   0.583   4.828  10.799
   40SAPE   H9Y 5228   0.451   4.709  10.786
   40SAPE  C310 5229   0.404   4.880  10.910
   40SAPE  H10X 5230   0.294   4.868  10.900
   40SAPE  H10Y 5231   0.426   4.989  10.911
   40SAPE  C311 5232   0.451   4.822  11.043
   40SAPE  H11X 5233   0.420   4.891  11.125
   40SAPE  H11Y 5234   0.562   4.818  11.043
   40SAPE  C312 5235   0.396   4.683  11.076
   40SAPE  H12X 5236   0.418   4.613  10.993
   40SAPE  H12Y 5237   0.285   4.689  11.088
   40SAPE  C313 5238   0.458   4.630  11.206
   40SAPE  H13X 5239   0.443   4.704  11.287
   40SAPE  H13Y 5240   0.567   4.619  11.189
   40SAPE  C314 5241   0.401   4.495  11.252
   40SAPE  H14X 5242   0.402   4.423  11.168
   40SAPE  H14Y 5243   0.295   4.509  11.284
   40SAPE  C315 5244   0.485   4.440  11.368
   40SAPE  H15X 5245   0.493   4.520  11.445
   40SAPE  H15Y 5246   0.587   4.421  11.330
   40SAPE  C316 5247   0.431   4.312  11.432
   40SAPE  H16X 5248   0.514   4.262  11.487
   40SAPE  H16Y 5249   0.399   4.243  11.351
   40SAPE  C317 5250   0.317   4.333  11.532
   40SAPE  H17X 5251   0.280   4.233  11.562
   40SAPE  H17Y 5252   0.233   4.386  11.481
   40SAPE  C318 5253   0.354   4.410  11.659
   40SAPE  H18X 5254   0.268   4.415  11.729
   40SAPE  H18Y 5255   0.384   4.515  11.635
   40SAPE  H18Z 5256   0.439   4.361  11.711
   41CHL1    C3 5257   2.439   3.273  13.725
   41CHL1    H3 5258   2.534   3.223  13.696
   41CHL1    O3 5259   2.439   3.288  13.866
   41CHL1   H3' 5260   2.348   3.276  13.895
   41CHL1    C4 5261   2.430   3.411  13.659
   41CHL1   H4A 5262   2.339   3.463  13.696
   41CHL1   H4B 5263   2.517   3.471  13.694
   41CHL1    C5 5264   2.427   3.398  13.508
   41CHL1    C6 5265   2.522   3.454  13.432
   41CHL1    H6 5266   2.602   3.513  13.480
   41CHL1    C7 5267   2.526   3.445  13.283
   41CHL1   H7A 5268   2.550   3.544  13.239
   41CHL1   H7B 5269   2.605   3.374  13.252
   41CHL1    C8 5270   2.390   3.398  13.224
   41CHL1    H8 5271   2.320   3.483  13.232
   41CHL1   C14 5272   2.408   3.357  13.078
   41CHL1   H14 5273   2.473   3.267  13.079
   41CHL1   C15 5274   2.480   3.456  12.986
   41CHL1  H15A 5275   2.440   3.559  13.002
   41CHL1  H15B 5276   2.590   3.457  13.004
   41CHL1   C16 5277   2.444   3.406  12.845
   41CHL1  H16A 5278   2.407   3.492  12.785
   41CHL1  H16B 5279   2.532   3.362  12.794
   41CHL1   C17 5280   2.333   3.298  12.862
   41CHL1   H17 5281   2.384   3.199  12.860
   41CHL1   C13 5282   2.280   3.316  13.006
   41CHL1   C18 5283   2.178   3.432  13.007
   41CHL1  H18A 5284   2.085   3.403  12.955
   41CHL1  H18B 5285   2.151   3.461  13.110
   41CHL1  H18C 5286   2.219   3.522  12.956
   41CHL1   C12 5287   2.228   3.191  13.080
   41CHL1  H12A 5288   2.132   3.155  13.036
   41CHL1  H12B 5289   2.304   3.110  13.068
   41CHL1   C11 5290   2.207   3.218  13.230
   41CHL1  H11A 5291   2.122   3.288  13.238
   41CHL1  H11B 5292   2.178   3.123  13.281
   41CHL1    C9 5293   2.333   3.278  13.301
   41CHL1    H9 5294   2.411   3.199  13.293
   41CHL1   C10 5295   2.315   3.307  13.453
   41CHL1   C19 5296   2.178   3.376  13.475
   41CHL1  H19A 5297   2.095   3.305  13.453
   41CHL1  H19B 5298   2.165   3.409  13.580
   41CHL1  H19C 5299   2.168   3.464  13.408
   41CHL1    C1 5300   2.318   3.172  13.530
   41CHL1   H1A 5301   2.230   3.112  13.499
   41CHL1   H1B 5302   2.410   3.117  13.498
   41CHL1    C2 5303   2.321   3.185  13.683
   41CHL1   H2A 5304   2.332   3.084  13.729
   41CHL1   H2B 5305   2.226   3.230  13.718
   41CHL1   C20 5306   2.234   3.300  12.744
   41CHL1   H20 5307   2.185   3.400  12.739
   41CHL1   C21 5308   2.125   3.193  12.763
   41CHL1  H21A 5309   2.062   3.215  12.852
   41CHL1  H21B 5310   2.170   3.092  12.773
   41CHL1  H21C 5311   2.056   3.193  12.676
   41CHL1   C22 5312   2.307   3.279  12.609
   41CHL1  H22A 5313   2.388   3.354  12.598
   41CHL1  H22B 5314   2.355   3.178  12.611
   41CHL1   C23 5315   2.219   3.290  12.483
   41CHL1  H23A 5316   2.142   3.210  12.485
   41CHL1  H23B 5317   2.168   3.389  12.482
   41CHL1   C24 5318   2.303   3.274  12.355
   41CHL1  H24A 5319   2.383   3.352  12.356
   41CHL1  H24B 5320   2.353   3.175  12.357
   41CHL1   C25 5321   2.224   3.287  12.223
   41CHL1   H25 5322   2.173   3.385  12.222
   41CHL1   C26 5323   2.322   3.283  12.105
   41CHL1  H26A 5324   2.398   3.363  12.115
   41CHL1  H26B 5325   2.375   3.185  12.102
   41CHL1  H26C 5326   2.268   3.296  12.009
   41CHL1   C27 5327   2.119   3.176  12.207
   41CHL1  H27A 5328   2.167   3.076  12.213
   41CHL1  H27B 5329   2.042   3.183  12.287
   41CHL1  H27C 5330   2.068   3.185  12.109
   42CHL1    C3 5331   3.398   3.413  13.777
   42CHL1    H3 5332   3.500   3.376  13.756
   42CHL1    O3 5333   3.383   3.432  13.917
   42CHL1   H3' 5334   3.434   3.509  13.940
   42CHL1    C4 5335   3.377   3.547  13.705
   42CHL1   H4A 5336   3.280   3.590  13.738
   42CHL1   H4B 5337   3.455   3.618  13.740
   42CHL1    C5 5338   3.378   3.532  13.554
   42CHL1    C6 5339   3.464   3.601  13.478
   42CHL1    H6 5340   3.536   3.669  13.526
   42CHL1    C7 5341   3.467   3.596  13.328
   42CHL1   H7A 5342   3.476   3.699  13.286
   42CHL1   H7B 5343   3.558   3.541  13.296
   42CHL1    C8 5344   3.342   3.528  13.266
   42CHL1    H8 5345   3.258   3.601  13.267
   42CHL1   C14 5346   3.374   3.487  13.122
   42CHL1   H14 5347   3.454   3.411  13.132
   42CHL1   C15 5348   3.430   3.594  13.027
   42CHL1  H15A 5349   3.367   3.685  13.030
   42CHL1  H15B 5350   3.535   3.623  13.052
   42CHL1   C16 5351   3.420   3.525  12.890
   42CHL1  H16A 5352   3.370   3.594  12.818
   42CHL1  H16B 5353   3.521   3.500  12.850
   42CHL1   C17 5354   3.336   3.395  12.910
   42CHL1   H17 5355   3.408   3.313  12.928
   42CHL1   C13 5356   3.263   3.416  13.045
   42CHL1   C18 5357   3.143   3.510  13.021
   42CHL1  H18A 5358   3.172   3.600  12.962
   42CHL1  H18B 5359   3.062   3.457  12.966
   42CHL1  H18C 5360   3.102   3.544  13.118
   42CHL1   C12 5361   3.220   3.293  13.128
   42CHL1  H12A 5362   3.134   3.241  13.081
   42CHL1  H12B 5363   3.306   3.224  13.134
   42CHL1   C11 5364   3.185   3.330  13.273
   42CHL1  H11A 5365   3.094   3.393  13.273
   42CHL1  H11B 5366   3.160   3.237  13.329
   42CHL1    C9 5367   3.301   3.404  13.345
   42CHL1    H9 5368   3.388   3.335  13.339
   42CHL1   C10 5369   3.279   3.429  13.497
   42CHL1   C19 5370   3.136   3.481  13.519
   42CHL1  H19A 5371   3.120   3.574  13.459
   42CHL1  H19B 5372   3.060   3.405  13.490
   42CHL1  H19C 5373   3.116   3.505  13.626
   42CHL1    C1 5374   3.299   3.295  13.575
   42CHL1   H1A 5375   3.219   3.224  13.545
   42CHL1   H1B 5376   3.396   3.251  13.546
   42CHL1    C2 5377   3.296   3.309  13.728
   42CHL1   H2A 5378   3.317   3.211  13.776
   42CHL1   H2B 5379   3.194   3.340  13.761
   42CHL1   C20 5380   3.258   3.357  12.782
   42CHL1   H20 5381   3.190   3.441  12.755
   42CHL1   C21 5382   3.171   3.231  12.805
   42CHL1  H21A 5383   3.234   3.147  12.841
   42CHL1  H21B 5384   3.122   3.200  12.711
   42CHL1  H21C 5385   3.091   3.252  12.879
   42CHL1   C22 5386   3.355   3.334  12.662
   42CHL1  H22A 5387   3.422   3.422  12.651
   42CHL1  H22B 5388   3.420   3.247  12.687
   42CHL1   C23 5389   3.292   3.309  12.524
   42CHL1  H23A 5390   3.376   3.284  12.455
   42CHL1  H23B 5391   3.225   3.220  12.526
   42CHL1   C24 5392   3.216   3.430  12.467
   42CHL1  H24A 5393   3.129   3.451  12.533
   42CHL1  H24B 5394   3.283   3.519  12.469
   42CHL1   C25 5395   3.164   3.411  12.323
   42CHL1   H25 5396   3.106   3.316  12.319
   42CHL1   C26 5397   3.071   3.526  12.284
   42CHL1  H26A 5398   3.125   3.623  12.291
   42CHL1  H26B 5399   3.035   3.514  12.179
   42CHL1  H26C 5400   2.983   3.530  12.351
   42CHL1   C27 5401   3.278   3.400  12.220
   42CHL1  H27A 5402   3.340   3.492  12.222
   42CHL1  H27B 5403   3.343   3.313  12.241
   42CHL1  H27C 5404   3.237   3.388  12.117
   43CHL1    C3 5405   3.484   2.847  13.731
   43CHL1    H3 5406   3.523   2.951  13.725
   43CHL1    O3 5407   3.447   2.820  13.865
   43CHL1   H3' 5408   3.519   2.853  13.919
   43CHL1    C4 5409   3.361   2.833  13.638
   43CHL1   H4A 5410   3.319   2.731  13.651
   43CHL1   H4B 5411   3.283   2.904  13.674
   43CHL1    C5 5412   3.400   2.858  13.494
   43CHL1    C6 5413   3.345   2.958  13.423
   43CHL1    H6 5414   3.267   3.020  13.469
   43CHL1    C7 5415   3.381   2.988  13.281
   43CHL1   H7A 5416   3.290   3.010  13.221
   43CHL1   H7B 5417   3.444   3.080  13.279
   43CHL1    C8 5418   3.459   2.874  13.210
   43CHL1    H8 5419   3.388   2.792  13.185
   43CHL1   C14 5420   3.522   2.928  13.084
   43CHL1   H14 5421   3.593   3.007  13.118
   43CHL1   C15 5422   3.430   2.999  12.983
   43CHL1  H15A 5423   3.336   2.941  12.969
   43CHL1  H15B 5424   3.406   3.102  13.016
   43CHL1   C16 5425   3.512   3.003  12.854
   43CHL1  H16A 5426   3.456   2.953  12.773
   43CHL1  H16B 5427   3.533   3.108  12.825
   43CHL1   C17 5428   3.645   2.927  12.885
   43CHL1   H17 5429   3.714   3.002  12.930
   43CHL1   C13 5430   3.608   2.832  13.002
   43CHL1   C18 5431   3.522   2.715  12.946
   43CHL1  H18A 5432   3.476   2.657  13.029
   43CHL1  H18B 5433   3.441   2.751  12.879
   43CHL1  H18C 5434   3.587   2.646  12.888
   43CHL1   C12 5435   3.720   2.780  13.094
   43CHL1  H12A 5436   3.778   2.700  13.042
   43CHL1  H12B 5437   3.789   2.863  13.119
   43CHL1   C11 5438   3.663   2.721  13.225
   43CHL1  H11A 5439   3.609   2.627  13.200
   43CHL1  H11B 5440   3.749   2.693  13.291
   43CHL1    C9 5441   3.568   2.819  13.301
   43CHL1    H9 5442   3.632   2.907  13.324
   43CHL1   C10 5443   3.514   2.769  13.438
   43CHL1   C19 5444   3.460   2.625  13.421
   43CHL1  H19A 5445   3.416   2.586  13.516
   43CHL1  H19B 5446   3.382   2.621  13.342
   43CHL1  H19C 5447   3.542   2.556  13.394
   43CHL1    C1 5448   3.631   2.771  13.540
   43CHL1   H1A 5449   3.703   2.693  13.507
   43CHL1   H1B 5450   3.683   2.869  13.534
   43CHL1    C2 5451   3.592   2.748  13.687
   43CHL1   H2A 5452   3.681   2.758  13.753
   43CHL1   H2B 5453   3.551   2.645  13.699
   43CHL1   C20 5454   3.715   2.875  12.759
   43CHL1   H20 5455   3.664   2.782  12.726
   43CHL1   C21 5456   3.862   2.843  12.792
   43CHL1  H21A 5457   3.914   2.933  12.832
   43CHL1  H21B 5458   3.915   2.810  12.701
   43CHL1  H21C 5459   3.870   2.763  12.868
   43CHL1   C22 5460   3.712   2.975  12.639
   43CHL1  H22A 5461   3.643   3.061  12.655
   43CHL1  H22B 5462   3.813   3.021  12.628
   43CHL1   C23 5463   3.669   2.909  12.508
   43CHL1  H23A 5464   3.748   2.837  12.477
   43CHL1  H23B 5465   3.575   2.853  12.527
   43CHL1   C24 5466   3.644   3.010  12.395
   43CHL1  H24A 5467   3.568   3.083  12.430
   43CHL1  H24B 5468   3.738   3.065  12.374
   43CHL1   C25 5469   3.592   2.950  12.262
   43CHL1   H25 5470   3.577   3.035  12.192
   43CHL1   C26 5471   3.695   2.857  12.196
   43CHL1  H26A 5472   3.715   2.768  12.261
   43CHL1  H26B 5473   3.658   2.821  12.098
   43CHL1  H26C 5474   3.791   2.910  12.180
   43CHL1   C27 5475   3.456   2.880  12.278
   43CHL1  H27A 5476   3.465   2.791  12.343
   43CHL1  H27B 5477   3.382   2.950  12.322
   43CHL1  H27C 5478   3.418   2.847  12.179
   44CHL1    C3 5479   1.521   3.360  13.772
   44CHL1    H3 5480   1.610   3.424  13.755
   44CHL1    O3 5481   1.533   3.296  13.900
   44CHL1   H3' 5482   1.624   3.314  13.924
   44CHL1    C4 5483   1.395   3.449  13.769
   44CHL1   H4A 5484   1.309   3.388  13.804
   44CHL1   H4B 5485   1.409   3.530  13.843
   44CHL1    C5 5486   1.364   3.504  13.631
   44CHL1    C6 5487   1.349   3.636  13.607
   44CHL1    H6 5488   1.357   3.709  13.689
   44CHL1    C7 5489   1.310   3.692  13.472
   44CHL1   H7A 5490   1.236   3.774  13.484
   44CHL1   H7B 5491   1.399   3.736  13.423
   44CHL1    C8 5492   1.250   3.583  13.379
   44CHL1    H8 5493   1.152   3.552  13.420
   44CHL1   C14 5494   1.229   3.637  13.238
   44CHL1   H14 5495   1.329   3.669  13.201
   44CHL1   C15 5496   1.138   3.760  13.224
   44CHL1  H15A 5497   1.047   3.746  13.286
   44CHL1  H15B 5498   1.191   3.852  13.257
   44CHL1   C16 5499   1.101   3.761  13.075
   44CHL1  H16A 5500   0.990   3.766  13.067
   44CHL1  H16B 5501   1.146   3.848  13.023
   44CHL1   C17 5502   1.152   3.628  13.013
   44CHL1   H17 5503   1.251   3.649  12.969
   44CHL1   C13 5504   1.177   3.536  13.135
   44CHL1   C18 5505   1.041   3.477  13.181
   44CHL1  H18A 5506   1.049   3.426  13.279
   44CHL1  H18B 5507   0.963   3.556  13.190
   44CHL1  H18C 5508   1.005   3.402  13.107
   44CHL1   C12 5509   1.287   3.428  13.124
   44CHL1  H12A 5510   1.259   3.349  13.051
   44CHL1  H12B 5511   1.381   3.476  13.087
   44CHL1   C11 5512   1.315   3.362  13.260
   44CHL1  H11A 5513   1.225   3.301  13.284
   44CHL1  H11B 5514   1.400   3.291  13.250
   44CHL1    C9 5515   1.345   3.462  13.376
   44CHL1    H9 5516   1.444   3.505  13.352
   44CHL1   C10 5517   1.358   3.399  13.518
   44CHL1   C19 5518   1.235   3.310  13.545
   44CHL1  H19A 5519   1.140   3.365  13.526
   44CHL1  H19B 5520   1.240   3.223  13.476
   44CHL1  H19C 5521   1.232   3.268  13.648
   44CHL1    C1 5522   1.488   3.313  13.525
   44CHL1   H1A 5523   1.482   3.232  13.450
   44CHL1   H1B 5524   1.574   3.378  13.497
   44CHL1    C2 5525   1.517   3.252  13.663
   44CHL1   H2A 5526   1.614   3.198  13.661
   44CHL1   H2B 5527   1.437   3.178  13.687
   44CHL1   C20 5528   1.060   3.579  12.898
   44CHL1   H20 5529   0.960   3.557  12.939
   44CHL1   C21 5530   1.118   3.450  12.837
   44CHL1  H21A 5531   1.111   3.366  12.910
   44CHL1  H21B 5532   1.224   3.464  12.807
   44CHL1  H21C 5533   1.060   3.418  12.747
   44CHL1   C22 5534   1.041   3.684  12.785
   44CHL1  H22A 5535   1.026   3.785  12.828
   44CHL1  H22B 5536   1.133   3.687  12.724
   44CHL1   C23 5537   0.919   3.656  12.693
   44CHL1  H23A 5538   0.920   3.550  12.662
   44CHL1  H23B 5539   0.826   3.674  12.752
   44CHL1   C24 5540   0.916   3.741  12.564
   44CHL1  H24A 5541   0.921   3.849  12.588
   44CHL1  H24B 5542   1.006   3.715  12.504
   44CHL1   C25 5543   0.791   3.722  12.475
   44CHL1   H25 5544   0.771   3.613  12.466
   44CHL1   C26 5545   0.667   3.790  12.537
   44CHL1  H26A 5546   0.578   3.771  12.474
   44CHL1  H26B 5547   0.648   3.752  12.639
   44CHL1  H26C 5548   0.683   3.900  12.543
   44CHL1   C27 5549   0.816   3.778  12.334
   44CHL1  H27A 5550   0.837   3.886  12.338
   44CHL1  H27B 5551   0.903   3.726  12.287
   44CHL1  H27C 5552   0.726   3.762  12.270
   45CHL1    C3 5553   1.808   1.488  13.767
   45CHL1    H3 5554   1.742   1.574  13.741
   45CHL1    O3 5555   1.799   1.462  13.906
   45CHL1   H3' 5556   1.853   1.529  13.948
   45CHL1    C4 5557   1.763   1.364  13.688
   45CHL1   H4A 5558   1.821   1.276  13.724
   45CHL1   H4B 5559   1.657   1.343  13.715
   45CHL1    C5 5560   1.781   1.380  13.538
   45CHL1    C6 5561   1.679   1.365  13.453
   45CHL1    H6 5562   1.579   1.337  13.491
   45CHL1    C7 5563   1.693   1.376  13.303
   45CHL1   H7A 5564   1.638   1.293  13.253
   45CHL1   H7B 5565   1.648   1.472  13.269
   45CHL1    C8 5566   1.840   1.373  13.257
   45CHL1    H8 5567   1.877   1.269  13.266
   45CHL1   C14 5568   1.850   1.417  13.111
   45CHL1   H14 5569   1.813   1.522  13.108
   45CHL1   C15 5570   1.765   1.340  13.009
   45CHL1  H15A 5571   1.777   1.231  13.026
   45CHL1  H15B 5572   1.658   1.367  13.015
   45CHL1   C16 5573   1.827   1.380  12.874
   45CHL1  H16A 5574   1.843   1.288  12.813
   45CHL1  H16B 5575   1.760   1.449  12.818
   45CHL1   C17 5576   1.963   1.452  12.905
   45CHL1   H17 5577   1.944   1.561  12.898
   45CHL1   C13 5578   1.992   1.422  13.054
   45CHL1   C18 5579   2.058   1.282  13.065
   45CHL1  H18A 5580   2.002   1.208  13.005
   45CHL1  H18B 5581   2.163   1.285  13.028
   45CHL1  H18C 5582   2.062   1.246  13.170
   45CHL1   C12 5583   2.069   1.528  13.136
   45CHL1  H12A 5584   2.174   1.536  13.102
   45CHL1  H12B 5585   2.020   1.626  13.122
   45CHL1   C11 5586   2.068   1.492  13.286
   45CHL1  H11A 5587   2.133   1.402  13.299
   45CHL1  H11B 5588   2.117   1.574  13.343
   45CHL1    C9 5589   1.926   1.466  13.344
   45CHL1    H9 5590   1.875   1.564  13.339
   45CHL1   C10 5591   1.922   1.423  13.494
   45CHL1   C19 5592   2.018   1.303  13.515
   45CHL1  H19A 5593   1.992   1.219  13.447
   45CHL1  H19B 5594   2.123   1.332  13.497
   45CHL1  H19C 5595   2.013   1.264  13.619
   45CHL1    C1 5596   1.969   1.543  13.581
   45CHL1   H1A 5597   2.077   1.561  13.559
   45CHL1   H1B 5598   1.913   1.634  13.550
   45CHL1    C2 5599   1.953   1.524  13.732
   45CHL1   H2A 5600   1.983   1.617  13.785
   45CHL1   H2B 5601   2.020   1.442  13.766
   45CHL1   C20 5602   2.070   1.416  12.800
   45CHL1   H20 5603   2.088   1.307  12.804
   45CHL1   C21 5604   2.202   1.490  12.830
   45CHL1  H21A 5605   2.184   1.599  12.838
   45CHL1  H21B 5606   2.275   1.471  12.748
   45CHL1  H21C 5607   2.248   1.454  12.924
   45CHL1   C22 5608   2.026   1.448  12.654
   45CHL1  H22A 5609   1.916   1.439  12.642
   45CHL1  H22B 5610   2.053   1.554  12.631
   45CHL1   C23 5611   2.090   1.354  12.551
   45CHL1  H23A 5612   2.201   1.355  12.564
   45CHL1  H23B 5613   2.054   1.251  12.571
   45CHL1   C24 5614   2.055   1.392  12.406
   45CHL1  H24A 5615   1.945   1.406  12.399
   45CHL1  H24B 5616   2.103   1.489  12.382
   45CHL1   C25 5617   2.096   1.287  12.301
   45CHL1   H25 5618   2.040   1.193  12.323
   45CHL1   C26 5619   2.055   1.334  12.160
   45CHL1  H26A 5620   2.083   1.258  12.084
   45CHL1  H26B 5621   1.945   1.352  12.156
   45CHL1  H26C 5622   2.107   1.429  12.135
   45CHL1   C27 5623   2.246   1.253  12.303
   45CHL1  H27A 5624   2.276   1.214  12.402
   45CHL1  H27B 5625   2.269   1.176  12.226
   45CHL1  H27C 5626   2.306   1.344  12.280
   46CHL1    C3 5627   1.156   2.694  13.731
   46CHL1    H3 5628   1.180   2.784  13.671
   46CHL1    O3 5629   1.179   2.726  13.868
   46CHL1   H3' 5630   1.167   2.644  13.916
   46CHL1    C4 5631   1.010   2.652  13.708
   46CHL1   H4A 5632   0.989   2.561  13.767
   46CHL1   H4B 5633   0.945   2.733  13.748
   46CHL1    C5 5634   0.981   2.625  13.561
   46CHL1    C6 5635   0.881   2.685  13.496
   46CHL1    H6 5636   0.813   2.753  13.550
   46CHL1    C7 5637   0.848   2.665  13.350
   46CHL1   H7A 5638   0.743   2.633  13.338
   46CHL1   H7B 5639   0.856   2.764  13.300
   46CHL1    C8 5640   0.939   2.563  13.275
   46CHL1    H8 5641   0.890   2.464  13.278
   46CHL1   C14 5642   0.959   2.608  13.130
   46CHL1   H14 5643   1.017   2.702  13.139
   46CHL1   C15 5644   0.836   2.649  13.047
   46CHL1  H15A 5645   0.760   2.568  13.049
   46CHL1  H15B 5646   0.790   2.743  13.083
   46CHL1   C16 5647   0.896   2.665  12.906
   46CHL1  H16A 5648   0.835   2.608  12.833
   46CHL1  H16B 5649   0.900   2.772  12.877
   46CHL1   C17 5650   1.042   2.607  12.913
   46CHL1   H17 5651   1.108   2.693  12.937
   46CHL1   C13 5652   1.044   2.519  13.040
   46CHL1   C18 5653   0.972   2.384  13.014
   46CHL1  H18A 5654   1.035   2.318  12.951
   46CHL1  H18B 5655   0.952   2.332  13.109
   46CHL1  H18C 5656   0.875   2.399  12.961
   46CHL1   C12 5657   1.182   2.499  13.107
   46CHL1  H12A 5658   1.241   2.422  13.052
   46CHL1  H12B 5659   1.237   2.595  13.103
   46CHL1   C11 5660   1.168   2.456  13.254
   46CHL1  H11A 5661   1.123   2.354  13.258
   46CHL1  H11B 5662   1.271   2.451  13.297
   46CHL1    C9 5663   1.079   2.553  13.337
   46CHL1    H9 5664   1.125   2.653  13.322
   46CHL1   C10 5665   1.081   2.531  13.490
   46CHL1   C19 5666   1.027   2.390  13.524
   46CHL1  H19A 5667   1.037   2.369  13.633
   46CHL1  H19B 5668   0.920   2.380  13.497
   46CHL1  H19C 5669   1.082   2.311  13.469
   46CHL1    C1 5670   1.228   2.552  13.539
   46CHL1   H1A 5671   1.289   2.464  13.511
   46CHL1   H1B 5672   1.270   2.640  13.486
   46CHL1    C2 5673   1.246   2.579  13.689
   46CHL1   H2A 5674   1.353   2.603  13.711
   46CHL1   H2B 5675   1.219   2.488  13.747
   46CHL1   C20 5676   1.091   2.559  12.775
   46CHL1   H20 5677   1.012   2.494  12.731
   46CHL1   C21 5678   1.221   2.477  12.786
   46CHL1  H21A 5679   1.259   2.451  12.684
   46CHL1  H21B 5680   1.204   2.382  12.840
   46CHL1  H21C 5681   1.299   2.536  12.838
   46CHL1   C22 5682   1.115   2.680  12.681
   46CHL1  H22A 5683   1.038   2.759  12.698
   46CHL1  H22B 5684   1.213   2.725  12.708
   46CHL1   C23 5685   1.114   2.649  12.530
   46CHL1  H23A 5686   1.166   2.731  12.476
   46CHL1  H23B 5687   1.171   2.555  12.510
   46CHL1   C24 5688   0.971   2.636  12.475
   46CHL1  H24A 5689   0.921   2.555  12.531
   46CHL1  H24B 5690   0.915   2.730  12.495
   46CHL1   C25 5691   0.964   2.604  12.325
   46CHL1   H25 5692   1.040   2.526  12.303
   46CHL1   C26 5693   0.826   2.546  12.289
   46CHL1  H26A 5694   0.747   2.620  12.314
   46CHL1  H26B 5695   0.821   2.523  12.181
   46CHL1  H26C 5696   0.807   2.453  12.347
   46CHL1   C27 5697   0.994   2.727  12.238
   46CHL1  H27A 5698   0.987   2.702  12.131
   46CHL1  H27B 5699   0.921   2.808  12.260
   46CHL1  H27C 5700   1.096   2.766  12.259
   47CHL1    C3 5701   2.295   0.861  13.760
   47CHL1    H3 5702   2.289   0.971  13.752
   47CHL1    O3 5703   2.308   0.825  13.896
   47CHL1   H3' 5704   2.282   0.905  13.943
   47CHL1    C4 5705   2.168   0.798  13.701
   47CHL1   H4A 5706   2.173   0.688  13.715
   47CHL1   H4B 5707   2.081   0.832  13.761
   47CHL1    C5 5708   2.152   0.831  13.553
   47CHL1    C6 5709   2.040   0.888  13.506
   47CHL1    H6 5710   1.957   0.909  13.575
   47CHL1    C7 5711   2.017   0.919  13.361
   47CHL1   H7A 5712   1.916   0.885  13.330
   47CHL1   H7B 5713   2.021   1.029  13.346
   47CHL1    C8 5714   2.122   0.853  13.266
   47CHL1    H8 5715   2.097   0.746  13.256
   47CHL1   C14 5716   2.116   0.920  13.129
   47CHL1   H14 5717   2.145   1.026  13.147
   47CHL1   C15 5718   1.979   0.925  13.059
   47CHL1  H15A 5719   1.927   0.828  13.071
   47CHL1  H15B 5720   1.915   1.006  13.101
   47CHL1   C16 5721   2.014   0.948  12.912
   47CHL1  H16A 5722   1.974   0.863  12.853
   47CHL1  H16B 5723   1.971   1.042  12.871
   47CHL1   C17 5724   2.171   0.949  12.902
   47CHL1   H17 5725   2.203   1.054  12.919
   47CHL1   C13 5726   2.216   0.869  13.026
   47CHL1   C18 5727   2.193   0.719  12.995
   47CHL1  H18A 5728   2.091   0.699  12.954
   47CHL1  H18B 5729   2.268   0.682  12.922
   47CHL1  H18C 5730   2.205   0.659  13.087
   47CHL1   C12 5731   2.357   0.891  13.084
   47CHL1  H12A 5732   2.435   0.849  13.016
   47CHL1  H12B 5733   2.374   1.000  13.094
   47CHL1   C11 5734   2.372   0.823  13.222
   47CHL1  H11A 5735   2.368   0.713  13.206
   47CHL1  H11B 5736   2.474   0.845  13.262
   47CHL1    C9 5737   2.263   0.866  13.324
   47CHL1    H9 5738   2.279   0.975  13.340
   47CHL1   C10 5739   2.276   0.801  13.466
   47CHL1   C19 5740   2.284   0.648  13.452
   47CHL1  H19A 5741   2.192   0.610  13.402
   47CHL1  H19B 5742   2.372   0.616  13.393
   47CHL1  H19C 5743   2.291   0.598  13.551
   47CHL1    C1 5744   2.405   0.853  13.535
   47CHL1   H1A 5745   2.494   0.817  13.479
   47CHL1   H1B 5746   2.404   0.964  13.529
   47CHL1    C2 5747   2.419   0.814  13.683
   47CHL1   H2A 5748   2.510   0.860  13.726
   47CHL1   H2B 5749   2.428   0.703  13.693
   47CHL1   C20 5750   2.222   0.907  12.763
   47CHL1   H20 5751   2.206   0.797  12.752
   47CHL1   C21 5752   2.373   0.937  12.751
   47CHL1  H21A 5753   2.407   0.922  12.646
   47CHL1  H21B 5754   2.432   0.869  12.815
   47CHL1  H21C 5755   2.393   1.042  12.780
   47CHL1   C22 5756   2.144   0.974  12.647
   47CHL1  H22A 5757   2.035   0.961  12.661
   47CHL1  H22B 5758   2.166   1.083  12.649
   47CHL1   C23 5759   2.175   0.918  12.506
   47CHL1  H23A 5760   2.098   0.958  12.436
   47CHL1  H23B 5761   2.273   0.958  12.472
   47CHL1   C24 5762   2.177   0.764  12.498
   47CHL1  H24A 5763   2.271   0.729  12.547
   47CHL1  H24B 5764   2.092   0.722  12.555
   47CHL1   C25 5765   2.174   0.706  12.355
   47CHL1   H25 5766   2.206   0.600  12.363
   47CHL1   C26 5767   2.032   0.706  12.295
   47CHL1  H26A 5768   1.965   0.642  12.356
   47CHL1  H26B 5769   1.990   0.809  12.293
   47CHL1  H26C 5770   2.034   0.667  12.192
   47CHL1   C27 5771   2.272   0.778  12.262
   47CHL1  H27A 5772   2.374   0.777  12.305
   47CHL1  H27B 5773   2.273   0.729  12.162
   47CHL1  H27C 5774   2.241   0.884  12.247
   48CHL1    C3 5775   1.145   1.549  13.733
   48CHL1    H3 5776   1.105   1.649  13.707
   48CHL1    O3 5777   1.144   1.535  13.875
   48CHL1   H3' 5778   1.225   1.488  13.896
   48CHL1    C4 5779   1.055   1.440  13.671
   48CHL1   H4A 5780   1.084   1.342  13.713
   48CHL1   H4B 5781   0.951   1.459  13.706
   48CHL1    C5 5782   1.064   1.437  13.519
   48CHL1    C6 5783   0.955   1.449  13.441
   48CHL1    H6 5784   0.856   1.459  13.488
   48CHL1    C7 5785   0.959   1.442  13.291
   48CHL1   H7A 5786   0.873   1.381  13.254
   48CHL1   H7B 5787   0.947   1.544  13.249
   48CHL1    C8 5788   1.091   1.381  13.237
   48CHL1    H8 5789   1.090   1.272  13.257
   48CHL1   C14 5790   1.103   1.406  13.087
   48CHL1   H14 5791   1.106   1.516  13.076
   48CHL1   C15 5792   0.986   1.361  12.997
   48CHL1  H15A 5793   0.954   1.258  13.025
   48CHL1  H15B 5794   0.899   1.429  13.005
   48CHL1   C16 5795   1.048   1.361  12.856
   48CHL1  H16A 5796   1.035   1.261  12.810
   48CHL1  H16B 5797   0.999   1.437  12.791
   48CHL1   C17 5798   1.200   1.394  12.875
   48CHL1   H17 5799   1.208   1.505  12.874
   48CHL1   C13 5800   1.230   1.353  13.021
   48CHL1   C18 5801   1.239   1.199  13.030
   48CHL1  H18A 5802   1.152   1.149  12.981
   48CHL1  H18B 5803   1.331   1.162  12.981
   48CHL1  H18C 5804   1.241   1.165  13.136
   48CHL1   C12 5805   1.349   1.422  13.090
   48CHL1  H12A 5806   1.446   1.382  13.052
   48CHL1  H12B 5807   1.345   1.530  13.065
   48CHL1   C11 5808   1.346   1.403  13.243
   48CHL1  H11A 5809   1.368   1.296  13.262
   48CHL1  H11B 5810   1.427   1.464  13.288
   48CHL1    C9 5811   1.211   1.444  13.309
   48CHL1    H9 5812   1.201   1.553  13.291
   48CHL1   C10 5813   1.207   1.425  13.463
   48CHL1   C19 5814   1.260   1.283  13.497
   48CHL1  H19A 5815   1.250   1.260  13.606
   48CHL1  H19B 5816   1.205   1.206  13.440
   48CHL1  H19C 5817   1.368   1.275  13.473
   48CHL1    C1 5818   1.295   1.534  13.530
   48CHL1   H1A 5819   1.401   1.521  13.499
   48CHL1   H1B 5820   1.262   1.634  13.494
   48CHL1    C2 5821   1.289   1.535  13.684
   48CHL1   H2A 5822   1.350   1.620  13.723
   48CHL1   H2B 5823   1.333   1.441  13.722
   48CHL1   C20 5824   1.285   1.346  12.756
   48CHL1   H20 5825   1.267   1.237  12.740
   48CHL1   C21 5826   1.436   1.364  12.784
   48CHL1  H21A 5827   1.497   1.336  12.695
   48CHL1  H21B 5828   1.469   1.297  12.866
   48CHL1  H21C 5829   1.458   1.469  12.811
   48CHL1   C22 5830   1.242   1.422  12.627
   48CHL1  H22A 5831   1.139   1.389  12.600
   48CHL1  H22B 5832   1.238   1.530  12.650
   48CHL1   C23 5833   1.331   1.404  12.503
   48CHL1  H23A 5834   1.432   1.447  12.522
   48CHL1  H23B 5835   1.343   1.295  12.483
   48CHL1   C24 5836   1.272   1.473  12.379
   48CHL1  H24A 5837   1.178   1.423  12.350
   48CHL1  H24B 5838   1.247   1.578  12.406
   48CHL1   C25 5839   1.368   1.477  12.257
   48CHL1   H25 5840   1.460   1.530  12.288
   48CHL1   C26 5841   1.407   1.337  12.209
   48CHL1  H26A 5842   1.473   1.344  12.119
   48CHL1  H26B 5843   1.461   1.282  12.288
   48CHL1  H26C 5844   1.316   1.279  12.181
   48CHL1   C27 5845   1.304   1.557  12.142
   48CHL1  H27A 5846   1.212   1.506  12.106
   48CHL1  H27B 5847   1.277   1.659  12.175
   48CHL1  H27C 5848   1.376   1.565  12.057
   49CHL1    C3 5849   4.399   4.096  13.761
   49CHL1    H3 5850   4.292   4.068  13.749
   49CHL1    O3 5851   4.431   4.098  13.899
   49CHL1   H3' 5852   4.381   4.173  13.931
   49CHL1    C4 5853   4.486   3.993  13.687
   49CHL1   H4A 5854   4.592   4.015  13.710
   49CHL1   H4B 5855   4.465   3.893  13.731
   49CHL1    C5 5856   4.463   3.995  13.537
   49CHL1    C6 5857   4.428   3.884  13.469
   49CHL1    H6 5858   4.418   3.788  13.522
   49CHL1    C7 5859   4.411   3.879  13.319
   49CHL1   H7A 5860   4.462   3.789  13.277
   49CHL1   H7B 5861   4.303   3.870  13.294
   49CHL1    C8 5862   4.468   4.005  13.248
   49CHL1    H8 5863   4.579   3.998  13.250
   49CHL1   C14 5864   4.422   4.011  13.103
   49CHL1   H14 5865   4.311   4.016  13.106
   49CHL1   C15 5866   4.454   3.891  13.012
   49CHL1  H15A 5867   4.559   3.860  13.029
   49CHL1  H15B 5868   4.387   3.805  13.031
   49CHL1   C16 5869   4.439   3.948  12.870
   49CHL1  H16A 5870   4.531   3.927  12.812
   49CHL1  H16B 5871   4.353   3.902  12.817
   49CHL1   C17 5872   4.417   4.102  12.883
   49CHL1   H17 5873   4.307   4.118  12.884
   49CHL1   C13 5874   4.466   4.136  13.026
   49CHL1   C18 5875   4.621   4.144  13.023
   49CHL1  H18A 5876   4.653   4.236  12.969
   49CHL1  H18B 5877   4.665   4.149  13.125
   49CHL1  H18C 5878   4.666   4.057  12.971
   49CHL1   C12 5879   4.403   4.256  13.098
   49CHL1  H12A 5880   4.428   4.353  13.050
   49CHL1  H12B 5881   4.292   4.246  13.095
   49CHL1   C11 5882   4.448   4.264  13.245
   49CHL1  H11A 5883   4.556   4.290  13.245
   49CHL1  H11B 5884   4.394   4.347  13.295
   49CHL1    C9 5885   4.424   4.132  13.324
   49CHL1    H9 5886   4.313   4.123  13.330
   49CHL1   C10 5887   4.476   4.134  13.471
   49CHL1   C19 5888   4.625   4.176  13.472
   49CHL1  H19A 5889   4.636   4.282  13.440
   49CHL1  H19B 5890   4.669   4.168  13.573
   49CHL1  H19C 5891   4.685   4.112  13.403
   49CHL1    C1 5892   4.392   4.237  13.552
   49CHL1   H1A 5893   4.413   4.339  13.513
   49CHL1   H1B 5894   4.284   4.216  13.536
   49CHL1    C2 5895   4.420   4.236  13.703
   49CHL1   H2A 5896   4.352   4.309  13.754
   49CHL1   H2B 5897   4.524   4.269  13.723
   49CHL1   C20 5898   4.474   4.182  12.764
   49CHL1   H20 5899   4.585   4.169  12.762
   49CHL1   C21 5900   4.442   4.332  12.782
   49CHL1  H21A 5901   4.503   4.376  12.864
   49CHL1  H21B 5902   4.334   4.345  12.806
   49CHL1  H21C 5903   4.464   4.390  12.690
   49CHL1   C22 5904   4.421   4.135  12.627
   49CHL1  H22A 5905   4.420   4.024  12.620
   49CHL1  H22B 5906   4.316   4.170  12.617
   49CHL1   C23 5907   4.503   4.187  12.507
   49CHL1  H23A 5908   4.534   4.292  12.525
   49CHL1  H23B 5909   4.597   4.127  12.498
   49CHL1   C24 5910   4.424   4.182  12.375
   49CHL1  H24A 5911   4.398   4.077  12.352
   49CHL1  H24B 5912   4.329   4.238  12.391
   49CHL1   C25 5913   4.493   4.245  12.252
   49CHL1   H25 5914   4.422   4.235  12.167
   49CHL1   C26 5915   4.518   4.396  12.270
   49CHL1  H26A 5916   4.423   4.448  12.297
   49CHL1  H26B 5917   4.592   4.414  12.352
   49CHL1  H26C 5918   4.557   4.440  12.177
   49CHL1   C27 5919   4.621   4.170  12.213
   49CHL1  H27A 5920   4.664   4.213  12.121
   49CHL1  H27B 5921   4.696   4.177  12.295
   49CHL1  H27C 5922   4.598   4.063  12.196
   50CHL1    C3 5923   0.268   4.122  13.709
   50CHL1    H3 5924   0.332   4.032  13.696
   50CHL1    O3 5925   0.274   4.162  13.845
   50CHL1   H3' 5926   0.202   4.225  13.855
   50CHL1    C4 5927   0.322   4.236  13.622
   50CHL1   H4A 5928   0.262   4.327  13.644
   50CHL1   H4B 5929   0.426   4.258  13.655
   50CHL1    C5 5930   0.315   4.204  13.474
   50CHL1    C6 5931   0.425   4.205  13.397
   50CHL1    H6 5932   0.521   4.234  13.441
   50CHL1    C7 5933   0.424   4.177  13.250
   50CHL1   H7A 5934   0.488   4.250  13.196
   50CHL1   H7B 5935   0.465   4.076  13.231
   50CHL1    C8 5936   0.281   4.181  13.189
   50CHL1    H8 5937   0.251   4.288  13.184
   50CHL1   C14 5938   0.282   4.122  13.049
   50CHL1   H14 5939   0.309   4.015  13.061
   50CHL1   C15 5940   0.385   4.179  12.950
   50CHL1  H15A 5941   0.384   4.290  12.956
   50CHL1  H15B 5942   0.488   4.142  12.970
   50CHL1   C16 5943   0.332   4.133  12.814
   50CHL1  H16A 5944   0.327   4.221  12.746
   50CHL1  H16B 5945   0.398   4.056  12.768
   50CHL1   C17 5946   0.189   4.074  12.837
   50CHL1   H17 5947   0.202   3.964  12.845
   50CHL1   C13 5948   0.148   4.123  12.978
   50CHL1   C18 5949   0.095   4.268  12.964
   50CHL1  H18A 5950   5.187   4.268  12.913
   50CHL1  H18B 5951   0.080   4.317  13.063
   50CHL1  H18C 5952   0.164   4.332  12.904
   50CHL1   C12 5953   0.052   4.035  13.062
   50CHL1  H12A 5954   5.142   4.033  13.018
   50CHL1  H12B 5955   0.092   3.931  13.063
   50CHL1   C11 5956   0.043   4.085  13.208
   50CHL1  H11A 5957   5.179   4.182  13.204
   50CHL1  H11B 5958   5.173   4.014  13.266
   50CHL1    C9 5959   0.182   4.105  13.277
   50CHL1    H9 5960   0.224   4.002  13.286
   50CHL1   C10 5961   0.176   4.161  13.422
   50CHL1   C19 5962   0.086   4.287  13.422
   50CHL1  H19A 5963   0.121   4.361  13.348
   50CHL1  H19B 5964   5.173   4.259  13.398
   50CHL1  H19C 5965   0.084   4.336  13.522
   50CHL1    C1 5966   0.116   4.053  13.518
   50CHL1   H1A 5967   0.010   4.035  13.491
   50CHL1   H1B 5968   0.172   3.958  13.503
   50CHL1    C2 5969   0.124   4.088  13.668
   50CHL1   H2A 5970   0.087   4.002  13.728
   50CHL1   H2B 5971   0.058   4.175  13.689
   50CHL1   C20 5972   0.095   4.100  12.717
   50CHL1   H20 5973   0.077   4.209  12.710
   50CHL1   C21 5974   5.151   4.029  12.737
   50CHL1  H21A 5975   5.094   4.076  12.820
   50CHL1  H21B 5976   5.166   3.921  12.759
   50CHL1  H21C 5977   5.089   4.038  12.646
   50CHL1   C22 5978   0.156   4.057  12.580
   50CHL1  H22A 5979   0.264   4.083  12.576
   50CHL1  H22B 5980   0.148   3.947  12.568
   50CHL1   C23 5981   0.091   4.129  12.460
   50CHL1  H23A 5982   5.177   4.096  12.449
   50CHL1  H23B 5983   0.091   4.238  12.481
   50CHL1   C24 5984   0.168   4.106  12.329
   50CHL1  H24A 5985   0.275   4.126  12.347
   50CHL1  H24B 5986   0.158   4.000  12.297
   50CHL1   C25 5987   0.122   4.199  12.213
   50CHL1   H25 5988   0.126   4.303  12.251
   50CHL1   C26 5989   0.218   4.188  12.093
   50CHL1  H26A 5990   0.186   4.257  12.012
   50CHL1  H26B 5991   0.321   4.214  12.123
   50CHL1  H26C 5992   0.218   4.084  12.053
   50CHL1   C27 5993   5.169   4.170  12.169
   50CHL1  H27A 5994   5.161   4.066  12.129
   50CHL1  H27B 5995   5.099   4.180  12.254
   50CHL1  H27C 5996   5.139   4.240  12.089
   51CHL1    C3 5997   3.733   0.124  13.789
   51CHL1    H3 5998   3.823   0.064  13.815
   51CHL1    O3 5999   3.683   0.184  13.907
   51CHL1   H3' 6000   3.761   0.218  13.952
   51CHL1    C4 6001   3.770   0.235  13.689
   51CHL1   H4A 6002   3.680   0.298  13.675
   51CHL1   H4B 6003   3.848   0.299  13.736
   51CHL1    C5 6004   3.815   0.181  13.555
   51CHL1    C6 6005   3.932   0.217  13.498
   51CHL1    H6 6006   3.997   0.289  13.550
   51CHL1    C7 6007   3.975   0.176  13.359
   51CHL1   H7A 6008   4.008   0.264  13.300
   51CHL1   H7B 6009   4.062   0.107  13.366
   51CHL1    C8 6010   3.861   0.105  13.281
   51CHL1    H8 6011   3.787   0.182  13.250
   51CHL1   C14 6012   3.913   0.038  13.154
   51CHL1   H14 6013   3.997   5.164  13.185
   51CHL1   C15 6014   3.969   0.131  13.045
   51CHL1  H15A 6015   3.900   0.218  13.033
   51CHL1  H15B 6016   4.070   0.170  13.071
   51CHL1   C16 6017   3.967   0.045  12.918
   51CHL1  H16A 6018   3.912   0.099  12.838
   51CHL1  H16B 6019   4.069   0.021  12.882
   51CHL1   C17 6020   3.892   5.104  12.954
   51CHL1   H17 6021   3.969   5.030  12.985
   51CHL1   C13 6022   3.813   5.139  13.083
   51CHL1   C18 6023   3.686   0.027  13.042
   51CHL1  H18A 6024   3.709   0.106  12.967
   51CHL1  H18B 6025   3.610   5.151  12.997
   51CHL1  H18C 6026   3.638   0.076  13.129
   51CHL1   C12 6027   3.780   5.025  13.182
   51CHL1  H12A 6028   3.713   4.949  13.138
   51CHL1  H12B 6029   3.875   4.973  13.209
   51CHL1   C11 6030   3.715   5.081  13.309
   51CHL1  H11A 6031   3.612   5.116  13.283
   51CHL1  H11B 6032   3.705   4.999  13.383
   51CHL1    C9 6033   3.795   0.004  13.376
   51CHL1    H9 6034   3.880   5.141  13.422
   51CHL1   C10 6035   3.720   0.077  13.492
   51CHL1   C19 6036   3.594   0.149  13.439
   51CHL1  H19A 6037   3.540   0.201  13.521
   51CHL1  H19B 6038   3.618   0.225  13.361
   51CHL1  H19C 6039   3.522   0.077  13.395
   51CHL1    C1 6040   3.676   5.163  13.598
   51CHL1   H1A 6041   3.596   5.099  13.555
   51CHL1   H1B 6042   3.763   5.098  13.618
   51CHL1    C2 6043   3.627   0.030  13.731
   51CHL1   H2A 6044   3.606   5.140  13.803
   51CHL1   H2B 6045   3.533   0.087  13.715
   51CHL1   C20 6046   3.817   5.045  12.833
   51CHL1   H20 6047   3.745   5.121  12.796
   51CHL1   C21 6048   3.740   4.918  12.872
   51CHL1  H21A 6049   3.693   4.871  12.783
   51CHL1  H21B 6050   3.657   4.944  12.942
   51CHL1  H21C 6051   3.807   4.845  12.920
   51CHL1   C22 6052   3.912   5.011  12.714
   51CHL1  H22A 6053   3.989   5.091  12.702
   51CHL1  H22B 6054   3.965   4.917  12.737
   51CHL1   C23 6055   3.839   4.999  12.579
   51CHL1  H23A 6056   3.755   4.926  12.587
   51CHL1  H23B 6057   3.794   5.098  12.557
   51CHL1   C24 6058   3.931   4.955  12.465
   51CHL1  H24A 6059   4.024   5.016  12.466
   51CHL1  H24B 6060   3.961   4.849  12.482
   51CHL1   C25 6061   3.868   4.967  12.325
   51CHL1   H25 6062   3.768   4.916  12.327
   51CHL1   C26 6063   3.847   5.114  12.286
   51CHL1  H26A 6064   3.816   5.122  12.180
   51CHL1  H26B 6065   3.768   5.161  12.349
   51CHL1  H26C 6066   3.942   5.170  12.299
   51CHL1   C27 6067   3.954   4.897  12.218
   51CHL1  H27A 6068   3.962   4.788  12.240
   51CHL1  H27B 6069   3.909   4.909  12.118
   51CHL1  H27C 6070   4.056   4.941  12.217
   52CHL1    C3 6071   1.029   0.268  13.711
   52CHL1    H3 6072   1.015   0.378  13.702
   52CHL1    O3 6073   1.074   0.237  13.842
   52CHL1   H3' 6074   1.163   0.272  13.846
   52CHL1    C4 6075   0.897   0.194  13.683
   52CHL1   H4A 6076   0.916   0.087  13.703
   52CHL1   H4B 6077   0.822   0.229  13.758
   52CHL1    C5 6078   0.846   0.212  13.541
   52CHL1    C6 6079   0.722   0.259  13.516
   52CHL1    H6 6080   0.655   0.280  13.600
   52CHL1    C7 6081   0.667   0.283  13.379
   52CHL1   H7A 6082   0.565   0.239  13.369
   52CHL1   H7B 6083   0.657   0.393  13.363
   52CHL1    C8 6084   0.754   0.226  13.264
   52CHL1    H8 6085   0.733   0.117  13.257
   52CHL1   C14 6086   0.722   0.295  13.132
   52CHL1   H14 6087   0.750   0.402  13.147
   52CHL1   C15 6088   0.575   0.301  13.085
   52CHL1  H15A 6089   0.530   0.199  13.094
   52CHL1  H15B 6090   0.516   0.373  13.145
   52CHL1   C16 6091   0.587   0.342  12.938
   52CHL1  H16A 6092   0.526   0.273  12.875
   52CHL1  H16B 6093   0.551   0.446  12.922
   52CHL1   C17 6094   0.738   0.333  12.899
   52CHL1   H17 6095   0.779   0.436  12.912
   52CHL1   C13 6096   0.802   0.248  13.011
   52CHL1   C18 6097   0.774   0.098  12.982
   52CHL1  H18A 6098   0.837   0.063  12.898
   52CHL1  H18B 6099   0.798   0.035  13.070
   52CHL1  H18C 6100   0.668   0.081  12.955
   52CHL1   C12 6101   0.950   0.274  13.042
   52CHL1  H12A 6102   1.015   0.237  12.960
   52CHL1  H12B 6103   0.967   0.384  13.053
   52CHL1   C11 6104   0.992   0.205  13.174
   52CHL1  H11A 6105   0.988   0.095  13.158
   52CHL1  H11B 6106   1.097   0.233  13.196
   52CHL1    C9 6107   0.903   0.245  13.294
   52CHL1    H9 6108   0.916   0.355  13.303
   52CHL1   C10 6109   0.950   0.187  13.430
   52CHL1   C19 6110   0.966   0.033  13.417
   52CHL1  H19A 6111   1.048   0.008  13.345
   52CHL1  H19B 6112   0.994   5.178  13.514
   52CHL1  H19C 6113   0.872   5.178  13.381
   52CHL1    C1 6114   1.087   0.251  13.467
   52CHL1   H1A 6115   1.166   0.214  13.398
   52CHL1   H1B 6116   1.080   0.361  13.454
   52CHL1    C2 6117   1.136   0.224  13.611
   52CHL1   H2A 6118   1.230   0.279  13.629
   52CHL1   H2B 6119   1.157   0.116  13.623
   52CHL1   C20 6120   0.760   0.296  12.751
   52CHL1   H20 6121   0.713   0.196  12.733
   52CHL1   C21 6122   0.910   0.286  12.719
   52CHL1  H21A 6123   0.928   0.278  12.610
   52CHL1  H21B 6124   0.955   0.197  12.766
   52CHL1  H21C 6125   0.963   0.377  12.755
   52CHL1   C22 6126   0.692   0.397  12.655
   52CHL1  H22A 6127   0.589   0.423  12.689
   52CHL1  H22B 6128   0.752   0.491  12.658
   52CHL1   C23 6129   0.680   0.352  12.508
   52CHL1  H23A 6130   0.664   0.442  12.446
   52CHL1  H23B 6131   0.775   0.305  12.473
   52CHL1   C24 6132   0.563   0.256  12.483
   52CHL1  H24A 6133   0.567   0.172  12.556
   52CHL1  H24B 6134   0.468   0.311  12.501
   52CHL1   C25 6135   0.558   0.195  12.341
   52CHL1   H25 6136   0.643   0.124  12.332
   52CHL1   C26 6137   0.427   0.116  12.322
   52CHL1  H26A 6138   0.419   0.036  12.398
   52CHL1  H26B 6139   0.339   0.184  12.332
   52CHL1  H26C 6140   0.425   0.071  12.220
   52CHL1   C27 6141   0.573   0.300  12.230
   52CHL1  H27A 6142   0.492   0.376  12.236
   52CHL1  H27B 6143   0.671   0.351  12.236
   52CHL1  H27C 6144   0.566   0.250  12.131
   53CHL1    C3 6145   4.877   4.668  13.806
   53CHL1    H3 6146   4.852   4.774  13.779
   53CHL1    O3 6147   4.878   4.656  13.947
   53CHL1   H3' 6148   4.970   4.637  13.969
   53CHL1    C4 6149   4.771   4.574  13.745
   53CHL1   H4A 6150   4.793   4.471  13.781
   53CHL1   H4B 6151   4.672   4.601  13.787
   53CHL1    C5 6152   4.771   4.576  13.593
   53CHL1    C6 6153   4.658   4.598  13.523
   53CHL1    H6 6154   4.563   4.609  13.576
   53CHL1    C7 6155   4.652   4.598  13.372
   53CHL1   H7A 6156   4.567   4.535  13.337
   53CHL1   H7B 6157   4.632   4.701  13.336
   53CHL1    C8 6158   4.781   4.545  13.304
   53CHL1    H8 6159   4.779   4.434  13.309
   53CHL1   C14 6160   4.787   4.589  13.158
   53CHL1   H14 6161   4.793   4.700  13.159
   53CHL1   C15 6162   4.665   4.556  13.070
   53CHL1  H15A 6163   4.636   4.450  13.086
   53CHL1  H15B 6164   4.578   4.622  13.091
   53CHL1   C16 6165   4.718   4.575  12.927
   53CHL1  H16A 6166   4.693   4.485  12.867
   53CHL1  H16B 6167   4.674   4.664  12.878
   53CHL1   C17 6168   4.874   4.591  12.937
   53CHL1   H17 6169   4.894   4.700  12.936
   53CHL1   C13 6170   4.909   4.541  13.079
   53CHL1   C18 6171   4.917   4.386  13.077
   53CHL1  H18A 6172   4.919   4.343  13.179
   53CHL1  H18B 6173   4.830   4.343  13.023
   53CHL1  H18C 6174   5.009   4.354  13.025
   53CHL1   C12 6175   5.033   4.603  13.149
   53CHL1  H12A 6176   5.127   4.569  13.101
   53CHL1  H12B 6177   5.027   4.713  13.141
   53CHL1   C11 6178   5.038   4.564  13.298
   53CHL1  H11A 6179   5.058   4.455  13.304
   53CHL1  H11B 6180   5.124   4.616  13.345
   53CHL1    C9 6181   4.906   4.597  13.376
   53CHL1    H9 6182   4.898   4.708  13.373
   53CHL1   C10 6183   4.909   4.559  13.527
   53CHL1   C19 6184   4.945   4.409  13.542
   53CHL1  H19A 6185   4.940   4.375  13.648
   53CHL1  H19B 6186   4.877   4.345  13.482
   53CHL1  H19C 6187   5.049   4.392  13.509
   53CHL1    C1 6188   5.017   4.646  13.598
   53CHL1   H1A 6189   5.118   4.617  13.562
   53CHL1   H1B 6190   5.001   4.753  13.571
   53CHL1    C2 6191   5.016   4.636  13.752
   53CHL1   H2A 6192   5.092   4.706  13.793
   53CHL1   H2B 6193   5.045   4.533  13.782
   53CHL1   C20 6194   4.946   4.531  12.814
   53CHL1   H20 6195   4.930   4.421  12.813
   53CHL1   C21 6196   5.097   4.560  12.823
   53CHL1  H21A 6197   5.150   4.524  12.732
   53CHL1  H21B 6198   5.142   4.507  12.909
   53CHL1  H21C 6199   5.116   4.669  12.833
   53CHL1   C22 6200   4.889   4.586  12.679
   53CHL1  H22A 6201   4.778   4.579  12.678
   53CHL1  H22B 6202   4.916   4.693  12.672
   53CHL1   C23 6203   4.939   4.513  12.552
   53CHL1  H23A 6204   5.050   4.511  12.552
   53CHL1  H23B 6205   4.904   4.407  12.554
   53CHL1   C24 6206   4.890   4.582  12.423
   53CHL1  H24A 6207   4.779   4.574  12.418
   53CHL1  H24B 6208   4.913   4.690  12.430
   53CHL1   C25 6209   4.949   4.530  12.290
   53CHL1   H25 6210   4.912   4.598  12.210
   53CHL1   C26 6211   5.103   4.534  12.285
   53CHL1  H26A 6212   5.139   4.504  12.185
   53CHL1  H26B 6213   5.139   4.637  12.306
   53CHL1  H26C 6214   5.147   4.465  12.360
   53CHL1   C27 6215   4.899   4.389  12.256
   53CHL1  H27A 6216   4.788   4.390  12.249
   53CHL1  H27B 6217   4.940   4.356  12.158
   53CHL1  H27C 6218   4.930   4.316  12.334
   54CHL1    C3 6219   0.207   0.089  13.772
   54CHL1    H3 6220   0.311   0.049  13.771
   54CHL1    O3 6221   0.176   0.137  13.902
   54CHL1   H3' 6222   0.212   0.074  13.965
   54CHL1    C4 6223   0.203   0.208  13.674
   54CHL1   H4A 6224   0.111   0.266  13.693
   54CHL1   H4B 6225   0.287   0.275  13.701
   54CHL1    C5 6226   0.210   0.165  13.529
   54CHL1    C6 6227   0.302   0.212  13.444
   54CHL1    H6 6228   0.375   0.287  13.479
   54CHL1    C7 6229   0.303   0.180  13.297
   54CHL1   H7A 6230   0.328   0.270  13.236
   54CHL1   H7B 6231   0.381   0.104  13.275
   54CHL1    C8 6232   0.166   0.126  13.250
   54CHL1    H8 6233   0.093   0.209  13.259
   54CHL1   C14 6234   0.171   0.081  13.104
   54CHL1   H14 6235   0.247   0.000  13.099
   54CHL1   C15 6236   0.215   0.186  13.000
   54CHL1  H15A 6237   0.167   0.284  13.023
   54CHL1  H15B 6238   0.325   0.198  12.998
   54CHL1   C16 6239   0.161   0.131  12.867
   54CHL1  H16A 6240   0.096   0.209  12.822
   54CHL1  H16B 6241   0.242   0.104  12.796
   54CHL1   C17 6242   0.074   0.005  12.901
   54CHL1   H17 6243   0.141   5.109  12.894
   54CHL1   C13 6244   0.040   0.021  13.052
   54CHL1   C18 6245   5.115   0.122  13.065
   54CHL1  H18A 6246   5.133   0.214  13.005
   54CHL1  H18B 6247   5.020   0.077  13.030
   54CHL1  H18C 6248   5.099   0.154  13.170
   54CHL1   C12 6249   0.018   5.084  13.134
   54CHL1  H12A 6250   5.116   5.031  13.103
   54CHL1  H12B 6251   0.103   5.015  13.118
   54CHL1   C11 6252   0.006   5.116  13.285
   54CHL1  H11A 6253   5.102   5.171  13.296
   54CHL1  H11B 6254   5.188   5.022  13.343
   54CHL1    C9 6255   0.124   0.011  13.342
   54CHL1    H9 6256   0.211   5.134  13.342
   54CHL1   C10 6257   0.105   0.059  13.488
   54CHL1   C19 6258   5.156   0.122  13.503
   54CHL1  H19A 6259   5.141   0.174  13.600
   54CHL1  H19B 6260   5.135   0.195  13.421
   54CHL1  H19C 6261   5.081   0.041  13.501
   54CHL1    C1 6262   0.119   5.131  13.586
   54CHL1   H1A 6263   0.040   5.056  13.564
   54CHL1   H1B 6264   0.217   5.081  13.570
   54CHL1    C2 6265   0.107   5.171  13.735
   54CHL1   H2A 6266   0.122   5.082  13.799
   54CHL1   H2B 6267   0.004   0.017  13.754
   54CHL1   C20 6268   5.151   5.176  12.800
   54CHL1   H20 6269   5.083   0.072  12.802
   54CHL1   C21 6270   5.068   5.051  12.836
   54CHL1  H21A 6271   4.994   5.029  12.756
   54CHL1  H21B 6272   5.010   5.068  12.930
   54CHL1  H21C 6273   5.134   4.963  12.848
   54CHL1   C22 6274   0.010   5.162  12.653
   54CHL1  H22A 6275   0.112   5.117  12.652
   54CHL1  H22B 6276   5.133   5.090  12.603
   54CHL1   C23 6277   0.006   0.098  12.567
   54CHL1  H23A 6278   5.092   0.134  12.562
   54CHL1  H23B 6279   0.066   0.178  12.615
   54CHL1   C24 6280   0.062   0.078  12.425
   54CHL1  H24A 6281   0.059   0.176  12.371
   54CHL1  H24B 6282   0.168   0.048  12.434
   54CHL1   C25 6283   5.182   5.164  12.337
   54CHL1   H25 6284   5.186   5.067  12.392
   54CHL1   C26 6285   5.034   0.005  12.311
   54CHL1  H26A 6286   4.987   5.115  12.252
   54CHL1  H26B 6287   4.978   0.015  12.406
   54CHL1  H26C 6288   5.024   0.100  12.254
   54CHL1   C27 6289   0.065   5.144  12.205
   54CHL1  H27A 6290   0.016   5.066  12.144
   54CHL1  H27B 6291   0.066   0.048  12.147
   54CHL1  H27C 6292   0.171   5.114  12.224
   55CHL1    C3 6293   1.847   2.567  10.181
   55CHL1    H3 6294   1.752   2.511  10.186
   55CHL1    O3 6295   1.878   2.589  10.044
   55CHL1   H3' 6296   1.973   2.606  10.040
   55CHL1    C4 6297   1.830   2.702  10.253
   55CHL1   H4A 6298   1.920   2.764  10.234
   55CHL1   H4B 6299   1.745   2.756  10.205
   55CHL1    C5 6300   1.809   2.686  10.403
   55CHL1    C6 6301   1.702   2.736  10.465
   55CHL1    H6 6302   1.629   2.795  10.407
   55CHL1    C7 6303   1.680   2.728  10.614
   55CHL1   H7A 6304   1.644   2.826  10.652
   55CHL1   H7B 6305   1.601   2.653  10.636
   55CHL1    C8 6306   1.809   2.690  10.690
   55CHL1    H8 6307   1.875   2.779  10.686
   55CHL1   C14 6308   1.777   2.656  10.835
   55CHL1   H14 6309   1.715   2.564  10.832
   55CHL1   C15 6310   1.696   2.758  10.916
   55CHL1  H15A 6311   1.741   2.859  10.903
   55CHL1  H15B 6312   1.589   2.762  10.886
   55CHL1   C16 6313   1.714   2.710  11.061
   55CHL1  H16A 6314   1.732   2.798  11.126
   55CHL1  H16B 6315   1.624   2.657  11.097
   55CHL1   C17 6316   1.836   2.612  11.062
   55CHL1   H17 6317   1.793   2.509  11.070
   55CHL1   C13 6318   1.899   2.621  10.921
   55CHL1   C18 6319   2.002   2.737  10.921
   55CHL1  H18A 6320   2.093   2.709  10.977
   55CHL1  H18B 6321   2.034   2.765  10.818
   55CHL1  H18C 6322   1.958   2.827  10.969
   55CHL1   C12 6323   1.959   2.492  10.860
   55CHL1  H12A 6324   2.050   2.461  10.916
   55CHL1  H12B 6325   1.884   2.410  10.868
   55CHL1   C11 6326   1.996   2.513  10.711
   55CHL1  H11A 6327   2.083   2.581  10.710
   55CHL1  H11B 6328   2.028   2.415  10.668
   55CHL1    C9 6329   1.880   2.571  10.624
   55CHL1    H9 6330   1.803   2.491  10.620
   55CHL1   C10 6331   1.917   2.601  10.475
   55CHL1   C19 6332   2.049   2.683  10.472
   55CHL1  H19A 6333   2.077   2.713  10.369
   55CHL1  H19B 6334   2.041   2.775  10.534
   55CHL1  H19C 6335   2.134   2.622  10.511
   55CHL1    C1 6336   1.934   2.468  10.398
   55CHL1   H1A 6337   2.019   2.411  10.441
   55CHL1   H1B 6338   1.842   2.406  10.412
   55CHL1    C2 6339   1.958   2.484  10.246
   55CHL1   H2A 6340   1.965   2.385  10.197
   55CHL1   H2B 6341   2.055   2.536  10.230
   55CHL1   C20 6342   1.927   2.634  11.185
   55CHL1   H20 6343   1.978   2.732  11.175
   55CHL1   C21 6344   2.034   2.524  11.192
   55CHL1  H21A 6345   2.105   2.532  11.108
   55CHL1  H21B 6346   1.985   2.424  11.189
   55CHL1  H21C 6347   2.091   2.532  11.287
   55CHL1   C22 6348   1.851   2.642  11.321
   55CHL1  H22A 6349   1.927   2.657  11.400
   55CHL1  H22B 6350   1.786   2.732  11.322
   55CHL1   C23 6351   1.767   2.519  11.358
   55CHL1  H23A 6352   1.691   2.500  11.279
   55CHL1  H23B 6353   1.833   2.430  11.363
   55CHL1   C24 6354   1.696   2.538  11.493
   55CHL1  H24A 6355   1.771   2.554  11.573
   55CHL1  H24B 6356   1.633   2.629  11.486
   55CHL1   C25 6357   1.604   2.421  11.534
   55CHL1   H25 6358   1.533   2.402  11.450
   55CHL1   C26 6359   1.683   2.292  11.559
   55CHL1  H26A 6360   1.756   2.308  11.641
   55CHL1  H26B 6361   1.614   2.210  11.589
   55CHL1  H26C 6362   1.738   2.260  11.468
   55CHL1   C27 6363   1.521   2.459  11.658
   55CHL1  H27A 6364   1.588   2.477  11.745
   55CHL1  H27B 6365   1.463   2.552  11.639
   55CHL1  H27C 6366   1.451   2.377  11.684
   56CHL1    C3 6367   2.242   1.893  10.266
   56CHL1    H3 6368   2.350   1.886  10.291
   56CHL1    O3 6369   2.227   1.874  10.126
   56CHL1   H3' 6370   2.218   1.962  10.088
   56CHL1    C4 6371   2.163   1.785  10.341
   56CHL1   H4A 6372   2.057   1.790  10.307
   56CHL1   H4B 6373   2.201   1.685  10.309
   56CHL1    C5 6374   2.172   1.803  10.491
   56CHL1    C6 6375   2.223   1.708  10.569
   56CHL1    H6 6376   2.255   1.612  10.525
   56CHL1    C7 6377   2.235   1.719  10.718
   56CHL1   H7A 6378   2.204   1.625  10.768
   56CHL1   H7B 6379   2.342   1.735  10.744
   56CHL1    C8 6380   2.152   1.836  10.777
   56CHL1    H8 6381   2.045   1.806  10.777
   56CHL1   C14 6382   2.200   1.866  10.918
   56CHL1   H14 6383   2.304   1.902  10.907
   56CHL1   C15 6384   2.210   1.749  11.018
   56CHL1  H15A 6385   2.117   1.689  11.015
   56CHL1  H15B 6386   2.297   1.683  10.996
   56CHL1   C16 6387   2.223   1.820  11.153
   56CHL1  H16A 6388   2.148   1.778  11.223
   56CHL1  H16B 6389   2.324   1.805  11.197
   56CHL1   C17 6390   2.197   1.972  11.128
   56CHL1   H17 6391   2.297   2.018  11.112
   56CHL1   C13 6392   2.126   1.978  10.991
   56CHL1   C18 6393   1.976   1.942  11.010
   56CHL1  H18A 6394   1.964   1.850  11.071
   56CHL1  H18B 6395   1.923   2.025  11.062
   56CHL1  H18C 6396   1.926   1.926  10.912
   56CHL1   C12 6397   2.144   2.106  10.906
   56CHL1  H12A 6398   2.086   2.192  10.948
   56CHL1  H12B 6399   2.251   2.133  10.908
   56CHL1   C11 6400   2.099   2.086  10.760
   56CHL1  H11A 6401   1.988   2.074  10.761
   56CHL1  H11B 6402   2.122   2.178  10.702
   56CHL1    C9 6403   2.165   1.963  10.692
   56CHL1    H9 6404   2.274   1.986  10.691
   56CHL1   C10 6405   2.127   1.942  10.542
   56CHL1   C19 6406   1.973   1.952  10.527
   56CHL1  H19A 6407   1.938   2.054  10.552
   56CHL1  H19B 6408   1.941   1.931  10.423
   56CHL1  H19C 6409   1.922   1.879  10.595
   56CHL1    C1 6410   2.197   2.052  10.458
   56CHL1   H1A 6411   2.152   2.151  10.482
   56CHL1   H1B 6412   2.304   2.057  10.486
   56CHL1    C2 6413   2.191   2.032  10.305
   56CHL1   H2A 6414   2.254   2.109  10.256
   56CHL1   H2B 6415   2.086   2.044  10.270
   56CHL1   C20 6416   2.135   2.042  11.250
   56CHL1   H20 6417   2.037   1.996  11.272
   56CHL1   C21 6418   2.114   2.191  11.218
   56CHL1  H21A 6419   2.208   2.237  11.179
   56CHL1  H21B 6420   2.084   2.248  11.309
   56CHL1  H21C 6421   2.033   2.204  11.144
   56CHL1   C22 6422   2.223   2.028  11.378
   56CHL1  H22A 6423   2.253   1.922  11.392
   56CHL1  H22B 6424   2.316   2.087  11.364
   56CHL1   C23 6425   2.152   2.073  11.507
   56CHL1  H23A 6426   2.116   2.177  11.497
   56CHL1  H23B 6427   2.063   2.008  11.523
   56CHL1   C24 6428   2.243   2.069  11.631
   56CHL1  H24A 6429   2.274   1.964  11.652
   56CHL1  H24B 6430   2.335   2.128  11.609
   56CHL1   C25 6431   2.176   2.129  11.757
   56CHL1   H25 6432   2.138   2.230  11.730
   56CHL1   C26 6433   2.058   2.043  11.804
   56CHL1  H26A 6434   2.016   2.085  11.898
   56CHL1  H26B 6435   1.978   2.040  11.728
   56CHL1  H26C 6436   2.092   1.940  11.825
   56CHL1   C27 6437   2.278   2.146  11.871
   56CHL1  H27A 6438   2.365   2.207  11.837
   56CHL1  H27B 6439   2.230   2.197  11.957
   56CHL1  H27C 6440   2.315   2.047  11.904
   57CHL1    C3 6441   3.411   2.755  10.226
   57CHL1    H3 6442   3.424   2.866  10.230
   57CHL1    O3 6443   3.415   2.713  10.090
   57CHL1   H3' 6444   3.497   2.750  10.056
   57CHL1    C4 6445   3.526   2.687  10.302
   57CHL1   H4A 6446   3.517   2.577  10.288
   57CHL1   H4B 6447   3.622   2.718  10.254
   57CHL1    C5 6448   3.524   2.720  10.450
   57CHL1    C6 6449   3.630   2.775  10.510
   57CHL1    H6 6450   3.721   2.797  10.451
   57CHL1    C7 6451   3.637   2.806  10.656
   57CHL1   H7A 6452   3.734   2.772  10.699
   57CHL1   H7B 6453   3.631   2.916  10.670
   57CHL1    C8 6454   3.522   2.739  10.737
   57CHL1    H8 6455   3.545   2.631  10.745
   57CHL1   C14 6456   3.515   2.800  10.876
   57CHL1   H14 6457   3.493   2.907  10.861
   57CHL1   C15 6458   3.644   2.797  10.961
   57CHL1  H15A 6459   3.692   2.697  10.953
   57CHL1  H15B 6460   3.716   2.875  10.928
   57CHL1   C16 6461   3.593   2.821  11.104
   57CHL1  H16A 6462   3.630   2.739  11.170
   57CHL1  H16B 6463   3.629   2.918  11.144
   57CHL1   C17 6464   3.437   2.818  11.098
   57CHL1   H17 6465   3.405   2.924  11.082
   57CHL1   C13 6466   3.403   2.746  10.965
   57CHL1   C18 6467   3.419   2.593  10.988
   57CHL1  H18A 6468   3.416   2.537  10.891
   57CHL1  H18B 6469   3.515   2.569  11.038
   57CHL1  H18C 6470   3.336   2.555  11.051
   57CHL1   C12 6471   3.271   2.781  10.894
   57CHL1  H12A 6472   3.183   2.744  10.951
   57CHL1  H12B 6473   3.263   2.892  10.888
   57CHL1   C11 6474   3.266   2.723  10.752
   57CHL1  H11A 6475   3.257   2.612  10.762
   57CHL1  H11B 6476   3.173   2.759  10.702
   57CHL1    C9 6477   3.389   2.758  10.664
   57CHL1    H9 6478   3.381   2.868  10.647
   57CHL1   C10 6479   3.390   2.694  10.522
   57CHL1   C19 6480   3.371   2.540  10.535
   57CHL1  H19A 6481   3.448   2.497  10.601
   57CHL1  H19B 6482   3.271   2.516  10.576
   57CHL1  H19C 6483   3.378   2.490  10.436
   57CHL1    C1 6484   3.273   2.754  10.437
   57CHL1   H1A 6485   3.176   2.723  10.481
   57CHL1   H1B 6486   3.279   2.865  10.445
   57CHL1    C2 6487   3.276   2.717  10.288
   57CHL1   H2A 6488   3.195   2.770  10.234
   57CHL1   H2B 6489   3.260   2.608  10.276
   57CHL1   C20 6490   3.374   2.772  11.230
   57CHL1   H20 6491   3.406   2.668  11.253
   57CHL1   C21 6492   3.220   2.773  11.219
   57CHL1  H21A 6493   3.172   2.752  11.317
   57CHL1  H21B 6494   3.185   2.871  11.182
   57CHL1  H21C 6495   3.186   2.693  11.150
   57CHL1   C22 6496   3.422   2.862  11.347
   57CHL1  H22A 6497   3.532   2.850  11.359
   57CHL1  H22B 6498   3.402   2.968  11.318
   57CHL1   C23 6499   3.357   2.842  11.485
   57CHL1  H23A 6500   3.250   2.871  11.478
   57CHL1  H23B 6501   3.360   2.734  11.514
   57CHL1   C24 6502   3.424   2.927  11.595
   57CHL1  H24A 6503   3.505   2.867  11.641
   57CHL1  H24B 6504   3.470   3.017  11.549
   57CHL1   C25 6505   3.327   2.977  11.704
   57CHL1   H25 6506   3.259   2.893  11.732
   57CHL1   C26 6507   3.404   3.020  11.830
   57CHL1  H26A 6508   3.465   2.936  11.869
   57CHL1  H26B 6509   3.471   3.105  11.806
   57CHL1  H26C 6510   3.333   3.052  11.910
   57CHL1   C27 6511   3.243   3.095  11.654
   57CHL1  H27A 6512   3.174   3.131  11.733
   57CHL1  H27B 6513   3.309   3.179  11.625
   57CHL1  H27C 6514   3.182   3.066  11.565
   58CHL1    C3 6515   3.473   1.277  10.198
   58CHL1    H3 6516   3.371   1.295  10.238
   58CHL1    O3 6517   3.463   1.251  10.058
   58CHL1   H3' 6518   3.374   1.220  10.042
   58CHL1    C4 6519   3.559   1.403  10.221
   58CHL1   H4A 6520   3.659   1.384  10.177
   58CHL1   H4B 6521   3.514   1.486  10.164
   58CHL1    C5 6522   3.572   1.435  10.369
   58CHL1    C6 6523   3.537   1.555  10.418
   58CHL1    H6 6524   3.500   1.633  10.350
   58CHL1    C7 6525   3.549   1.593  10.563
   58CHL1   H7A 6526   3.601   1.691  10.572
   58CHL1   H7B 6527   3.448   1.605  10.605
   58CHL1    C8 6528   3.626   1.489  10.649
   58CHL1    H8 6529   3.735   1.506  10.635
   58CHL1   C14 6530   3.592   1.510  10.796
   58CHL1   H14 6531   3.483   1.492  10.805
   58CHL1   C15 6532   3.616   1.650  10.852
   58CHL1  H15A 6533   3.717   1.682  10.819
   58CHL1  H15B 6534   3.540   1.724  10.816
   58CHL1   C16 6535   3.612   1.630  11.003
   58CHL1  H16A 6536   3.703   1.675  11.049
   58CHL1  H16B 6537   3.522   1.679  11.047
   58CHL1   C17 6538   3.607   1.476  11.029
   58CHL1   H17 6539   3.500   1.448  11.037
   58CHL1   C13 6540   3.657   1.414  10.895
   58CHL1   C18 6541   3.812   1.424  10.891
   58CHL1  H18A 6542   3.857   1.352  10.962
   58CHL1  H18B 6543   3.851   1.401  10.790
   58CHL1  H18C 6544   3.847   1.526  10.920
   58CHL1   C12 6545   3.609   1.272  10.857
   58CHL1  H12A 6546   3.656   1.195  10.922
   58CHL1  H12B 6547   3.499   1.267  10.871
   58CHL1   C11 6548   3.642   1.240  10.709
   58CHL1  H11A 6549   3.753   1.231  10.701
   58CHL1  H11B 6550   3.599   1.141  10.685
   58CHL1    C9 6551   3.591   1.347  10.608
   58CHL1    H9 6552   3.480   1.342  10.616
   58CHL1   C10 6553   3.620   1.319  10.458
   58CHL1   C19 6554   3.773   1.311  10.436
   58CHL1  H19A 6555   3.823   1.408  10.459
   58CHL1  H19B 6556   3.819   1.234  10.502
   58CHL1  H19C 6557   3.797   1.284  10.331
   58CHL1    C1 6558   3.550   1.184  10.419
   58CHL1   H1A 6559   3.605   1.100  10.466
   58CHL1   H1B 6560   3.448   1.185  10.461
   58CHL1    C2 6561   3.537   1.157  10.268
   58CHL1   H2A 6562   3.476   1.066  10.251
   58CHL1   H2B 6563   3.638   1.140  10.225
   58CHL1   C20 6564   3.674   1.438  11.163
   58CHL1   H20 6565   3.781   1.469  11.160
   58CHL1   C21 6566   3.668   1.286  11.185
   58CHL1  H21A 6567   3.732   1.234  11.111
   58CHL1  H21B 6568   3.563   1.249  11.176
   58CHL1  H21C 6569   3.706   1.259  11.286
   58CHL1   C22 6570   3.608   1.512  11.283
   58CHL1  H22A 6571   3.597   1.620  11.260
   58CHL1  H22B 6572   3.506   1.471  11.299
   58CHL1   C23 6573   3.687   1.505  11.415
   58CHL1  H23A 6574   3.699   1.399  11.446
   58CHL1  H23B 6575   3.788   1.548  11.398
   58CHL1   C24 6576   3.617   1.584  11.528
   58CHL1  H24A 6577   3.599   1.687  11.492
   58CHL1  H24B 6578   3.519   1.537  11.548
   58CHL1   C25 6579   3.695   1.593  11.661
   58CHL1   H25 6580   3.792   1.643  11.640
   58CHL1   C26 6581   3.619   1.679  11.762
   58CHL1  H26A 6582   3.522   1.632  11.788
   58CHL1  H26B 6583   3.678   1.692  11.855
   58CHL1  H26C 6584   3.599   1.780  11.719
   58CHL1   C27 6585   3.725   1.454  11.722
   58CHL1  H27A 6586   3.786   1.393  11.652
   58CHL1  H27B 6587   3.781   1.466  11.817
   58CHL1  H27C 6588   3.630   1.401  11.743
   59CHL1    C3 6589   1.637   4.124  10.163
   59CHL1    H3 6590   1.718   4.055  10.194
   59CHL1    O3 6591   1.645   4.147  10.023
   59CHL1   H3' 6592   1.719   4.096   9.991
   59CHL1    C4 6593   1.500   4.063  10.197
   59CHL1   H4A 6594   1.420   4.130  10.158
   59CHL1   H4B 6595   1.491   3.967  10.140
   59CHL1    C5 6596   1.482   4.043  10.346
   59CHL1    C6 6597   1.454   3.922  10.396
   59CHL1    H6 6598   1.442   3.837  10.328
   59CHL1    C7 6599   1.434   3.894  10.542
   59CHL1   H7A 6600   1.340   3.836  10.558
   59CHL1   H7B 6601   1.517   3.829  10.576
   59CHL1    C8 6602   1.428   4.021  10.632
   59CHL1    H8 6603   1.324   4.059  10.630
   59CHL1   C14 6604   1.470   3.986  10.774
   59CHL1   H14 6605   1.578   3.961  10.767
   59CHL1   C15 6606   1.407   3.864  10.842
   59CHL1  H15A 6607   1.296   3.870  10.833
   59CHL1  H15B 6608   1.442   3.768  10.799
   59CHL1   C16 6609   1.449   3.880  10.989
   59CHL1  H16A 6610   1.359   3.872  11.054
   59CHL1  H16B 6611   1.523   3.803  11.019
   59CHL1   C17 6612   1.513   4.023  11.001
   59CHL1   H17 6613   1.623   4.010  10.988
   59CHL1   C13 6614   1.465   4.100  10.876
   59CHL1   C18 6615   1.318   4.147  10.897
   59CHL1  H18A 6616   1.274   4.181  10.801
   59CHL1  H18B 6617   1.254   4.065  10.937
   59CHL1  H18C 6618   1.315   4.232  10.968
   59CHL1   C12 6619   1.555   4.214  10.825
   59CHL1  H12A 6620   1.545   4.304  10.889
   59CHL1  H12B 6621   1.661   4.181  10.828
   59CHL1   C11 6622   1.520   4.253  10.680
   59CHL1  H11A 6623   1.419   4.299  10.679
   59CHL1  H11B 6624   1.592   4.331  10.646
   59CHL1    C9 6625   1.522   4.132  10.583
   59CHL1    H9 6626   1.624   4.089  10.592
   59CHL1   C10 6627   1.507   4.168  10.433
   59CHL1   C19 6628   1.384   4.261  10.415
   59CHL1  H19A 6629   1.399   4.357  10.468
   59CHL1  H19B 6630   1.366   4.285  10.308
   59CHL1  H19C 6631   1.292   4.213  10.456
   59CHL1    C1 6632   1.637   4.240  10.387
   59CHL1   H1A 6633   1.643   4.340  10.436
   59CHL1   H1B 6634   1.724   4.180  10.421
   59CHL1    C2 6635   1.652   4.258  10.235
   59CHL1   H2A 6636   1.751   4.302  10.212
   59CHL1   H2B 6637   1.574   4.328  10.198
   59CHL1   C20 6638   1.493   4.083  11.141
   59CHL1   H20 6639   1.383   4.089  11.158
   59CHL1   C21 6640   1.552   4.225  11.152
   59CHL1  H21A 6641   1.493   4.297  11.091
   59CHL1  H21B 6642   1.657   4.226  11.117
   59CHL1  H21C 6643   1.549   4.260  11.257
   59CHL1   C22 6644   1.552   3.994  11.253
   59CHL1  H22A 6645   1.586   3.896  11.214
   59CHL1  H22B 6646   1.642   4.045  11.295
   59CHL1   C23 6647   1.451   3.969  11.366
   59CHL1  H23A 6648   1.417   4.066  11.407
   59CHL1  H23B 6649   1.363   3.917  11.322
   59CHL1   C24 6650   1.509   3.884  11.481
   59CHL1  H24A 6651   1.542   3.786  11.442
   59CHL1  H24B 6652   1.598   3.937  11.521
   59CHL1   C25 6653   1.410   3.861  11.597
   59CHL1   H25 6654   1.374   3.961  11.631
   59CHL1   C26 6655   1.287   3.779  11.553
   59CHL1  H26A 6656   1.320   3.683  11.509
   59CHL1  H26B 6657   1.222   3.757  11.640
   59CHL1  H26C 6658   1.227   3.834  11.478
   59CHL1   C27 6659   1.480   3.795  11.716
   59CHL1  H27A 6660   1.516   3.693  11.689
   59CHL1  H27B 6661   1.568   3.855  11.748
   59CHL1  H27C 6662   1.410   3.786  11.802
   60CHL1    C3 6663   2.289   4.369  10.257
   60CHL1    H3 6664   2.346   4.274  10.257
   60CHL1    O3 6665   2.262   4.406  10.122
   60CHL1   H3' 6666   2.217   4.491  10.127
   60CHL1    C4 6667   2.157   4.351  10.334
   60CHL1   H4A 6668   2.097   4.444  10.323
   60CHL1   H4B 6669   2.099   4.270  10.284
   60CHL1    C5 6670   2.180   4.321  10.481
   60CHL1    C6 6671   2.129   4.211  10.540
   60CHL1    H6 6672   2.067   4.142  10.480
   60CHL1    C7 6673   2.145   4.177  10.685
   60CHL1   H7A 6674   2.048   4.143  10.729
   60CHL1   H7B 6675   2.216   4.092  10.694
   60CHL1    C8 6676   2.199   4.296  10.769
   60CHL1    H8 6677   2.115   4.367  10.782
   60CHL1   C14 6678   2.248   4.249  10.906
   60CHL1   H14 6679   2.334   4.182  10.886
   60CHL1   C15 6680   2.152   4.165  10.993
   60CHL1  H15A 6681   2.051   4.210  10.990
   60CHL1  H15B 6682   2.146   4.060  10.957
   60CHL1   C16 6683   2.211   4.175  11.135
   60CHL1  H16A 6684   2.131   4.207  11.205
   60CHL1  H16B 6685   2.253   4.078  11.169
   60CHL1   C17 6686   2.325   4.283  11.129
   60CHL1   H17 6687   2.420   4.226  11.114
   60CHL1   C13 6688   2.301   4.360  10.997
   60CHL1   C18 6689   2.190   4.465  11.023
   60CHL1  H18A 6690   2.155   4.512  10.929
   60CHL1  H18B 6691   2.102   4.421  11.075
   60CHL1  H18C 6692   2.230   4.548  11.087
   60CHL1   C12 6693   2.423   4.420  10.925
   60CHL1  H12A 6694   2.468   4.504  10.982
   60CHL1  H12B 6695   2.500   4.341  10.913
   60CHL1   C11 6696   2.386   4.471  10.784
   60CHL1  H11A 6697   2.320   4.559  10.799
   60CHL1  H11B 6698   2.479   4.506  10.734
   60CHL1    C9 6699   2.314   4.366  10.695
   60CHL1    H9 6700   2.389   4.287  10.676
   60CHL1   C10 6701   2.272   4.420  10.555
   60CHL1   C19 6702   2.194   4.553  10.572
   60CHL1  H19A 6703   2.108   4.540  10.642
   60CHL1  H19B 6704   2.260   4.633  10.612
   60CHL1  H19C 6705   2.154   4.591  10.475
   60CHL1    C1 6706   2.400   4.444  10.470
   60CHL1   H1A 6707   2.459   4.527  10.516
   60CHL1   H1B 6708   2.463   4.353  10.473
   60CHL1    C2 6709   2.373   4.479  10.323
   60CHL1   H2A 6710   2.469   4.491  10.268
   60CHL1   H2B 6711   2.318   4.575  10.317
   60CHL1   C20 6712   2.340   4.360  11.262
   60CHL1   H20 6713   2.248   4.419  11.281
   60CHL1   C21 6714   2.457   4.461  11.251
   60CHL1  H21A 6715   2.550   4.410  11.220
   60CHL1  H21B 6716   2.475   4.514  11.347
   60CHL1  H21C 6717   2.433   4.541  11.178
   60CHL1   C22 6718   2.358   4.265  11.383
   60CHL1  H22A 6719   2.260   4.217  11.405
   60CHL1  H22B 6720   2.429   4.184  11.355
   60CHL1   C23 6721   2.411   4.331  11.513
   60CHL1  H23A 6722   2.518   4.357  11.497
   60CHL1  H23B 6723   2.356   4.425  11.532
   60CHL1   C24 6724   2.400   4.241  11.637
   60CHL1  H24A 6725   2.299   4.255  11.682
   60CHL1  H24B 6726   2.409   4.135  11.606
   60CHL1   C25 6727   2.507   4.268  11.745
   60CHL1   H25 6728   2.607   4.251  11.699
   60CHL1   C26 6729   2.504   4.413  11.794
   60CHL1  H26A 6730   2.579   4.428  11.875
   60CHL1  H26B 6731   2.528   4.482  11.711
   60CHL1  H26C 6732   2.403   4.438  11.834
   60CHL1   C27 6733   2.494   4.172  11.864
   60CHL1  H27A 6734   2.396   4.189  11.915
   60CHL1  H27B 6735   2.499   4.067  11.830
   60CHL1  H27C 6736   2.575   4.190  11.938
   61CHL1    C3 6737   1.183   1.106  10.220
   61CHL1    H3 6738   1.153   1.202  10.268
   61CHL1    O3 6739   1.136   1.105  10.085
   61CHL1   H3' 6740   1.096   1.191  10.071
   61CHL1    C4 6741   1.336   1.094  10.220
   61CHL1   H4A 6742   1.363   1.003  10.163
   61CHL1   H4B 6743   1.378   1.180  10.164
   61CHL1    C5 6744   1.393   1.084  10.360
   61CHL1    C6 6745   1.485   1.171  10.405
   61CHL1    H6 6746   1.523   1.249  10.337
   61CHL1    C7 6747   1.544   1.165  10.542
   61CHL1   H7A 6748   1.653   1.188  10.540
   61CHL1   H7B 6749   1.494   1.241  10.607
   61CHL1    C8 6750   1.522   1.031  10.614
   61CHL1    H8 6751   1.591   0.956  10.569
   61CHL1   C14 6752   1.551   1.047  10.763
   61CHL1   H14 6753   1.473   1.115  10.802
   61CHL1   C15 6754   1.684   1.113  10.806
   61CHL1  H15A 6755   1.768   1.071  10.747
   61CHL1  H15B 6756   1.681   1.223  10.794
   61CHL1   C16 6757   1.698   1.072  10.954
   61CHL1  H16A 6758   1.798   1.026  10.970
   61CHL1  H16B 6759   1.689   1.159  11.022
   61CHL1   C17 6760   1.585   0.969  10.984
   61CHL1   H17 6761   1.500   1.027  11.025
   61CHL1   C13 6762   1.538   0.919  10.845
   61CHL1   C18 6763   1.641   0.814  10.795
   61CHL1  H18A 6764   1.635   0.722  10.857
   61CHL1  H18B 6765   1.622   0.785  10.690
   61CHL1  H18C 6766   1.745   0.852  10.802
   61CHL1   C12 6767   1.392   0.872  10.830
   61CHL1  H12A 6768   1.374   0.774  10.880
   61CHL1  H12B 6769   1.325   0.947  10.879
   61CHL1   C11 6770   1.350   0.857  10.683
   61CHL1  H11A 6771   1.407   0.771  10.642
   61CHL1  H11B 6772   1.242   0.830  10.678
   61CHL1    C9 6773   1.378   0.983  10.596
   61CHL1    H9 6774   1.315   1.063  10.641
   61CHL1   C10 6775   1.333   0.972  10.448
   61CHL1   C19 6776   1.382   0.836  10.390
   61CHL1  H19A 6777   1.332   0.751  10.442
   61CHL1  H19B 6778   1.359   0.825  10.282
   61CHL1  H19C 6779   1.492   0.825  10.403
   61CHL1    C1 6780   1.178   0.980  10.440
   61CHL1   H1A 6781   1.134   0.891  10.490
   61CHL1   H1B 6782   1.144   1.070  10.496
   61CHL1    C2 6783   1.120   0.989  10.297
   61CHL1   H2A 6784   1.010   1.001  10.301
   61CHL1   H2B 6785   1.142   0.894  10.244
   61CHL1   C20 6786   1.625   0.866  11.092
   61CHL1   H20 6787   1.711   0.806  11.054
   61CHL1   C21 6788   1.508   0.769  11.118
   61CHL1  H21A 6789   1.416   0.824  11.146
   61CHL1  H21B 6790   1.532   0.695  11.198
   61CHL1  H21C 6791   1.489   0.707  11.027
   61CHL1   C22 6792   1.673   0.932  11.224
   61CHL1  H22A 6793   1.771   0.981  11.206
   61CHL1  H22B 6794   1.601   1.011  11.254
   61CHL1   C23 6795   1.688   0.832  11.340
   61CHL1  H23A 6796   1.586   0.803  11.374
   61CHL1  H23B 6797   1.739   0.741  11.302
   61CHL1   C24 6798   1.766   0.884  11.461
   61CHL1  H24A 6799   1.868   0.913  11.428
   61CHL1  H24B 6800   1.717   0.974  11.503
   61CHL1   C25 6801   1.779   0.776  11.572
   61CHL1   H25 6802   1.816   0.683  11.524
   61CHL1   C26 6803   1.883   0.817  11.677
   61CHL1  H26A 6804   1.895   0.737  11.753
   61CHL1  H26B 6805   1.982   0.836  11.629
   61CHL1  H26C 6806   1.851   0.910  11.729
   61CHL1   C27 6807   1.645   0.747  11.641
   61CHL1  H27A 6808   1.659   0.671  11.721
   61CHL1  H27B 6809   1.604   0.839  11.686
   61CHL1  H27C 6810   1.571   0.707  11.568
   62CHL1    C3 6811   4.107   0.937  10.134
   62CHL1    H3 6812   4.204   0.978  10.169
   62CHL1    O3 6813   4.105   0.939   9.992
   62CHL1   H3' 6814   4.105   1.032   9.969
   62CHL1    C4 6815   4.092   0.793  10.185
   62CHL1   H4A 6816   4.001   0.749  10.138
   62CHL1   H4B 6817   4.178   0.734  10.147
   62CHL1    C5 6818   4.081   0.786  10.336
   62CHL1    C6 6819   4.166   0.714  10.410
   62CHL1    H6 6820   4.244   0.654  10.361
   62CHL1    C7 6821   4.158   0.701  10.560
   62CHL1   H7A 6822   4.173   0.595  10.590
   62CHL1   H7B 6823   4.241   0.760  10.606
   62CHL1    C8 6824   4.024   0.751  10.618
   62CHL1    H8 6825   3.947   0.673  10.598
   62CHL1   C14 6826   4.036   0.774  10.768
   62CHL1   H14 6827   4.109   0.857  10.779
   62CHL1   C15 6828   4.094   0.660  10.855
   62CHL1  H15A 6829   4.045   0.564  10.828
   62CHL1  H15B 6830   4.203   0.649  10.842
   62CHL1   C16 6831   4.055   0.702  10.998
   62CHL1  H16A 6832   4.002   0.618  11.047
   62CHL1  H16B 6833   4.145   0.729  11.058
   62CHL1   C17 6834   3.961   0.826  10.984
   62CHL1   H17 6835   4.027   0.916  10.987
   62CHL1   C13 6836   3.909   0.820  10.839
   62CHL1   C18 6837   3.799   0.711  10.830
   62CHL1  H18A 6838   3.773   0.688  10.724
   62CHL1  H18B 6839   3.830   0.616  10.878
   62CHL1  H18C 6840   3.705   0.745  10.879
   62CHL1   C12 6841   3.865   0.953  10.774
   62CHL1  H12A 6842   3.768   0.988  10.815
   62CHL1  H12B 6843   3.942   1.031  10.796
   62CHL1   C11 6844   3.851   0.938  10.621
   62CHL1  H11A 6845   3.765   0.870  10.604
   62CHL1  H11B 6846   3.825   1.037  10.578
   62CHL1    C9 6847   3.979   0.882  10.553
   62CHL1    H9 6848   4.060   0.955  10.576
   62CHL1   C10 6849   3.971   0.876  10.398
   62CHL1   C19 6850   3.832   0.820  10.359
   62CHL1  H19A 6851   3.823   0.802  10.250
   62CHL1  H19B 6852   3.812   0.726  10.413
   62CHL1  H19C 6853   3.752   0.893  10.385
   62CHL1    C1 6854   3.986   1.019  10.339
   62CHL1   H1A 6855   3.899   1.079  10.373
   62CHL1   H1B 6856   4.078   1.066  10.381
   62CHL1    C2 6857   3.993   1.026  10.186
   62CHL1   H2A 6858   4.009   1.131  10.154
   62CHL1   H2B 6859   3.897   0.992  10.143
   62CHL1   C20 6860   3.865   0.841  11.103
   62CHL1   H20 6861   3.813   0.745  11.119
   62CHL1   C21 6862   3.760   0.951  11.077
   62CHL1  H21A 6863   3.688   0.920  10.999
   62CHL1  H21B 6864   3.811   1.044  11.046
   62CHL1  H21C 6865   3.701   0.972  11.169
   62CHL1   C22 6866   3.945   0.876  11.232
   62CHL1  H22A 6867   4.035   0.812  11.240
   62CHL1  H22B 6868   3.980   0.981  11.221
   62CHL1   C23 6869   3.868   0.862  11.363
   62CHL1  H23A 6870   3.768   0.911  11.356
   62CHL1  H23B 6871   3.850   0.754  11.382
   62CHL1   C24 6872   3.942   0.927  11.481
   62CHL1  H24A 6873   4.048   0.894  11.481
   62CHL1  H24B 6874   3.942   1.037  11.466
   62CHL1   C25 6875   3.881   0.897  11.619
   62CHL1   H25 6876   3.772   0.917  11.613
   62CHL1   C26 6877   3.902   0.751  11.660
   62CHL1  H26A 6878   4.010   0.728  11.669
   62CHL1  H26B 6879   3.853   0.731  11.758
   62CHL1  H26C 6880   3.858   0.681  11.585
   62CHL1   C27 6881   3.938   0.992  11.725
   62CHL1  H27A 6882   3.920   1.098  11.697
   62CHL1  H27B 6883   3.889   0.973  11.823
   62CHL1  H27C 6884   4.047   0.976  11.737
   63CHL1    C3 6885   1.509   0.426  10.190
   63CHL1    H3 6886   1.423   0.496  10.199
   63CHL1    O3 6887   1.571   0.446  10.065
   63CHL1   H3' 6888   1.500   0.447  10.001
   63CHL1    C4 6889   1.611   0.457  10.301
   63CHL1   H4A 6890   1.701   0.394  10.284
   63CHL1   H4B 6891   1.644   0.562  10.288
   63CHL1    C5 6892   1.553   0.430  10.438
   63CHL1    C6 6893   1.545   0.528  10.529
   63CHL1    H6 6894   1.584   0.628  10.506
   63CHL1    C7 6895   1.492   0.507  10.668
   63CHL1   H7A 6896   1.557   0.558  10.742
   63CHL1   H7B 6897   1.390   0.549  10.676
   63CHL1    C8 6898   1.486   0.357  10.706
   63CHL1    H8 6899   1.591   0.322  10.720
   63CHL1   C14 6900   1.408   0.341  10.835
   63CHL1   H14 6901   1.305   0.374  10.812
   63CHL1   C15 6902   1.453   0.427  10.955
   63CHL1  H15A 6903   1.564   0.434  10.958
   63CHL1  H15B 6904   1.409   0.529  10.947
   63CHL1   C16 6905   1.401   0.351  11.077
   63CHL1  H16A 6906   1.488   0.321  11.139
   63CHL1  H16B 6907   1.332   0.413  11.138
   63CHL1   C17 6908   1.329   0.224  11.021
   63CHL1   H17 6909   1.225   0.258  10.999
   63CHL1   C13 6910   1.396   0.198  10.885
   63CHL1   C18 6911   1.536   0.137  10.910
   63CHL1  H18A 6912   1.525   0.031  10.941
   63CHL1  H18B 6913   1.599   0.137  10.818
   63CHL1  H18C 6914   1.593   0.192  10.989
   63CHL1   C12 6915   1.319   0.118  10.777
   63CHL1  H12A 6916   1.314   0.011  10.806
   63CHL1  H12B 6917   1.216   0.159  10.769
   63CHL1   C11 6918   1.389   0.128  10.640
   63CHL1  H11A 6919   1.483   0.070  10.647
   63CHL1  H11B 6920   1.325   0.080  10.563
   63CHL1    C9 6921   1.421   0.275  10.595
   63CHL1    H9 6922   1.321   0.322  10.579
   63CHL1   C10 6923   1.497   0.288  10.460
   63CHL1   C19 6924   1.617   0.189  10.460
   63CHL1  H19A 6925   1.682   0.205  10.548
   63CHL1  H19B 6926   1.581   0.083  10.460
   63CHL1  H19C 6927   1.680   0.199  10.369
   63CHL1    C1 6928   1.400   0.255  10.342
   63CHL1   H1A 6929   1.368   0.149  10.350
   63CHL1   H1B 6930   1.309   0.318  10.354
   63CHL1    C2 6931   1.458   0.282  10.202
   63CHL1   H2A 6932   1.381   0.263  10.124
   63CHL1   H2B 6933   1.543   0.213  10.183
   63CHL1   C20 6934   1.316   0.110  11.122
   63CHL1   H20 6935   1.407   0.047  11.121
   63CHL1   C21 6936   1.195   0.022  11.082
   63CHL1  H21A 6937   1.101   0.080  11.091
   63CHL1  H21B 6938   1.188   5.124  11.147
   63CHL1  H21C 6939   1.205   5.177  10.977
   63CHL1   C22 6940   1.301   0.162  11.268
   63CHL1  H22A 6941   1.398   0.206  11.301
   63CHL1  H22B 6942   1.225   0.243  11.270
   63CHL1   C23 6943   1.259   0.056  11.371
   63CHL1  H23A 6944   1.155   0.027  11.348
   63CHL1  H23B 6945   1.324   5.158  11.361
   63CHL1   C24 6946   1.261   0.109  11.515
   63CHL1  H24A 6947   1.224   0.213  11.513
   63CHL1  H24B 6948   1.192   0.049  11.578
   63CHL1   C25 6949   1.399   0.108  11.585
   63CHL1   H25 6950   1.472   0.160  11.520
   63CHL1   C26 6951   1.391   0.184  11.719
   63CHL1  H26A 6952   1.319   0.135  11.787
   63CHL1  H26B 6953   1.491   0.186  11.768
   63CHL1  H26C 6954   1.358   0.289  11.701
   63CHL1   C27 6955   1.450   5.156  11.610
   63CHL1  H27A 6956   1.377   5.099  11.672
   63CHL1  H27B 6957   1.465   5.101  11.515
   63CHL1  H27C 6958   1.547   5.158  11.664
   64CHL1    C3 6959   4.574   3.948  10.258
   64CHL1    H3 6960   4.537   4.052  10.272
   64CHL1    O3 6961   4.601   3.928  10.121
   64CHL1   H3' 6962   4.676   3.985  10.101
   64CHL1    C4 6963   4.702   3.929  10.342
   64CHL1   H4A 6964   4.748   3.832  10.314
   64CHL1   H4B 6965   4.775   4.007  10.311
   64CHL1    C5 6966   4.670   3.935  10.490
   64CHL1    C6 6967   4.722   4.029  10.571
   64CHL1    H6 6968   4.793   4.102  10.530
   64CHL1    C7 6969   4.693   4.037  10.718
   64CHL1   H7A 6970   4.785   4.063  10.774
   64CHL1   H7B 6971   4.618   4.118  10.736
   64CHL1    C8 6972   4.636   3.905  10.776
   64CHL1    H8 6973   4.720   3.833  10.785
   64CHL1   C14 6974   4.573   3.930  10.912
   64CHL1   H14 6975   4.481   3.990  10.891
   64CHL1   C15 6976   4.649   4.016  11.013
   64CHL1  H15A 6977   4.755   3.981  11.021
   64CHL1  H15B 6978   4.647   4.122  10.982
   64CHL1   C16 6979   4.572   3.991  11.143
   64CHL1  H16A 6980   4.644   3.966  11.224
   64CHL1  H16B 6981   4.515   4.082  11.172
   64CHL1   C17 6982   4.475   3.871  11.119
   64CHL1   H17 6983   4.376   3.915  11.095
   64CHL1   C13 6984   4.525   3.806  10.988
   64CHL1   C18 6985   4.646   3.715  11.020
   64CHL1  H18A 6986   4.693   3.678  10.927
   64CHL1  H18B 6987   4.723   3.768  11.080
   64CHL1  H18C 6988   4.613   3.626  11.078
   64CHL1   C12 6989   4.421   3.733  10.900
   64CHL1  H12A 6990   4.397   3.633  10.943
   64CHL1  H12B 6991   4.326   3.791  10.898
   64CHL1   C11 6992   4.470   3.714  10.755
   64CHL1  H11A 6993   4.549   3.636  10.759
   64CHL1  H11B 6994   4.387   3.674  10.693
   64CHL1    C9 6995   4.527   3.844  10.688
   64CHL1    H9 6996   4.444   3.917  10.689
   64CHL1   C10 6997   4.570   3.829  10.539
   64CHL1   C19 6998   4.640   3.692  10.525
   64CHL1  H19A 6999   4.678   3.674  10.422
   64CHL1  H19B 7000   4.726   3.685  10.596
   64CHL1  H19C 7001   4.570   3.609  10.547
   64CHL1    C1 7002   4.442   3.840  10.451
   64CHL1   H1A 7003   4.375   3.755  10.474
   64CHL1   H1B 7004   4.389   3.933  10.481
   64CHL1    C2 7005   4.465   3.848  10.299
   64CHL1   H2A 7006   4.370   3.871  10.247
   64CHL1   H2B 7007   4.499   3.748  10.263
   64CHL1   C20 7008   4.458   3.787  11.246
   64CHL1   H20 7009   4.558   3.747  11.274
   64CHL1   C21 7010   4.363   3.667  11.222
   64CHL1  H21A 7011   4.268   3.703  11.177
   64CHL1  H21B 7012   4.341   3.616  11.317
   64CHL1  H21C 7013   4.409   3.593  11.153
   64CHL1   C22 7014   4.407   3.871  11.366
   64CHL1  H22A 7015   4.444   3.976  11.358
   64CHL1  H22B 7016   4.296   3.876  11.363
   64CHL1   C23 7017   4.455   3.820  11.503
   64CHL1  H23A 7018   4.401   3.727  11.529
   64CHL1  H23B 7019   4.563   3.795  11.496
   64CHL1   C24 7020   4.438   3.927  11.613
   64CHL1  H24A 7021   4.486   4.021  11.577
   64CHL1  H24B 7022   4.330   3.948  11.628
   64CHL1   C25 7023   4.503   3.890  11.748
   64CHL1   H25 7024   4.607   3.858  11.728
   64CHL1   C26 7025   4.507   4.012  11.841
   64CHL1  H26A 7026   4.556   3.985  11.938
   64CHL1  H26B 7027   4.566   4.094  11.794
   64CHL1  H26C 7028   4.405   4.049  11.862
   64CHL1   C27 7029   4.428   3.774  11.816
   64CHL1  H27A 7030   4.430   3.684  11.752
   64CHL1  H27B 7031   4.476   3.750  11.914
   64CHL1  H27C 7032   4.323   3.803  11.835
   65CHL1    C3 7033   0.205   3.997  10.198
   65CHL1    H3 7034   0.315   3.985  10.200
   65CHL1    O3 7035   0.158   3.981  10.065
   65CHL1   H3' 7036   0.064   3.999  10.071
   65CHL1    C4 7037   0.139   3.889  10.286
   65CHL1   H4A 7038   0.030   3.890  10.268
   65CHL1   H4B 7039   0.176   3.790  10.251
   65CHL1    C5 7040   0.165   3.909  10.434
   65CHL1    C6 7041   0.220   3.813  10.510
   65CHL1    H6 7042   0.245   3.716  10.464
   65CHL1    C7 7043   0.237   3.823  10.660
   65CHL1   H7A 7044   0.205   3.728  10.708
   65CHL1   H7B 7045   0.344   3.840  10.684
   65CHL1    C8 7046   0.153   3.940  10.718
   65CHL1    H8 7047   0.046   3.910  10.710
   65CHL1   C14 7048   0.186   3.962  10.865
   65CHL1   H14 7049   0.295   3.986  10.869
   65CHL1   C15 7050   0.167   3.843  10.960
   65CHL1  H15A 7051   0.070   3.793  10.936
   65CHL1  H15B 7052   0.249   3.769  10.952
   65CHL1   C16 7053   0.158   3.907  11.100
   65CHL1  H16A 7054   0.064   3.873  11.148
   65CHL1  H16B 7055   0.244   3.879  11.164
   65CHL1   C17 7056   0.155   4.062  11.078
   65CHL1   H17 7057   0.261   4.096  11.086
   65CHL1   C13 7058   0.114   4.080  10.930
   65CHL1   C18 7059   5.152   4.062  10.920
   65CHL1  H18A 7060   5.118   4.049  10.815
   65CHL1  H18B 7061   5.116   3.974  10.978
   65CHL1  H18C 7062   5.102   4.153  10.959
   65CHL1   C12 7063   0.161   4.207  10.855
   65CHL1  H12A 7064   0.113   4.298  10.895
   65CHL1  H12B 7065   0.271   4.217  10.867
   65CHL1   C11 7066   0.126   4.198  10.705
   65CHL1  H11A 7067   0.016   4.207  10.696
   65CHL1  H11B 7068   0.170   4.286  10.652
   65CHL1    C9 7069   0.176   4.067  10.635
   65CHL1    H9 7070   0.287   4.078  10.631
   65CHL1   C10 7071   0.129   4.049  10.488
   65CHL1   C19 7072   5.166   4.066  10.482
   65CHL1  H19A 7073   5.114   4.000  10.554
   65CHL1  H19B 7074   5.137   4.172  10.503
   65CHL1  H19C 7075   5.126   4.045  10.380
   65CHL1    C1 7076   0.197   4.155  10.397
   65CHL1   H1A 7077   0.163   4.256  10.427
   65CHL1   H1B 7078   0.307   4.151  10.413
   65CHL1    C2 7079   0.168   4.137  10.247
   65CHL1   H2A 7080   0.224   4.213  10.188
   65CHL1   H2B 7081   0.060   4.155  10.229
   65CHL1   C20 7082   0.075   4.136  11.188
   65CHL1   H20 7083   5.158   4.113  11.174
   65CHL1   C21 7084   0.095   4.288  11.172
   65CHL1  H21A 7085   0.049   4.345  11.256
   65CHL1  H21B 7086   0.044   4.324  11.080
   65CHL1  H21C 7087   0.203   4.313  11.167
   65CHL1   C22 7088   0.109   4.089  11.333
   65CHL1  H22A 7089   0.091   3.980  11.342
   65CHL1  H22B 7090   0.216   4.108  11.354
   65CHL1   C23 7091   0.022   4.159  11.439
   65CHL1  H23A 7092   0.051   4.266  11.447
   65CHL1  H23B 7093   5.108   4.157  11.403
   65CHL1   C24 7094   0.024   4.097  11.579
   65CHL1  H24A 7095   5.183   3.991  11.570
   65CHL1  H24B 7096   0.127   4.097  11.621
   65CHL1   C25 7097   5.120   4.170  11.678
   65CHL1   H25 7098   5.022   4.182  11.627
   65CHL1   C26 7099   5.097   4.087  11.805
   65CHL1  H26A 7100   5.047   3.991  11.780
   65CHL1  H26B 7101   0.002   4.066  11.856
   65CHL1  H26C 7102   5.031   4.143  11.875
   65CHL1   C27 7103   5.172   4.310  11.716
   65CHL1  H27A 7104   0.078   4.301  11.768
   65CHL1  H27B 7105   5.185   4.374  11.626
   65CHL1  H27C 7106   5.100   4.360  11.784
   66CHL1    C3 7107   0.279   0.970  10.247
   66CHL1    H3 7108   0.301   0.861  10.259
   66CHL1    O3 7109   0.242   0.996  10.113
   66CHL1   H3' 7110   0.239   1.092  10.108
   66CHL1    C4 7111   0.162   1.009  10.340
   66CHL1   H4A 7112   0.130   1.112  10.315
   66CHL1   H4B 7113   0.076   0.942  10.315
   66CHL1    C5 7114   0.199   1.001  10.486
   66CHL1    C6 7115   0.129   0.925  10.573
   66CHL1    H6 7116   0.041   0.869  10.538
   66CHL1    C7 7117   0.159   0.918  10.720
   66CHL1   H7A 7118   0.065   0.922  10.779
   66CHL1   H7B 7119   0.208   0.821  10.742
   66CHL1    C8 7120   0.252   1.032  10.768
   66CHL1    H8 7121   0.194   1.126  10.770
   66CHL1   C14 7122   0.304   1.001  10.908
   66CHL1   H14 7123   0.359   0.905  10.899
   66CHL1   C15 7124   0.200   0.979  11.018
   66CHL1  H15A 7125   0.128   1.064  11.019
   66CHL1  H15B 7126   0.144   0.884  11.005
   66CHL1   C16 7127   0.284   0.982  11.146
   66CHL1  H16A 7128   0.233   1.045  11.223
   66CHL1  H16B 7129   0.299   0.880  11.187
   66CHL1   C17 7130   0.424   1.043  11.107
   66CHL1   H17 7131   0.493   0.957  11.095
   66CHL1   C13 7132   0.403   1.102  10.966
   66CHL1   C18 7133   0.336   1.241  10.980
   66CHL1  H18A 7134   0.410   1.317  11.013
   66CHL1  H18B 7135   0.295   1.276  10.883
   66CHL1  H18C 7136   0.253   1.240  11.053
   66CHL1   C12 7137   0.525   1.106  10.872
   66CHL1  H12A 7138   0.600   1.180  10.906
   66CHL1  H12B 7139   0.573   1.005  10.872
   66CHL1   C11 7140   0.482   1.140  10.728
   66CHL1  H11A 7141   0.447   1.246  10.728
   66CHL1  H11B 7142   0.571   1.134  10.661
   66CHL1    C9 7143   0.371   1.047  10.672
   66CHL1    H9 7144   0.417   0.946  10.668
   66CHL1   C10 7145   0.326   1.079  10.526
   66CHL1   C19 7146   0.295   1.230  10.515
   66CHL1  H19A 7147   0.387   1.290  10.530
   66CHL1  H19B 7148   0.255   1.257  10.415
   66CHL1  H19C 7149   0.220   1.260  10.591
   66CHL1    C1 7150   0.441   1.039  10.429
   66CHL1   H1A 7151   0.530   1.102  10.449
   66CHL1   H1B 7152   0.470   0.934  10.449
   66CHL1    C2 7153   0.404   1.051  10.280
   66CHL1   H2A 7154   0.490   1.015  10.218
   66CHL1   H2B 7155   0.388   1.158  10.256
   66CHL1   C20 7156   0.479   1.132  11.220
   66CHL1   H20 7157   0.406   1.213  11.239
   66CHL1   C21 7158   0.614   1.197  11.182
   66CHL1  H21A 7159   0.601   1.271  11.099
   66CHL1  H21B 7160   0.687   1.119  11.150
   66CHL1  H21C 7161   0.656   1.251  11.269
   66CHL1   C22 7162   0.497   1.054  11.353
   66CHL1  H22A 7163   0.431   0.965  11.356
   66CHL1  H22B 7164   0.601   1.017  11.359
   66CHL1   C23 7165   0.465   1.139  11.476
   66CHL1  H23A 7166   0.521   1.235  11.468
   66CHL1  H23B 7167   0.357   1.165  11.475
   66CHL1   C24 7168   0.500   1.073  11.611
   66CHL1  H24A 7169   0.610   1.061  11.617
   66CHL1  H24B 7170   0.469   1.141  11.693
   66CHL1   C25 7171   0.434   0.935  11.635
   66CHL1   H25 7172   0.468   0.866  11.555
   66CHL1   C26 7173   0.480   0.877  11.770
   66CHL1  H26A 7174   0.434   0.777  11.786
   66CHL1  H26B 7175   0.590   0.866  11.772
   66CHL1  H26C 7176   0.449   0.943  11.854
   66CHL1   C27 7177   0.281   0.942  11.630
   66CHL1  H27A 7178   0.245   0.979  11.532
   66CHL1  H27B 7179   0.238   0.840  11.645
   66CHL1  H27C 7180   0.242   1.009  11.710
   67CHL1    C3 7181   0.941   0.309  10.199
   67CHL1    H3 7182   0.986   0.209  10.213
   67CHL1    O3 7183   0.930   0.338  10.061
   67CHL1   H3' 7184   0.844   0.304  10.035
   67CHL1    C4 7185   0.800   0.311  10.262
   67CHL1   H4A 7186   0.750   0.407  10.237
   67CHL1   H4B 7187   0.740   0.231  10.214
   67CHL1    C5 7188   0.804   0.294  10.413
   67CHL1    C6 7189   0.737   0.195  10.474
   67CHL1    H6 7190   0.673   0.128  10.415
   67CHL1    C7 7191   0.735   0.175  10.623
   67CHL1   H7A 7192   0.633   0.151  10.657
   67CHL1   H7B 7193   0.800   0.089  10.649
   67CHL1    C8 7194   0.787   0.300  10.700
   67CHL1    H8 7195   0.708   0.378  10.694
   67CHL1   C14 7196   0.812   0.265  10.846
   67CHL1   H14 7197   0.892   0.189  10.845
   67CHL1   C15 7198   0.697   0.199  10.925
   67CHL1  H15A 7199   0.600   0.246  10.895
   67CHL1  H15B 7200   0.691   0.090  10.906
   67CHL1   C16 7201   0.727   0.232  11.072
   67CHL1  H16A 7202   0.647   0.298  11.112
   67CHL1  H16B 7203   0.732   0.143  11.137
   67CHL1   C17 7204   0.862   0.311  11.071
   67CHL1   H17 7205   0.943   0.235  11.067
   67CHL1   C13 7206   0.865   0.380  10.933
   67CHL1   C18 7207   0.765   0.499  10.935
   67CHL1  H18A 7208   0.666   0.470  10.975
   67CHL1  H18B 7209   0.805   0.580  10.999
   67CHL1  H18C 7210   0.750   0.541  10.834
   67CHL1   C12 7211   1.001   0.419  10.872
   67CHL1  H12A 7212   1.048   0.503  10.927
   67CHL1  H12B 7213   1.069   0.331  10.878
   67CHL1   C11 7214   0.988   0.459  10.724
   67CHL1  H11A 7215   0.932   0.555  10.721
   67CHL1  H11B 7216   1.090   0.478  10.683
   67CHL1    C9 7217   0.916   0.352  10.637
   67CHL1    H9 7218   0.985   0.265  10.637
   67CHL1   C10 7219   0.898   0.392  10.487
   67CHL1   C19 7220   0.833   0.532  10.480
   67CHL1  H19A 7221   0.809   0.562  10.376
   67CHL1  H19B 7222   0.738   0.536  10.539
   67CHL1  H19C 7223   0.902   0.610  10.520
   67CHL1    C1 7224   1.037   0.392  10.418
   67CHL1   H1A 7225   1.100   0.471  10.463
   67CHL1   H1B 7226   1.086   0.295  10.437
   67CHL1    C2 7227   1.031   0.414  10.265
   67CHL1   H2A 7228   1.134   0.406  10.222
   67CHL1   H2B 7229   0.993   0.515  10.244
   67CHL1   C20 7230   0.882   0.390  11.201
   67CHL1   H20 7231   0.801   0.464  11.213
   67CHL1   C21 7232   1.016   0.467  11.197
   67CHL1  H21A 7233   1.099   0.399  11.171
   67CHL1  H21B 7234   1.038   0.516  11.294
   67CHL1  H21C 7235   1.010   0.549  11.122
   67CHL1   C22 7236   0.875   0.293  11.323
   67CHL1  H22A 7237   0.769   0.262  11.337
   67CHL1  H22B 7238   0.934   0.202  11.300
   67CHL1   C23 7239   0.927   0.348  11.457
   67CHL1  H23A 7240   1.037   0.362  11.450
   67CHL1  H23B 7241   0.880   0.446  11.477
   67CHL1   C24 7242   0.899   0.252  11.574
   67CHL1  H24A 7243   0.791   0.260  11.603
   67CHL1  H24B 7244   0.917   0.148  11.541
   67CHL1   C25 7245   0.987   0.278  11.698
   67CHL1   H25 7246   1.092   0.259  11.669
   67CHL1   C26 7247   0.980   0.424  11.746
   67CHL1  H26A 7248   1.008   0.494  11.665
   67CHL1  H26B 7249   0.878   0.448  11.782
   67CHL1  H26C 7250   1.053   0.439  11.829
   67CHL1   C27 7251   0.953   0.182  11.813
   67CHL1  H27A 7252   0.961   0.076  11.779
   67CHL1  H27B 7253   1.023   0.197  11.898
   67CHL1  H27C 7254   0.849   0.200  11.849
   68CHL1    C3 7255   4.806   0.925  10.223
   68CHL1    H3 7256   4.750   1.021  10.223
   68CHL1    O3 7257   4.819   0.880  10.088
   68CHL1   H3' 7258   4.876   0.944  10.046
   68CHL1    C4 7259   4.945   0.944  10.284
   68CHL1   H4A 7260   5.001   0.849  10.272
   68CHL1   H4B 7261   5.000   1.020  10.224
   68CHL1    C5 7262   4.938   0.983  10.431
   68CHL1    C6 7263   4.996   1.095  10.478
   68CHL1    H6 7264   5.055   1.159  10.410
   68CHL1    C7 7265   4.997   1.135  10.623
   68CHL1   H7A 7266   5.098   1.169  10.653
   68CHL1   H7B 7267   4.927   1.219  10.640
   68CHL1    C8 7268   4.956   1.017  10.715
   68CHL1    H8 7269   5.041   0.945  10.716
   68CHL1   C14 7270   4.931   1.066  10.858
   68CHL1   H14 7271   4.845   1.135  10.852
   68CHL1   C15 7272   5.044   1.146  10.925
   68CHL1  H15A 7273   5.141   1.099  10.901
   68CHL1  H15B 7274   5.045   1.252  10.892
   68CHL1   C16 7275   5.015   1.133  11.076
   68CHL1  H16A 7276   5.105   1.092  11.126
   68CHL1  H16B 7277   4.989   1.230  11.122
   68CHL1   C17 7278   4.895   1.033  11.091
   68CHL1   H17 7279   4.803   1.095  11.095
   68CHL1   C13 7280   4.891   0.956  10.956
   68CHL1   C18 7281   4.999   0.845  10.962
   68CHL1  H18A 7282   5.096   0.885  10.998
   68CHL1  H18B 7283   4.966   0.763  11.030
   68CHL1  H18C 7284   5.015   0.799  10.862
   68CHL1   C12 7285   4.755   0.902  10.906
   68CHL1  H12A 7286   4.716   0.820  10.971
   68CHL1  H12B 7287   4.681   0.985  10.908
   68CHL1   C11 7288   4.766   0.847  10.763
   68CHL1  H11A 7289   4.826   0.753  10.769
   68CHL1  H11B 7290   4.665   0.818  10.727
   68CHL1    C9 7291   4.831   0.946  10.661
   68CHL1    H9 7292   4.756   1.027  10.649
   68CHL1   C10 7293   4.854   0.887  10.519
   68CHL1   C19 7294   4.933   0.754  10.530
   68CHL1  H19A 7295   5.027   0.768  10.586
   68CHL1  H19B 7296   4.871   0.677  10.582
   68CHL1  H19C 7297   4.957   0.711  10.431
   68CHL1    C1 7298   4.717   0.861  10.451
   68CHL1   H1A 7299   4.663   0.781  10.506
   68CHL1   H1B 7300   4.655   0.954  10.458
   68CHL1    C2 7301   4.725   0.821  10.302
   68CHL1   H2A 7302   4.623   0.812  10.260
   68CHL1   H2B 7303   4.774   0.722  10.293
   68CHL1   C20 7304   4.901   0.951  11.222
   68CHL1   H20 7305   4.984   0.878  11.216
   68CHL1   C21 7306   4.769   0.873  11.240
   68CHL1  H21A 7307   4.681   0.940  11.231
   68CHL1  H21B 7308   4.765   0.821  11.338
   68CHL1  H21C 7309   4.762   0.793  11.163
   68CHL1   C22 7310   4.932   1.036  11.350
   68CHL1  H22A 7311   5.029   1.088  11.337
   68CHL1  H22B 7312   4.853   1.113  11.364
   68CHL1   C23 7313   4.943   0.948  11.476
   68CHL1  H23A 7314   4.841   0.916  11.507
   68CHL1  H23B 7315   5.001   0.857  11.451
   68CHL1   C24 7316   5.012   1.016  11.596
   68CHL1  H24A 7317   5.112   1.051  11.564
   68CHL1  H24B 7318   4.952   1.105  11.627
   68CHL1   C25 7319   5.030   0.922  11.718
   68CHL1   H25 7320   5.087   0.834  11.683
   68CHL1   C26 7321   5.114   0.988  11.828
   68CHL1  H26A 7322   5.062   1.076  11.871
   68CHL1  H26B 7323   5.134   0.915  11.910
   68CHL1  H26C 7324   0.021   1.022  11.788
   68CHL1   C27 7325   4.897   0.872  11.775
   68CHL1  H27A 7326   4.831   0.957  11.803
   68CHL1  H27B 7327   4.843   0.809  11.701
   68CHL1  H27C 7328   4.915   0.810  11.866
   69SLPC     N 7329   2.015   4.165  13.836
   69SLPC   C13 7330   2.042   4.310  13.857
   69SLPC  H13A 7331   2.051   4.363  13.764
   69SLPC  H13B 7332   1.965   4.358  13.917
   69SLPC  H13C 7333   2.136   4.326  13.908
   69SLPC   C14 7334   2.027   4.090  13.966
   69SLPC  H14A 7335   2.008   3.986  13.946
   69SLPC  H14B 7336   2.126   4.098  14.009
   69SLPC  H14C 7337   1.954   4.124  14.038
   69SLPC   C15 7338   2.121   4.110  13.745
   69SLPC  H15A 7339   2.108   4.004  13.734
   69SLPC  H15B 7340   2.118   4.157  13.647
   69SLPC  H15C 7341   2.220   4.126  13.786
   69SLPC   C12 7342   1.876   4.143  13.779
   69SLPC  H12A 7343   1.858   4.216  13.701
   69SLPC  H12B 7344   1.803   4.163  13.856
   69SLPC   C11 7345   1.843   4.002  13.721
   69SLPC  H11A 7346   1.902   3.989  13.628
   69SLPC  H11B 7347   1.736   4.001  13.691
   69SLPC     P 7348   1.951   3.771  13.783
   69SLPC   O13 7349   2.093   3.806  13.805
   69SLPC   O14 7350   1.898   3.653  13.857
   69SLPC   O12 7351   1.865   3.899  13.818
   69SLPC   O11 7352   1.925   3.752  13.629
   69SLPC    C1 7353   2.024   3.697  13.542
   69SLPC    HA 7354   2.085   3.619  13.593
   69SLPC    HB 7355   1.971   3.647  13.458
   69SLPC    C2 7356   2.120   3.804  13.480
   69SLPC    HS 7357   2.187   3.838  13.562
   69SLPC   O21 7358   2.042   3.914  13.429
   69SLPC   C21 7359   2.112   4.025  13.407
   69SLPC   O22 7360   2.226   4.045  13.444
   69SLPC   C22 7361   2.024   4.127  13.335
   69SLPC   H2R 7362   1.930   4.076  13.305
   69SLPC   H2S 7363   1.999   4.209  13.406
   69SLPC    C3 7364   2.207   3.740  13.367
   69SLPC    HX 7365   2.272   3.663  13.415
   69SLPC    HY 7366   2.275   3.815  13.322
   69SLPC   O31 7367   2.122   3.673  13.270
   69SLPC   C31 7368   2.075   3.753  13.175
   69SLPC   O32 7369   2.121   3.862  13.145
   69SLPC   C32 7370   1.949   3.690  13.115
   69SLPC   H2X 7371   1.891   3.646  13.199
   69SLPC   H2Y 7372   1.979   3.607  13.048
   69SLPC   C23 7373   2.092   4.184  13.209
   69SLPC   H3R 7374   2.143   4.102  13.154
   69SLPC   H3S 7375   2.171   4.258  13.236
   69SLPC   C24 7376   1.993   4.247  13.110
   69SLPC   H4R 7377   1.963   4.348  13.145
   69SLPC   H4S 7378   1.901   4.184  13.107
   69SLPC   C25 7379   2.049   4.253  12.968
   69SLPC   H5R 7380   2.075   4.150  12.935
   69SLPC   H5S 7381   2.143   4.312  12.968
   69SLPC   C26 7382   1.950   4.314  12.867
   69SLPC   H6R 7383   1.934   4.420  12.895
   69SLPC   H6S 7384   1.852   4.262  12.873
   69SLPC   C27 7385   2.003   4.308  12.723
   69SLPC   H7R 7386   2.111   4.334  12.725
   69SLPC   H7S 7387   1.951   4.386  12.663
   69SLPC   C28 7388   1.981   4.172  12.655
   69SLPC   H8R 7389   1.873   4.147  12.660
   69SLPC   H8S 7390   2.034   4.095  12.715
   69SLPC   C29 7391   2.034   4.170  12.513
   69SLPC   H9R 7392   2.143   4.187  12.506
   69SLPC  C210 7393   1.964   4.151  12.399
   69SLPC  H10R 7394   2.019   4.152  12.304
   69SLPC  C211 7395   1.816   4.126  12.384
   69SLPC  H11R 7396   1.775   4.199  12.311
   69SLPC  H11S 7397   1.763   4.148  12.480
   69SLPC  C212 7398   1.787   3.983  12.344
   69SLPC  H12R 7399   1.831   3.908  12.411
   69SLPC  C213 7400   1.713   3.940  12.240
   69SLPC  H13R 7401   1.703   3.831  12.226
   69SLPC  C214 7402   1.641   4.022  12.137
   69SLPC  H14R 7403   1.667   4.130  12.142
   69SLPC  H14S 7404   1.532   4.016  12.156
   69SLPC  C215 7405   1.666   3.972  11.993
   69SLPC  H15R 7406   1.593   4.022  11.925
   69SLPC  H15S 7407   1.645   3.863  11.988
   69SLPC  C216 7408   1.808   3.999  11.940
   69SLPC  H16R 7409   1.820   3.946  11.843
   69SLPC  H16S 7410   1.882   3.955  12.011
   69SLPC  C217 7411   1.842   4.147  11.918
   69SLPC  H17R 7412   1.948   4.154  11.887
   69SLPC  H17S 7413   1.833   4.201  12.014
   69SLPC  C218 7414   1.756   4.217  11.812
   69SLPC  H18R 7415   1.760   4.163  11.715
   69SLPC  H18S 7416   1.791   4.321  11.795
   69SLPC  H18T 7417   1.649   4.222  11.844
   69SLPC   C33 7418   1.857   3.790  13.040
   69SLPC   H3X 7419   1.831   3.874  13.108
   69SLPC   H3Y 7420   1.763   3.737  13.014
   69SLPC   C34 7421   1.916   3.847  12.910
   69SLPC   H4X 7422   2.005   3.909  12.933
   69SLPC   H4Y 7423   1.841   3.915  12.864
   69SLPC   C35 7424   1.957   3.741  12.806
   69SLPC   H5X 7425   1.868   3.680  12.779
   69SLPC   H5Y 7426   2.034   3.674  12.848
   69SLPC   C36 7427   2.014   3.807  12.680
   69SLPC   H6X 7428   2.104   3.865  12.708
   69SLPC   H6Y 7429   1.940   3.878  12.638
   69SLPC   C37 7430   2.052   3.706  12.571
   69SLPC   H7X 7431   1.960   3.649  12.543
   69SLPC   H7Y 7432   2.126   3.633  12.609
   69SLPC   C38 7433   2.107   3.774  12.445
   69SLPC   H8X 7434   2.045   3.864  12.423
   69SLPC   H8Y 7435   2.097   3.704  12.359
   69SLPC   C39 7436   2.254   3.817  12.456
   69SLPC   H9X 7437   2.316   3.725  12.455
   69SLPC   H9Y 7438   2.271   3.867  12.554
   69SLPC  C310 7439   2.300   3.911  12.344
   69SLPC  H10X 7440   2.411   3.915  12.343
   69SLPC  H10Y 7441   2.263   4.014  12.365
   69SLPC  C311 7442   2.249   3.869  12.205
   69SLPC  H11X 7443   2.139   3.885  12.203
   69SLPC  H11Y 7444   2.268   3.761  12.191
   69SLPC  C312 7445   2.310   3.947  12.088
   69SLPC  H12X 7446   2.416   3.916  12.076
   69SLPC  H12Y 7447   2.309   4.055  12.113
   69SLPC  C313 7448   2.235   3.926  11.956
   69SLPC  H13X 7449   2.291   3.979  11.876
   69SLPC  H13Y 7450   2.135   3.973  11.962
   69SLPC  C314 7451   2.218   3.779  11.912
   69SLPC  H14X 7452   2.304   3.719  11.951
   69SLPC  H14Y 7453   2.221   3.774  11.801
   69SLPC  C315 7454   2.085   3.717  11.957
   69SLPC  H15X 7455   2.002   3.780  11.918
   69SLPC  H15Y 7456   2.078   3.718  12.068
   69SLPC  C316 7457   2.065   3.573  11.909
   69SLPC  H16X 7458   2.155   3.513  11.935
   69SLPC  H16Y 7459   2.055   3.573  11.798
   69SLPC  C317 7460   1.942   3.505  11.971
   69SLPC  H17X 7461   1.960   3.491  12.080
   69SLPC  H17Y 7462   1.930   3.404  11.927
   69SLPC  C318 7463   1.810   3.583  11.954
   69SLPC  H18X 7464   1.725   3.525  11.994
   69SLPC  H18Y 7465   1.792   3.604  11.846
   69SLPC  H18Z 7466   1.814   3.680  12.008
   70SLPC     N 7467   4.095   3.411  14.061
   70SLPC   C13 7468   4.001   3.329  13.978
   70SLPC  H13A 7469   3.966   3.244  14.034
   70SLPC  H13B 7470   3.916   3.388  13.947
   70SLPC  H13C 7471   4.052   3.297  13.889
   70SLPC   C14 7472   4.207   3.321  14.103
   70SLPC  H14A 7473   4.279   3.374  14.164
   70SLPC  H14B 7474   4.170   3.237  14.159
   70SLPC  H14C 7475   4.259   3.286  14.015
   70SLPC   C15 7476   4.024   3.459  14.184
   70SLPC  H15A 7477   3.988   3.373  14.239
   70SLPC  H15B 7478   4.091   3.512  14.249
   70SLPC  H15C 7479   3.939   3.521  14.161
   70SLPC   C12 7480   4.151   3.524  13.976
   70SLPC  H12A 7481   4.192   3.600  14.041
   70SLPC  H12B 7482   4.069   3.568  13.921
   70SLPC   C11 7483   4.262   3.488  13.873
   70SLPC  H11A 7484   4.357   3.471  13.927
   70SLPC  H11B 7485   4.276   3.577  13.807
   70SLPC     P 7486   4.321   3.332  13.674
   70SLPC   O13 7487   4.335   3.448  13.584
   70SLPC   O14 7488   4.446   3.271  13.726
   70SLPC   O12 7489   4.228   3.373  13.796
   70SLPC   O11 7490   4.230   3.222  13.607
   70SLPC    C1 7491   4.176   3.111  13.680
   70SLPC    HA 7492   4.238   3.087  13.770
   70SLPC    HB 7493   4.074   3.137  13.716
   70SLPC    C2 7494   4.166   2.979  13.596
   70SLPC    HS 7495   4.237   2.904  13.639
   70SLPC   O21 7496   4.198   3.002  13.458
   70SLPC   C21 7497   4.325   3.027  13.436
   70SLPC   O22 7498   4.416   3.016  13.518
   70SLPC   C22 7499   4.345   3.063  13.289
   70SLPC   H2R 7500   4.430   3.002  13.253
   70SLPC   H2S 7501   4.255   3.034  13.231
   70SLPC    C3 7502   4.024   2.915  13.603
   70SLPC    HX 7503   4.006   2.884  13.708
   70SLPC    HY 7504   4.023   2.822  13.542
   70SLPC   O31 7505   3.921   3.008  13.565
   70SLPC   C31 7506   3.896   3.014  13.434
   70SLPC   O32 7507   3.938   2.937  13.350
   70SLPC   C32 7508   3.800   3.129  13.407
   70SLPC   H2X 7509   3.821   3.210  13.480
   70SLPC   H2Y 7510   3.697   3.092  13.423
   70SLPC   C23 7511   4.379   3.213  13.269
   70SLPC   H3R 7512   4.449   3.218  13.183
   70SLPC   H3S 7513   4.433   3.256  13.356
   70SLPC   C24 7514   4.255   3.298  13.237
   70SLPC   H4R 7515   4.207   3.328  13.333
   70SLPC   H4S 7516   4.180   3.238  13.180
   70SLPC   C25 7517   4.289   3.422  13.153
   70SLPC   H5R 7518   4.375   3.473  13.201
   70SLPC   H5S 7519   4.203   3.493  13.154
   70SLPC   C26 7520   4.323   3.387  13.007
   70SLPC   H6R 7521   4.229   3.365  12.952
   70SLPC   H6S 7522   4.383   3.294  13.006
   70SLPC   C27 7523   4.402   3.496  12.934
   70SLPC   H7R 7524   4.488   3.526  12.997
   70SLPC   H7S 7525   4.337   3.585  12.922
   70SLPC   C28 7526   4.453   3.451  12.795
   70SLPC   H8R 7527   4.505   3.537  12.748
   70SLPC   H8S 7528   4.363   3.431  12.733
   70SLPC   C29 7529   4.545   3.332  12.801
   70SLPC   H9R 7530   4.635   3.345  12.862
   70SLPC  C210 7531   4.527   3.213  12.740
   70SLPC  H10R 7532   4.603   3.134  12.754
   70SLPC  C211 7533   4.410   3.174  12.654
   70SLPC  H11R 7534   4.446   3.105  12.574
   70SLPC  H11S 7535   4.372   3.263  12.599
   70SLPC  C212 7536   4.296   3.111  12.730
   70SLPC  H12R 7537   4.305   3.109  12.840
   70SLPC  C213 7538   4.186   3.059  12.673
   70SLPC  H13R 7539   4.106   3.017  12.737
   70SLPC  C214 7540   4.160   3.058  12.525
   70SLPC  H14R 7541   4.255   3.057  12.468
   70SLPC  H14S 7542   4.106   3.151  12.497
   70SLPC  C215 7543   4.076   2.939  12.474
   70SLPC  H15R 7544   3.970   2.954  12.503
   70SLPC  H15S 7545   4.111   2.844  12.521
   70SLPC  C216 7546   4.085   2.923  12.321
   70SLPC  H16R 7547   4.014   2.843  12.290
   70SLPC  H16S 7548   4.187   2.889  12.295
   70SLPC  C217 7549   4.054   3.052  12.243
   70SLPC  H17R 7550   4.124   3.132  12.276
   70SLPC  H17S 7551   3.951   3.085  12.268
   70SLPC  C218 7552   4.069   3.036  12.092
   70SLPC  H18R 7553   3.993   2.964  12.053
   70SLPC  H18S 7554   4.170   2.998  12.066
   70SLPC  H18T 7555   4.054   3.134  12.042
   70SLPC   C33 7556   3.815   3.184  13.263
   70SLPC   H3X 7557   3.809   3.101  13.189
   70SLPC   H3Y 7558   3.916   3.230  13.253
   70SLPC   C34 7559   3.709   3.289  13.229
   70SLPC   H4X 7560   3.700   3.360  13.314
   70SLPC   H4Y 7561   3.610   3.239  13.217
   70SLPC   C35 7562   3.742   3.369  13.102
   70SLPC   H5X 7563   3.842   3.416  13.111
   70SLPC   H5Y 7564   3.668   3.452  13.094
   70SLPC   C36 7565   3.736   3.287  12.973
   70SLPC   H6X 7566   3.690   3.347  12.891
   70SLPC   H6Y 7567   3.668   3.200  12.991
   70SLPC   C37 7568   3.874   3.239  12.928
   70SLPC   H7X 7569   3.866   3.141  12.876
   70SLPC   H7Y 7570   3.939   3.225  13.017
   70SLPC   C38 7571   3.942   3.337  12.830
   70SLPC   H8X 7572   4.052   3.324  12.842
   70SLPC   H8Y 7573   3.917   3.442  12.857
   70SLPC   C39 7574   3.905   3.307  12.684
   70SLPC   H9X 7575   3.795   3.307  12.672
   70SLPC   H9Y 7576   3.941   3.205  12.660
   70SLPC  C310 7577   3.967   3.405  12.583
   70SLPC  H10X 7578   3.905   3.498  12.585
   70SLPC  H10Y 7579   3.958   3.360  12.482
   70SLPC  C311 7580   4.113   3.441  12.613
   70SLPC  H11X 7581   4.166   3.348  12.642
   70SLPC  H11Y 7582   4.116   3.510  12.700
   70SLPC  C312 7583   4.191   3.504  12.496
   70SLPC  H12X 7584   4.290   3.535  12.535
   70SLPC  H12Y 7585   4.139   3.596  12.461
   70SLPC  C313 7586   4.215   3.407  12.379
   70SLPC  H13X 7587   4.120   3.391  12.324
   70SLPC  H13Y 7588   4.246   3.309  12.421
   70SLPC  C314 7589   4.324   3.456  12.283
   70SLPC  H14X 7590   4.420   3.467  12.338
   70SLPC  H14Y 7591   4.295   3.556  12.246
   70SLPC  C315 7592   4.343   3.362  12.162
   70SLPC  H15X 7593   4.404   3.414  12.085
   70SLPC  H15Y 7594   4.244   3.341  12.118
   70SLPC  C316 7595   4.412   3.228  12.194
   70SLPC  H16X 7596   4.402   3.161  12.107
   70SLPC  H16Y 7597   4.361   3.179  12.280
   70SLPC  C317 7598   4.562   3.243  12.226
   70SLPC  H17X 7599   4.575   3.310  12.313
   70SLPC  H17Y 7600   4.612   3.291  12.139
   70SLPC  C318 7601   4.630   3.109  12.255
   70SLPC  H18X 7602   4.585   3.062  12.345
   70SLPC  H18Y 7603   4.739   3.124  12.274
   70SLPC  H18Z 7604   4.619   3.040  12.169
   71SLPC     N 7605   5.049   0.892  13.678
   71SLPC   C13 7606   4.963   0.936  13.791
   71SLPC  H13A 7607   4.867   0.885  13.790
   71SLPC  H13B 7608   5.012   0.915  13.885
   71SLPC  H13C 7609   4.940   1.041  13.784
   71SLPC   C14 7610   5.182   0.961  13.687
   71SLPC  H14A 7611   0.042   0.927  13.776
   71SLPC  H14B 7612   0.057   0.932  13.607
   71SLPC  H14C 7613   5.172   1.068  13.690
   71SLPC   C15 7614   4.982   0.928  13.549
   71SLPC  H15A 7615   4.894   0.868  13.534
   71SLPC  H15B 7616   4.950   1.031  13.553
   71SLPC  H15C 7617   5.049   0.914  13.465
   71SLPC   C12 7618   5.069   0.741  13.683
   71SLPC  H12A 7619   5.148   0.714  13.615
   71SLPC  H12B 7620   4.979   0.694  13.648
   71SLPC   C11 7621   5.107   0.676  13.819
   71SLPC  H11A 7622   5.108   0.565  13.807
   71SLPC  H11B 7623   5.029   0.698  13.895
   71SLPC     P 7624   0.175   0.682  13.791
   71SLPC   O13 7625   0.245   0.808  13.761
   71SLPC   O14 7626   0.243   0.578  13.870
   71SLPC   O12 7627   0.041   0.722  13.867
   71SLPC   O11 7628   0.120   0.619  13.656
   71SLPC    C1 7629   0.202   0.536  13.573
   71SLPC    HA 7630   0.288   0.493  13.629
   71SLPC    HB 7631   0.141   0.451  13.538
   71SLPC    C2 7632   0.261   0.608  13.447
   71SLPC    HS 7633   0.369   0.582  13.447
   71SLPC   O21 7634   0.242   0.750  13.459
   71SLPC   C21 7635   0.340   0.820  13.402
   71SLPC   O22 7636   0.422   0.775  13.323
   71SLPC   C22 7637   0.339   0.962  13.456
   71SLPC   H2R 7638   0.321   0.956  13.565
   71SLPC   H2S 7639   0.439   1.007  13.440
   71SLPC    C3 7640   0.199   0.554  13.315
   71SLPC    HX 7641   0.234   0.449  13.305
   71SLPC    HY 7642   0.242   0.609  13.229
   71SLPC   O31 7643   0.054   0.551  13.317
   71SLPC   C31 7644   5.186   0.651  13.253
   71SLPC   O32 7645   0.051   0.741  13.194
   71SLPC   C32 7646   5.035   0.642  13.267
   71SLPC   H2X 7647   4.995   0.744  13.249
   71SLPC   H2Y 7648   5.012   0.614  13.373
   71SLPC   C23 7649   0.231   1.050  13.390
   71SLPC   H3R 7650   0.225   1.145  13.447
   71SLPC   H3S 7651   0.131   1.001  13.394
   71SLPC   C24 7652   0.265   1.090  13.246
   71SLPC   H4R 7653   0.254   1.001  13.179
   71SLPC   H4S 7654   0.371   1.121  13.242
   71SLPC   C25 7655   0.178   1.207  13.196
   71SLPC   H5R 7656   0.216   1.242  13.098
   71SLPC   H5S 7657   0.193   1.291  13.267
   71SLPC   C26 7658   0.028   1.175  13.186
   71SLPC   H6R 7659   5.165   1.267  13.154
   71SLPC   H6S 7660   5.183   1.151  13.289
   71SLPC   C27 7661   5.179   1.060  13.093
   71SLPC   H7R 7662   5.069   1.048  13.101
   71SLPC   H7S 7663   0.034   0.966  13.130
   71SLPC   C28 7664   0.021   1.077  12.943
   71SLPC   H8R 7665   5.180   1.178  12.910
   71SLPC   H8S 7666   5.150   1.005  12.886
   71SLPC   C29 7667   0.167   1.053  12.911
   71SLPC   H9R 7668   0.231   1.142  12.916
   71SLPC  C210 7669   0.226   0.936  12.885
   71SLPC  H10R 7670   0.334   0.935  12.869
   71SLPC  C211 7671   0.159   0.801  12.880
   71SLPC  H11R 7672   0.126   0.783  12.775
   71SLPC  H11S 7673   0.067   0.801  12.942
   71SLPC  C212 7674   0.252   0.692  12.929
   71SLPC  H12R 7675   0.310   0.718  13.020
   71SLPC  C213 7676   0.268   0.569  12.876
   71SLPC  H13R 7677   0.339   0.500  12.923
   71SLPC  C214 7678   0.195   0.515  12.756
   71SLPC  H14R 7679   0.117   0.587  12.723
   71SLPC  H14S 7680   0.140   0.422  12.784
   71SLPC  C215 7681   0.280   0.486  12.631
   71SLPC  H15R 7682   0.295   0.376  12.622
   71SLPC  H15S 7683   0.381   0.533  12.641
   71SLPC  C216 7684   0.214   0.542  12.504
   71SLPC  H16R 7685   0.208   0.652  12.513
   71SLPC  H16S 7686   0.110   0.503  12.496
   71SLPC  C217 7687   0.291   0.506  12.376
   71SLPC  H17R 7688   0.279   0.398  12.356
   71SLPC  H17S 7689   0.399   0.525  12.393
   71SLPC  C218 7690   0.245   0.586  12.254
   71SLPC  H18R 7691   0.299   0.552  12.163
   71SLPC  H18S 7692   0.266   0.694  12.269
   71SLPC  H18T 7693   0.136   0.574  12.237
   71SLPC   C33 7694   4.966   0.543  13.170
   71SLPC   H3X 7695   4.989   0.439  13.202
   71SLPC   H3Y 7696   5.007   0.556  13.067
   71SLPC   C34 7697   4.814   0.564  13.164
   71SLPC   H4X 7698   4.790   0.660  13.112
   71SLPC   H4Y 7699   4.779   0.575  13.269
   71SLPC   C35 7700   4.735   0.449  13.099
   71SLPC   H5X 7701   4.628   0.458  13.128
   71SLPC   H5Y 7702   4.774   0.353  13.141
   71SLPC   C36 7703   4.744   0.438  12.947
   71SLPC   H6X 7704   4.712   0.335  12.918
   71SLPC   H6Y 7705   4.849   0.452  12.913
   71SLPC   C37 7706   4.651   0.536  12.874
   71SLPC   H7X 7707   4.689   0.639  12.895
   71SLPC   H7Y 7708   4.548   0.528  12.914
   71SLPC   C38 7709   4.650   0.517  12.722
   71SLPC   H8X 7710   4.616   0.414  12.697
   71SLPC   H8Y 7711   4.755   0.526  12.687
   71SLPC   C39 7712   4.563   0.621  12.649
   71SLPC   H9X 7713   4.574   0.720  12.699
   71SLPC   H9Y 7714   4.457   0.590  12.659
   71SLPC  C310 7715   4.601   0.635  12.501
   71SLPC  H10X 7716   4.508   0.638  12.440
   71SLPC  H10Y 7717   4.657   0.544  12.470
   71SLPC  C311 7718   4.684   0.761  12.473
   71SLPC  H11X 7719   4.755   0.775  12.557
   71SLPC  H11Y 7720   4.619   0.851  12.470
   71SLPC  C312 7721   4.768   0.752  12.344
   71SLPC  H12X 7722   4.702   0.745  12.255
   71SLPC  H12Y 7723   4.827   0.658  12.348
   71SLPC  C313 7724   4.866   0.870  12.329
   71SLPC  H13X 7725   4.902   0.899  12.430
   71SLPC  H13Y 7726   4.812   0.956  12.286
   71SLPC  C314 7727   4.989   0.836  12.242
   71SLPC  H14X 7728   4.953   0.798  12.144
   71SLPC  H14Y 7729   5.048   0.756  12.291
   71SLPC  C315 7730   5.082   0.956  12.217
   71SLPC  H15X 7731   5.022   1.040  12.176
   71SLPC  H15Y 7732   5.157   0.929  12.140
   71SLPC  C316 7733   5.158   1.006  12.342
   71SLPC  H16X 7734   5.110   0.967  12.435
   71SLPC  H16Y 7735   5.151   1.117  12.345
   71SLPC  C317 7736   0.115   0.968  12.343
   71SLPC  H17X 7737   0.161   1.002  12.247
   71SLPC  H17Y 7738   0.123   0.857  12.346
   71SLPC  C318 7739   0.193   1.028  12.460
   71SLPC  H18X 7740   0.183   1.139  12.460
   71SLPC  H18Y 7741   0.301   1.002  12.453
   71SLPC  H18Z 7742   0.154   0.990  12.557
   72SLPC     N 7743   4.572   5.006  13.755
   72SLPC   C13 7744   4.586   4.925  13.630
   72SLPC  H13A 7745   4.657   4.971  13.563
   72SLPC  H13B 7746   4.623   4.826  13.654
   72SLPC  H13C 7747   4.492   4.915  13.579
   72SLPC   C14 7748   4.704   5.016  13.823
   72SLPC  H14A 7749   4.743   4.921  13.857
   72SLPC  H14B 7750   4.777   5.068  13.762
   72SLPC  H14C 7751   4.693   5.079  13.910
   72SLPC   C15 7752   4.475   4.941  13.849
   72SLPC  H15A 7753   4.507   4.841  13.877
   72SLPC  H15B 7754   4.468   4.998  13.940
   72SLPC  H15C 7755   4.376   4.933  13.807
   72SLPC   C12 7756   4.528   5.149  13.720
   72SLPC  H12A 7757   4.442   5.144  13.655
   72SLPC  H12B 7758   4.608   0.005  13.666
   72SLPC   C11 7759   4.493   0.053  13.837
   72SLPC  H11A 7760   4.419   0.006  13.905
   72SLPC  H11B 7761   4.444   0.144  13.796
   72SLPC     P 7762   4.721   0.178  13.847
   72SLPC   O13 7763   4.800   0.237  13.958
   72SLPC   O14 7764   4.793   0.094  13.749
   72SLPC   O12 7765   4.609   0.088  13.913
   72SLPC   O11 7766   4.639   0.289  13.771
   72SLPC    C1 7767   4.573   0.395  13.841
   72SLPC    HA 7768   4.464   0.373  13.848
   72SLPC    HB 7769   4.608   0.405  13.946
   72SLPC    C2 7770   4.594   0.535  13.775
   72SLPC    HS 7771   4.528   0.609  13.826
   72SLPC   O21 7772   4.569   0.538  13.633
   72SLPC   C21 7773   4.456   0.493  13.585
   72SLPC   O22 7774   4.365   0.441  13.647
   72SLPC   C22 7775   4.448   0.526  13.434
   72SLPC   H2R 7776   4.508   0.452  13.378
   72SLPC   H2S 7777   4.341   0.512  13.406
   72SLPC    C3 7778   4.742   0.581  13.795
   72SLPC    HX 7779   4.762   0.584  13.904
   72SLPC    HY 7780   4.753   0.685  13.757
   72SLPC   O31 7781   4.835   0.489  13.734
   72SLPC   C31 7782   4.850   0.505  13.603
   72SLPC   O32 7783   4.838   0.612  13.544
   72SLPC   C32 7784   4.882   0.373  13.535
   72SLPC   H2X 7785   4.913   0.298  13.612
   72SLPC   H2Y 7786   4.968   0.391  13.467
   72SLPC   C23 7787   4.491   0.670  13.399
   72SLPC   H3R 7788   4.602   0.679  13.399
   72SLPC   H3S 7789   4.453   0.740  13.477
   72SLPC   C24 7790   4.434   0.719  13.264
   72SLPC   H4R 7791   4.324   0.699  13.266
   72SLPC   H4S 7792   4.476   0.659  13.180
   72SLPC   C25 7793   4.452   0.870  13.240
   72SLPC   H5R 7794   4.449   0.922  13.338
   72SLPC   H5S 7795   4.366   0.906  13.180
   72SLPC   C26 7796   4.580   0.910  13.163
   72SLPC   H6R 7797   4.668   0.862  13.212
   72SLPC   H6S 7798   4.592   1.020  13.172
   72SLPC   C27 7799   4.575   0.873  13.014
   72SLPC   H7R 7800   4.480   0.911  12.972
   72SLPC   H7S 7801   4.571   0.762  13.007
   72SLPC   C28 7802   4.690   0.928  12.926
   72SLPC   H8R 7803   4.676   1.038  12.917
   72SLPC   H8S 7804   4.678   0.887  12.823
   72SLPC   C29 7805   4.830   0.902  12.978
   72SLPC   H9R 7806   4.848   0.946  13.077
   72SLPC  C210 7807   4.931   0.834  12.920
   72SLPC  H10R 7808   5.026   0.829  12.975
   72SLPC  C211 7809   4.934   0.764  12.785
   72SLPC  H11R 7810   4.970   0.835  12.708
   72SLPC  H11S 7811   4.832   0.734  12.754
   72SLPC  C212 7812   5.026   0.643  12.787
   72SLPC  H12R 7813   5.082   0.630  12.880
   72SLPC  C213 7814   5.050   0.554  12.689
   72SLPC  H13R 7815   5.119   0.472  12.710
   72SLPC  C214 7816   4.993   0.548  12.549
   72SLPC  H14R 7817   5.061   0.601  12.478
   72SLPC  H14S 7818   4.894   0.599  12.544
   72SLPC  C215 7819   4.978   0.401  12.503
   72SLPC  H15R 7820   4.916   0.347  12.578
   72SLPC  H15S 7821   5.078   0.353  12.501
   72SLPC  C216 7822   4.911   0.382  12.365
   72SLPC  H16R 7823   4.809   0.425  12.369
   72SLPC  H16S 7824   4.899   0.273  12.347
   72SLPC  C217 7825   4.986   0.443  12.246
   72SLPC  H17R 7826   4.996   0.552  12.262
   72SLPC  H17S 7827   4.924   0.429  12.155
   72SLPC  C218 7828   5.125   0.385  12.219
   72SLPC  H18R 7829   5.173   0.439  12.135
   72SLPC  H18S 7830   5.119   0.277  12.192
   72SLPC  H18T 7831   5.190   0.395  12.309
   72SLPC   C33 7832   4.760   0.322  13.456
   72SLPC   H3X 7833   4.717   0.408  13.399
   72SLPC   H3Y 7834   4.682   0.285  13.525
   72SLPC   C34 7835   4.793   0.214  13.352
   72SLPC   H4X 7836   4.878   0.251  13.291
   72SLPC   H4Y 7837   4.706   0.200  13.285
   72SLPC   C35 7838   4.834   0.080  13.412
   72SLPC   H5X 7839   4.857   0.092  13.520
   72SLPC   H5Y 7840   4.927   0.048  13.361
   72SLPC   C36 7841   4.733   5.158  13.392
   72SLPC   H6X 7842   4.633   5.190  13.428
   72SLPC   H6Y 7843   4.767   5.072  13.453
   72SLPC   C37 7844   4.726   5.112  13.245
   72SLPC   H7X 7845   4.828   5.088  13.209
   72SLPC   H7Y 7846   4.688   0.005  13.184
   72SLPC   C38 7847   4.636   4.990  13.229
   72SLPC   H8X 7848   4.539   5.012  13.278
   72SLPC   H8Y 7849   4.683   4.904  13.283
   72SLPC   C39 7850   4.610   4.949  13.083
   72SLPC   H9X 7851   4.542   4.861  13.084
   72SLPC   H9Y 7852   4.705   4.917  13.036
   72SLPC  C310 7853   4.544   5.058  12.996
   72SLPC  H10X 7854   4.511   5.011  12.901
   72SLPC  H10Y 7855   4.619   5.136  12.970
   72SLPC  C311 7856   4.424   5.126  13.064
   72SLPC  H11X 7857   4.459   0.008  13.139
   72SLPC  H11Y 7858   4.365   5.048  13.117
   72SLPC  C312 7859   4.329   0.004  12.965
   72SLPC  H12X 7860   4.245   0.047  13.024
   72SLPC  H12Y 7861   4.286   5.118  12.898
   72SLPC  C313 7862   4.391   0.115  12.880
   72SLPC  H13X 7863   4.477   0.074  12.822
   72SLPC  H13Y 7864   4.430   0.196  12.945
   72SLPC  C314 7865   4.288   0.173  12.781
   72SLPC  H14X 7866   4.206   0.222  12.837
   72SLPC  H14Y 7867   4.244   0.088  12.725
   72SLPC  C315 7868   4.347   0.271  12.679
   72SLPC  H15X 7869   4.438   0.226  12.633
   72SLPC  H15Y 7870   4.378   0.365  12.730
   72SLPC  C316 7871   4.247   0.303  12.566
   72SLPC  H16X 7872   4.158   0.354  12.610
   72SLPC  H16Y 7873   4.212   0.208  12.521
   72SLPC  C317 7874   4.306   0.391  12.455
   72SLPC  H17X 7875   4.400   0.343  12.418
   72SLPC  H17Y 7876   4.333   0.490  12.497
   72SLPC  C318 7877   4.210   0.411  12.337
   72SLPC  H18X 7878   4.116   0.457  12.372
   72SLPC  H18Y 7879   4.186   0.313  12.290
   72SLPC  H18Z 7880   4.255   0.477  12.260
   73SLPC     N 7881   3.468   3.483  10.067
   73SLPC   C13 7882   3.438   3.526  10.207
   73SLPC  H13A 7883   3.476   3.451  10.276
   73SLPC  H13B 7884   3.483   3.621  10.233
   73SLPC  H13C 7885   3.332   3.535  10.227
   73SLPC   C14 7886   3.616   3.494  10.046
   73SLPC  H14A 7887   3.651   3.595  10.062
   73SLPC  H14B 7888   3.667   3.430  10.117
   73SLPC  H14C 7889   3.643   3.461   9.947
   73SLPC   C15 7890   3.398   3.575   9.973
   73SLPC  H15A 7891   3.426   3.550   9.871
   73SLPC  H15B 7892   3.291   3.564   9.981
   73SLPC  H15C 7893   3.424   3.677   9.994
   73SLPC   C12 7894   3.421   3.340  10.048
   73SLPC  H12A 7895   3.417   3.318   9.942
   73SLPC  H12B 7896   3.320   3.332  10.086
   73SLPC   C11 7897   3.503   3.226  10.114
   73SLPC  H11A 7898   3.603   3.220  10.066
   73SLPC  H11B 7899   3.452   3.129  10.094
   73SLPC     P 7900   3.648   3.241  10.332
   73SLPC   O13 7901   3.684   3.100  10.357
   73SLPC   O14 7902   3.743   3.324  10.255
   73SLPC   O12 7903   3.509   3.245  10.255
   73SLPC   O11 7904   3.607   3.315  10.464
   73SLPC    C1 7905   3.632   3.455  10.485
   73SLPC    HA 7906   3.635   3.513  10.390
   73SLPC    HB 7907   3.550   3.496  10.547
   73SLPC    C2 7908   3.764   3.482  10.562
   73SLPC    HS 7909   3.848   3.463  10.492
   73SLPC   O21 7910   3.771   3.389  10.671
   73SLPC   C21 7911   3.875   3.400  10.748
   73SLPC   O22 7912   3.979   3.460  10.726
   73SLPC   C22 7913   3.840   3.331  10.879
   73SLPC   H2R 7914   3.735   3.359  10.903
   73SLPC   H2S 7915   3.843   3.221  10.863
   73SLPC    C3 7916   3.768   3.630  10.611
   73SLPC    HX 7917   3.742   3.695  10.525
   73SLPC    HY 7918   3.872   3.656  10.642
   73SLPC   O31 7919   3.675   3.652  10.720
   73SLPC   C31 7920   3.682   3.774  10.773
   73SLPC   O32 7921   3.753   3.864  10.732
   73SLPC   C32 7922   3.588   3.785  10.893
   73SLPC   H2X 7923   3.555   3.683  10.924
   73SLPC   H2Y 7924   3.499   3.842  10.857
   73SLPC   C23 7925   3.932   3.373  10.995
   73SLPC   H3R 7926   3.914   3.480  11.018
   73SLPC   H3S 7927   4.039   3.363  10.965
   73SLPC   C24 7928   3.908   3.288  11.120
   73SLPC   H4R 7929   3.968   3.329  11.204
   73SLPC   H4S 7930   3.943   3.185  11.099
   73SLPC   C25 7931   3.762   3.281  11.164
   73SLPC   H5R 7932   3.698   3.246  11.080
   73SLPC   H5S 7933   3.727   3.382  11.192
   73SLPC   C26 7934   3.743   3.182  11.279
   73SLPC   H6R 7935   3.798   3.217  11.369
   73SLPC   H6S 7936   3.790   3.085  11.249
   73SLPC   C27 7937   3.596   3.155  11.309
   73SLPC   H7R 7938   3.590   3.070  11.381
   73SLPC   H7S 7939   3.548   3.123  11.214
   73SLPC   C28 7940   3.519   3.275  11.369
   73SLPC   H8R 7941   3.569   3.369  11.335
   73SLPC   H8S 7942   3.531   3.273  11.479
   73SLPC   C29 7943   3.373   3.276  11.331
   73SLPC   H9R 7944   3.312   3.201  11.384
   73SLPC  C210 7945   3.314   3.356  11.240
   73SLPC  H10R 7946   3.205   3.344  11.223
   73SLPC  C211 7947   3.379   3.462  11.155
   73SLPC  H11R 7948   3.362   3.439  11.047
   73SLPC  H11S 7949   3.490   3.461  11.165
   73SLPC  C212 7950   3.325   3.600  11.183
   73SLPC  H12R 7951   3.238   3.630  11.123
   73SLPC  C213 7952   3.373   3.688  11.274
   73SLPC  H13R 7953   3.324   3.785  11.287
   73SLPC  C214 7954   3.491   3.664  11.365
   73SLPC  H14R 7955   3.554   3.755  11.371
   73SLPC  H14S 7956   3.558   3.584  11.325
   73SLPC  C215 7957   3.448   3.622  11.507
   73SLPC  H15R 7958   3.374   3.540  11.500
   73SLPC  H15S 7959   3.399   3.708  11.558
   73SLPC  C216 7960   3.567   3.573  11.592
   73SLPC  H16R 7961   3.644   3.653  11.597
   73SLPC  H16S 7962   3.613   3.486  11.540
   73SLPC  C217 7963   3.530   3.532  11.735
   73SLPC  H17R 7964   3.485   3.620  11.786
   73SLPC  H17S 7965   3.623   3.507  11.791
   73SLPC  C218 7966   3.434   3.413  11.744
   73SLPC  H18R 7967   3.480   3.323  11.698
   73SLPC  H18S 7968   3.339   3.434  11.691
   73SLPC  H18T 7969   3.410   3.390  11.850
   73SLPC   C33 7970   3.653   3.859  11.011
   73SLPC   H3X 7971   3.572   3.896  11.078
   73SLPC   H3Y 7972   3.708   3.949  10.976
   73SLPC   C34 7973   3.746   3.770  11.096
   73SLPC   H4X 7974   3.823   3.724  11.030
   73SLPC   H4Y 7975   3.685   3.689  11.140
   73SLPC   C35 7976   3.816   3.848  11.209
   73SLPC   H5X 7977   3.744   3.921  11.252
   73SLPC   H5Y 7978   3.901   3.906  11.167
   73SLPC   C36 7979   3.867   3.760  11.324
   73SLPC   H6X 7980   3.779   3.705  11.366
   73SLPC   H6Y 7981   3.907   3.825  11.404
   73SLPC   C37 7982   3.975   3.660  11.282
   73SLPC   H7X 7983   4.061   3.716  11.238
   73SLPC   H7Y 7984   3.934   3.594  11.203
   73SLPC   C38 7985   4.025   3.571  11.397
   73SLPC   H8X 7986   4.083   3.631  11.470
   73SLPC   H8Y 7987   4.094   3.494  11.355
   73SLPC   C39 7988   3.910   3.501  11.470
   73SLPC   H9X 7989   3.836   3.466  11.395
   73SLPC   H9Y 7990   3.859   3.574  11.536
   73SLPC  C310 7991   3.952   3.379  11.554
   73SLPC  H10X 7992   4.027   3.410  11.630
   73SLPC  H10Y 7993   3.999   3.305  11.487
   73SLPC  C311 7994   3.830   3.316  11.624
   73SLPC  H11X 7995   3.748   3.308  11.549
   73SLPC  H11Y 7996   3.794   3.386  11.703
   73SLPC  C312 7997   3.855   3.176  11.682
   73SLPC  H12X 7998   3.948   3.134  11.636
   73SLPC  H12Y 7999   3.771   3.109  11.654
   73SLPC  C313 8000   3.868   3.176  11.835
   73SLPC  H13X 8001   3.942   3.254  11.863
   73SLPC  H13Y 8002   3.907   3.078  11.868
   73SLPC  C314 8003   3.734   3.204  11.906
   73SLPC  H14X 8004   3.672   3.112  11.907
   73SLPC  H14Y 8005   3.679   3.280  11.848
   73SLPC  C315 8006   3.751   3.257  12.049
   73SLPC  H15X 8007   3.839   3.325  12.050
   73SLPC  H15Y 8008   3.774   3.174  12.119
   73SLPC  C316 8009   3.629   3.337  12.096
   73SLPC  H16X 8010   3.546   3.267  12.122
   73SLPC  H16Y 8011   3.594   3.401  12.012
   73SLPC  C317 8012   3.659   3.431  12.214
   73SLPC  H17X 8013   3.570   3.496  12.231
   73SLPC  H17Y 8014   3.743   3.497  12.186
   73SLPC  C318 8015   3.693   3.360  12.345
   73SLPC  H18X 8016   3.715   3.434  12.425
   73SLPC  H18Y 8017   3.782   3.295  12.333
   73SLPC  H18Z 8018   3.607   3.297  12.378
   74SLPC     N 8019   2.347   0.786  10.001
   74SLPC   C13 8020   2.477   0.711   9.985
   74SLPC  H13A 8021   2.490   0.674   9.885
   74SLPC  H13B 8022   2.563   0.772  10.010
   74SLPC  H13C 8023   2.479   0.625  10.051
   74SLPC   C14 8024   2.239   0.691   9.959
   74SLPC  H14A 8025   2.253   0.658   9.857
   74SLPC  H14B 8026   2.242   0.606  10.024
   74SLPC  H14C 8027   2.141   0.736   9.967
   74SLPC   C15 8028   2.350   0.904   9.910
   74SLPC  H15A 8029   2.260   0.964   9.919
   74SLPC  H15B 8030   2.437   0.965   9.928
   74SLPC  H15C 8031   2.354   0.872   9.807
   74SLPC   C12 8032   2.327   0.825  10.147
   74SLPC  H12A 8033   2.291   0.926  10.154
   74SLPC  H12B 8034   2.423   0.823  10.196
   74SLPC   C11 8035   2.236   0.732  10.233
   74SLPC  H11A 8036   2.131   0.736  10.196
   74SLPC  H11B 8037   2.233   0.769  10.338
   74SLPC     P 8038   2.413   0.556  10.309
   74SLPC   O13 8039   2.376   0.472  10.424
   74SLPC   O14 8040   2.504   0.501  10.206
   74SLPC   O12 8041   2.281   0.597  10.232
   74SLPC   O11 8042   2.466   0.699  10.359
   74SLPC    C1 8043   2.597   0.748  10.328
   74SLPC    HA 8044   2.631   0.714  10.228
   74SLPC    HB 8045   2.595   0.859  10.326
   74SLPC    C2 8046   2.706   0.705  10.430
   74SLPC    HS 8047   2.803   0.739  10.389
   74SLPC   O21 8048   2.704   0.562  10.438
   74SLPC   C21 8049   2.804   0.506  10.501
   74SLPC   O22 8050   2.906   0.563  10.538
   74SLPC   C22 8051   2.773   0.358  10.521
   74SLPC   H2R 8052   2.734   0.318  10.425
   74SLPC   H2S 8053   2.867   0.304  10.545
   74SLPC    C3 8054   2.689   0.774  10.570
   74SLPC    HX 8055   2.682   0.883  10.549
   74SLPC    HY 8056   2.780   0.756  10.631
   74SLPC   O31 8057   2.573   0.725  10.640
   74SLPC   C31 8058   2.524   0.805  10.732
   74SLPC   O32 8059   2.569   0.914  10.763
   74SLPC   C32 8060   2.400   0.743  10.799
   74SLPC   H2X 8061   2.332   0.827  10.825
   74SLPC   H2Y 8062   2.435   0.696  10.893
   74SLPC   C23 8063   2.668   0.337  10.632
   74SLPC   H3R 8064   2.648   0.229  10.643
   74SLPC   H3S 8065   2.573   0.385  10.601
   74SLPC   C24 8066   2.711   0.394  10.769
   74SLPC   H4R 8067   2.728   0.503  10.758
   74SLPC   H4S 8068   2.805   0.347  10.802
   74SLPC   C25 8069   2.601   0.373  10.874
   74SLPC   H5R 8070   2.595   0.265  10.900
   74SLPC   H5S 8071   2.505   0.401  10.827
   74SLPC   C26 8072   2.619   0.457  11.001
   74SLPC   H6R 8073   2.655   0.557  10.971
   74SLPC   H6S 8074   2.696   0.411  11.067
   74SLPC   C27 8075   2.486   0.476  11.077
   74SLPC   H7R 8076   2.410   0.509  11.003
   74SLPC   H7S 8077   2.496   0.559  11.150
   74SLPC   C28 8078   2.431   0.349  11.146
   74SLPC   H8R 8079   2.448   0.263  11.078
   74SLPC   H8S 8080   2.321   0.362  11.154
   74SLPC   C29 8081   2.491   0.320  11.280
   74SLPC   H9R 8082   2.597   0.348  11.292
   74SLPC  C210 8083   2.425   0.264  11.383
   74SLPC  H10R 8084   2.477   0.251  11.479
   74SLPC  C211 8085   2.280   0.221  11.380
   74SLPC  H11R 8086   2.263   0.155  11.292
   74SLPC  H11S 8087   2.215   0.309  11.363
   74SLPC  C212 8088   2.233   0.149  11.505
   74SLPC  H12R 8089   2.210   0.042  11.490
   74SLPC  C213 8090   2.217   0.203  11.627
   74SLPC  H13R 8091   2.181   0.139  11.709
   74SLPC  C214 8092   2.244   0.346  11.664
   74SLPC  H14R 8093   2.257   0.410  11.574
   74SLPC  H14S 8094   2.338   0.353  11.722
   74SLPC  C215 8095   2.130   0.408  11.748
   74SLPC  H15R 8096   2.130   0.363  11.849
   74SLPC  H15S 8097   2.032   0.385  11.701
   74SLPC  C216 8098   2.139   0.561  11.761
   74SLPC  H16R 8099   2.058   0.595  11.830
   74SLPC  H16S 8100   2.120   0.607  11.661
   74SLPC  C217 8101   2.273   0.615  11.814
   74SLPC  H17R 8102   2.265   0.725  11.824
   74SLPC  H17S 8103   2.352   0.596  11.738
   74SLPC  C218 8104   2.317   0.555  11.947
   74SLPC  H18R 8105   2.407   0.608  11.986
   74SLPC  H18S 8106   2.342   0.448  11.935
   74SLPC  H18T 8107   2.235   0.564  12.022
   74SLPC   C33 8108   2.326   0.639  10.712
   74SLPC   H3X 8109   2.396   0.559  10.681
   74SLPC   H3Y 8110   2.292   0.687  10.617
   74SLPC   C34 8111   2.206   0.572  10.781
   74SLPC   H4X 8112   2.241   0.509  10.865
   74SLPC   H4Y 8113   2.161   0.503  10.706
   74SLPC   C35 8114   2.096   0.669  10.828
   74SLPC   H5X 8115   1.997   0.625  10.802
   74SLPC   H5Y 8116   2.105   0.764  10.771
   74SLPC   C36 8117   2.095   0.699  10.980
   74SLPC   H6X 8118   2.018   0.776  10.998
   74SLPC   H6Y 8119   2.193   0.740  11.011
   74SLPC   C37 8120   2.061   0.576  11.066
   74SLPC   H7X 8121   2.151   0.511  11.076
   74SLPC   H7Y 8122   1.984   0.516  11.012
   74SLPC   C38 8123   2.003   0.610  11.204
   74SLPC   H8X 8124   1.976   0.516  11.256
   74SLPC   H8Y 8125   1.910   0.668  11.188
   74SLPC   C39 8126   2.096   0.691  11.296
   74SLPC   H9X 8127   2.039   0.722  11.387
   74SLPC   H9Y 8128   2.128   0.784  11.243
   74SLPC  C310 8129   2.220   0.613  11.342
   74SLPC  H10X 8130   2.275   0.577  11.252
   74SLPC  H10Y 8131   2.188   0.524  11.400
   74SLPC  C311 8132   2.317   0.697  11.427
   74SLPC  H11X 8133   2.271   0.724  11.524
   74SLPC  H11Y 8134   2.338   0.791  11.372
   74SLPC  C312 8135   2.451   0.626  11.450
   74SLPC  H12X 8136   2.481   0.579  11.354
   74SLPC  H12Y 8137   2.439   0.545  11.524
   74SLPC  C313 8138   2.566   0.721  11.489
   74SLPC  H13X 8139   2.548   0.759  11.592
   74SLPC  H13Y 8140   2.566   0.807  11.420
   74SLPC  C314 8141   2.704   0.654  11.479
   74SLPC  H14X 8142   2.781   0.728  11.511
   74SLPC  H14Y 8143   2.725   0.629  11.373
   74SLPC  C315 8144   2.720   0.527  11.563
   74SLPC  H15X 8145   2.826   0.494  11.557
   74SLPC  H15Y 8146   2.658   0.445  11.521
   74SLPC  C316 8147   2.681   0.549  11.710
   74SLPC  H16X 8148   2.570   0.547  11.717
   74SLPC  H16Y 8149   2.715   0.649  11.744
   74SLPC  C317 8150   2.738   0.443  11.805
   74SLPC  H17X 8151   2.841   0.471  11.833
   74SLPC  H17Y 8152   2.745   0.345  11.751
   74SLPC  C318 8153   2.652   0.425  11.929
   74SLPC  H18X 8154   2.635   0.524  11.979
   74SLPC  H18Y 8155   2.700   0.357  12.002
   74SLPC  H18Z 8156   2.552   0.384  11.902
   75SLPC     N 8157   4.972   1.446  10.216
   75SLPC   C13 8158   5.011   1.461  10.360
   75SLPC  H13A 8159   5.118   1.454  10.369
   75SLPC  H13B 8160   4.989   1.561  10.394
   75SLPC  H13C 8161   4.963   1.390  10.426
   75SLPC   C14 8162   4.823   1.460  10.205
   75SLPC  H14A 8163   4.772   1.390  10.269
   75SLPC  H14B 8164   4.791   1.560  10.230
   75SLPC  H14C 8165   4.789   1.441  10.104
   75SLPC   C15 8166   5.011   1.311  10.167
   75SLPC  H15A 8167   4.981   1.297  10.064
   75SLPC  H15B 8168   5.119   1.299  10.173
   75SLPC  H15C 8169   4.964   1.233  10.225
   75SLPC   C12 8170   5.041   1.555  10.135
   75SLPC  H12A 8171   5.014   1.650  10.178
   75SLPC  H12B 8172   5.003   1.553  10.033
   75SLPC   C11 8173   0.005   1.554  10.128
   75SLPC  H11A 8174   0.039   1.630  10.055
   75SLPC  H11B 8175   0.040   1.456  10.090
   75SLPC     P 8176   0.054   1.724  10.319
   75SLPC   O13 8177   0.124   1.818  10.230
   75SLPC   O14 8178   5.102   1.749  10.347
   75SLPC   O12 8179   0.064   1.578  10.256
   75SLPC   O11 8180   0.133   1.707  10.455
   75SLPC    C1 8181   0.158   1.576  10.508
   75SLPC    HA 8182   0.072   1.508  10.492
   75SLPC    HB 8183   0.247   1.531  10.459
   75SLPC    C2 8184   0.182   1.579  10.662
   75SLPC    HS 8185   0.183   1.474  10.698
   75SLPC   O21 8186   0.082   1.655  10.729
   75SLPC   C21 8187   5.161   1.591  10.754
   75SLPC   O22 8188   5.120   1.491  10.697
   75SLPC   C22 8189   5.097   1.656  10.877
   75SLPC   H2R 8190   5.173   1.724  10.922
   75SLPC   H2S 8191   5.011   1.717  10.844
   75SLPC    C3 8192   0.321   1.640  10.699
   75SLPC    HX 8193   0.330   1.734  10.639
   75SLPC    HY 8194   0.400   1.571  10.662
   75SLPC   O31 8195   0.347   1.675  10.838
   75SLPC   C31 8196   0.293   1.609  10.940
   75SLPC   O32 8197   0.217   1.515  10.934
   75SLPC   C32 8198   0.350   1.667  11.070
   75SLPC   H2X 8199   0.369   1.776  11.054
   75SLPC   H2Y 8200   0.448   1.617  11.089
   75SLPC   C23 8201   5.057   1.552  10.984
   75SLPC   H3R 8202   5.143   1.485  11.003
   75SLPC   H3S 8203   4.973   1.490  10.947
   75SLPC   C24 8204   5.018   1.618  11.117
   75SLPC   H4R 8205   4.929   1.684  11.103
   75SLPC   H4S 8206   5.103   1.681  11.150
   75SLPC   C25 8207   4.990   1.514  11.226
   75SLPC   H5R 8208   5.067   1.435  11.218
   75SLPC   H5S 8209   4.891   1.467  11.210
   75SLPC   C26 8210   4.999   1.573  11.368
   75SLPC   H6R 8211   5.093   1.631  11.377
   75SLPC   H6S 8212   5.003   1.489  11.441
   75SLPC   C27 8213   4.880   1.663  11.406
   75SLPC   H7R 8214   4.788   1.601  11.402
   75SLPC   H7S 8215   4.869   1.745  11.332
   75SLPC   C28 8216   4.895   1.721  11.548
   75SLPC   H8R 8217   4.915   1.637  11.618
   75SLPC   H8S 8218   4.797   1.764  11.580
   75SLPC   C29 8219   5.000   1.829  11.556
   75SLPC   H9R 8220   4.972   1.922  11.504
   75SLPC  C210 8221   5.120   1.823  11.616
   75SLPC  H10R 8222   5.185   1.912  11.613
   75SLPC  C211 8223   5.179   1.705  11.689
   75SLPC  H11R 8224   0.079   1.670  11.635
   75SLPC  H11S 8225   5.110   1.618  11.686
   75SLPC  C212 8226   0.025   1.736  11.831
   75SLPC  H12R 8227   0.126   1.779  11.845
   75SLPC  C213 8228   5.140   1.716  11.940
   75SLPC  H13R 8229   5.182   1.741  12.039
   75SLPC  C214 8230   5.001   1.659  11.944
   75SLPC  H14R 8231   4.990   1.601  12.038
   75SLPC  H14S 8232   4.983   1.587  11.862
   75SLPC  C215 8233   4.890   1.767  11.938
   75SLPC  H15R 8234   4.879   1.798  11.832
   75SLPC  H15S 8235   4.920   1.857  11.995
   75SLPC  C216 8236   4.754   1.719  11.992
   75SLPC  H16R 8237   4.726   1.624  11.942
   75SLPC  H16S 8238   4.677   1.795  11.965
   75SLPC  C217 8239   4.752   1.702  12.144
   75SLPC  H17R 8240   4.772   1.801  12.191
   75SLPC  H17S 8241   4.834   1.634  12.176
   75SLPC  C218 8242   4.620   1.648  12.199
   75SLPC  H18R 8243   4.625   1.637  12.310
   75SLPC  H18S 8244   4.597   1.549  12.155
   75SLPC  H18T 8245   4.537   1.718  12.175
   75SLPC   C33 8246   0.259   1.651  11.195
   75SLPC   H3X 8247   0.160   1.697  11.177
   75SLPC   H3Y 8248   0.307   1.707  11.278
   75SLPC   C34 8249   0.240   1.506  11.242
   75SLPC   H4X 8250   0.336   1.451  11.238
   75SLPC   H4Y 8251   0.169   1.455  11.173
   75SLPC   C35 8252   0.184   1.496  11.385
   75SLPC   H5X 8253   0.107   1.576  11.398
   75SLPC   H5Y 8254   0.265   1.516  11.458
   75SLPC   C36 8255   0.117   1.361  11.414
   75SLPC   H6X 8256   0.190   1.279  11.402
   75SLPC   H6Y 8257   0.037   1.345  11.339
   75SLPC   C37 8258   0.052   1.353  11.554
   75SLPC   H7X 8259   5.172   1.268  11.555
   75SLPC   H7Y 8260   5.185   1.446  11.572
   75SLPC   C38 8261   0.152   1.332  11.668
   75SLPC   H8X 8262   0.228   1.413  11.668
   75SLPC   H8Y 8263   0.206   1.236  11.651
   75SLPC   C39 8264   0.085   1.327  11.806
   75SLPC   H9X 8265   5.187   1.260  11.801
   75SLPC   H9Y 8266   0.048   1.429  11.833
   75SLPC  C310 8267   0.179   1.275  11.915
   75SLPC  H10X 8268   0.268   1.342  11.922
   75SLPC  H10Y 8269   0.215   1.174  11.886
   75SLPC  C311 8270   0.115   1.265  12.055
   75SLPC  H11X 8271   0.190   1.219  12.123
   75SLPC  H11Y 8272   0.027   1.196  12.052
   75SLPC  C312 8273   0.073   1.400  12.113
   75SLPC  H12X 8274   5.166   1.431  12.071
   75SLPC  H12Y 8275   0.148   1.476  12.081
   75SLPC  C313 8276   0.067   1.399  12.266
   75SLPC  H13X 8277   0.163   1.360  12.305
   75SLPC  H13Y 8278   5.179   1.328  12.299
   75SLPC  C314 8279   0.040   1.538  12.329
   75SLPC  H14X 8280   5.136   1.531  12.386
   75SLPC  H14Y 8281   0.025   1.614  12.249
   75SLPC  C315 8282   0.150   1.584  12.425
   75SLPC  H15X 8283   0.200   1.495  12.469
   75SLPC  H15Y 8284   0.104   1.638  12.511
   75SLPC  C316 8285   0.257   1.677  12.364
   75SLPC  H16X 8286   0.337   1.690  12.440
   75SLPC  H16Y 8287   0.214   1.777  12.343
   75SLPC  C317 8288   0.319   1.622  12.235
   75SLPC  H17X 8289   0.257   1.656  12.148
   75SLPC  H17Y 8290   0.313   1.512  12.238
   75SLPC  C318 8291   0.465   1.662  12.215
   75SLPC  H18X 8292   0.504   1.618  12.120
   75SLPC  H18Y 8293   0.527   1.625  12.299
   75SLPC  H18Z 8294   0.475   1.772  12.210
   76SLPC     N 8295   5.136   0.351   9.953
   76SLPC   C13 8296   5.034   0.315  10.056
   76SLPC  H13A 8297   5.081   0.295  10.151
   76SLPC  H13B 8298   4.960   0.392  10.071
   76SLPC  H13C 8299   4.980   0.225  10.030
   76SLPC   C14 8300   0.024   0.468  10.000
   76SLPC  H14A 8301   5.152   0.553  10.023
   76SLPC  H14B 8302   0.082   0.440  10.087
   76SLPC  H14C 8303   0.096   0.498   9.925
   76SLPC   C15 8304   5.066   0.388   9.825
   76SLPC  H15A 8305   4.996   0.468   9.844
   76SLPC  H15B 8306   5.137   0.424   9.752
   76SLPC  H15C 8307   5.014   0.303   9.783
   76SLPC   C12 8308   0.035   0.230   9.930
   76SLPC  H12A 8309   0.093   0.247   9.841
   76SLPC  H12B 8310   5.164   0.144   9.910
   76SLPC   C11 8311   0.132   0.195  10.045
   76SLPC  H11A 8312   0.164   0.090  10.029
   76SLPC  H11B 8313   0.079   0.199  10.142
   76SLPC     P 8314   0.355   0.265  10.158
   76SLPC   O13 8315   0.366   0.120  10.182
   76SLPC   O14 8316   0.477   0.333  10.109
   76SLPC   O12 8317   0.246   0.283  10.043
   76SLPC   O11 8318   0.292   0.343  10.281
   76SLPC    C1 8319   0.364   0.456  10.333
   76SLPC    HA 8320   0.472   0.434  10.348
   76SLPC    HB 8321   0.356   0.541  10.262
   76SLPC    C2 8322   0.309   0.504  10.471
   76SLPC    HS 8323   0.345   0.608  10.484
   76SLPC   O21 8324   0.358   0.416  10.574
   76SLPC   C21 8325   0.375   0.473  10.692
   76SLPC   O22 8326   0.384   0.593  10.712
   76SLPC   C22 8327   0.368   0.370  10.806
   76SLPC   H2R 8328   0.457   0.385  10.870
   76SLPC   H2S 8329   0.279   0.401  10.865
   76SLPC    C3 8330   0.153   0.506  10.471
   76SLPC    HX 8331   0.117   0.401  10.460
   76SLPC    HY 8332   0.121   0.560  10.379
   76SLPC   O31 8333   0.094   0.575  10.585
   76SLPC   C31 8334   0.060   0.496  10.688
   76SLPC   O32 8335   0.078   0.376  10.694
   76SLPC   C32 8336   5.183   0.580  10.796
   76SLPC   H2X 8337   5.096   0.629  10.747
   76SLPC   H2Y 8338   0.062   0.659  10.829
   76SLPC   C23 8339   0.347   0.222  10.765
   76SLPC   H3R 8340   0.444   0.174  10.742
   76SLPC   H3S 8341   0.285   0.216  10.672
   76SLPC   C24 8342   0.271   0.139  10.870
   76SLPC   H4R 8343   0.261   0.035  10.832
   76SLPC   H4S 8344   0.169   0.181  10.880
   76SLPC   C25 8345   0.338   0.136  11.009
   76SLPC   H5R 8346   0.333   0.237  11.054
   76SLPC   H5S 8347   0.445   0.108  10.997
   76SLPC   C26 8348   0.273   0.035  11.106
   76SLPC   H6R 8349   0.323   0.046  11.205
   76SLPC   H6S 8350   0.292   5.123  11.069
   76SLPC   C27 8351   0.122   0.054  11.123
   76SLPC   H7R 8352   0.072   0.030  11.026
   76SLPC   H7S 8353   0.101   0.161  11.144
   76SLPC   C28 8354   0.059   5.156  11.232
   76SLPC   H8R 8355   0.086   5.050  11.211
   76SLPC   H8S 8356   5.140   5.162  11.221
   76SLPC   C29 8357   0.098   5.191  11.373
   76SLPC   H9R 8358   0.165   5.119  11.422
   76SLPC  C210 8359   0.059   0.110  11.440
   76SLPC  H10R 8360   0.095   0.125  11.543
   76SLPC  C211 8361   5.161   0.219  11.387
   76SLPC  H11R 8362   5.121   0.193  11.287
   76SLPC  H11S 8363   0.032   0.309  11.372
   76SLPC  C212 8364   5.043   0.247  11.478
   76SLPC  H12R 8365   4.996   0.158  11.522
   76SLPC  C213 8366   4.993   0.369  11.507
   76SLPC  H13R 8367   4.908   0.375  11.576
   76SLPC  C214 8368   5.043   0.502  11.456
   76SLPC  H14R 8369   4.959   0.557  11.409
   76SLPC  H14S 8370   5.121   0.491  11.378
   76SLPC  C215 8371   5.100   0.588  11.571
   76SLPC  H15R 8372   5.020   0.605  11.646
   76SLPC  H15S 8373   5.127   0.687  11.528
   76SLPC  C216 8374   0.034   0.529  11.638
   76SLPC  H16R 8375   0.116   0.526  11.564
   76SLPC  H16S 8376   0.013   0.425  11.671
   76SLPC  C217 8377   0.080   0.609  11.761
   76SLPC  H17R 8378   0.088   0.717  11.734
   76SLPC  H17S 8379   0.181   0.575  11.789
   76SLPC  C218 8380   5.179   0.596  11.883
   76SLPC  H18R 8381   0.030   0.650  11.970
   76SLPC  H18S 8382   5.167   0.489  11.911
   76SLPC  H18T 8383   5.079   0.637  11.861
   76SLPC   C33 8384   5.129   0.497  10.917
   76SLPC   H3X 8385   5.098   0.396  10.883
   76SLPC   H3Y 8386   5.039   0.548  10.956
   76SLPC   C34 8387   0.035   0.481  11.035
   76SLPC   H4X 8388   0.129   0.433  10.999
   76SLPC   H4Y 8389   5.181   0.411  11.109
   76SLPC   C35 8390   0.067   0.613  11.106
   76SLPC   H5X 8391   5.164   0.654  11.148
   76SLPC   H5Y 8392   0.106   0.686  11.033
   76SLPC   C36 8393   0.170   0.599  11.219
   76SLPC   H6X 8394   0.140   0.515  11.286
   76SLPC   H6Y 8395   0.167   0.692  11.280
   76SLPC   C37 8396   0.313   0.579  11.168
   76SLPC   H7X 8397   0.335   0.657  11.093
   76SLPC   H7Y 8398   0.322   0.480  11.118
   76SLPC   C38 8399   0.418   0.589  11.280
   76SLPC   H8X 8400   0.404   0.685  11.334
   76SLPC   H8Y 8401   0.520   0.591  11.235
   76SLPC   C39 8402   0.411   0.473  11.381
   76SLPC   H9X 8403   0.439   0.378  11.329
   76SLPC   H9Y 8404   0.307   0.462  11.417
   76SLPC  C310 8405   0.501   0.494  11.503
   76SLPC  H10X 8406   0.470   0.588  11.554
   76SLPC  H10Y 8407   0.607   0.507  11.470
   76SLPC  C311 8408   0.492   0.378  11.602
   76SLPC  H11X 8409   0.535   0.287  11.555
   76SLPC  H11Y 8410   0.385   0.357  11.623
   76SLPC  C312 8411   0.565   0.407  11.734
   76SLPC  H12X 8412   0.514   0.492  11.785
   76SLPC  H12Y 8413   0.668   0.439  11.711
   76SLPC  C313 8414   0.571   0.286  11.829
   76SLPC  H13X 8415   0.621   0.317  11.922
   76SLPC  H13Y 8416   0.634   0.207  11.781
   76SLPC  C314 8417   0.435   0.222  11.863
   76SLPC  H14X 8418   0.451   0.139  11.935
   76SLPC  H14Y 8419   0.392   0.178  11.771
   76SLPC  C315 8420   0.334   0.321  11.923
   76SLPC  H15X 8421   0.315   0.403  11.850
   76SLPC  H15Y 8422   0.378   0.368  12.014
   76SLPC  C316 8423   0.199   0.258  11.960
   76SLPC  H16X 8424   0.134   0.338  12.000
   76SLPC  H16Y 8425   0.214   0.183  12.041
   76SLPC  C317 8426   0.129   0.192  11.841
   76SLPC  H17X 8427   0.181   0.098  11.814
   76SLPC  H17Y 8428   0.137   0.260  11.753
   76SLPC  C318 8429   5.172   0.162  11.865
   76SLPC  H18X 8430   5.118   0.256  11.889
   76SLPC  H18Y 8431   5.159   0.092  11.951
   76SLPC  H18Z 8432   5.126   0.116  11.776
   77SAPC     N 8433   3.396   1.475  13.901
   77SAPC   C12 8434   3.450   1.343  13.955
   77SAPC  H12A 8435   3.434   1.266  13.882
   77SAPC  H12B 8436   3.390   1.315  14.041
   77SAPC   C13 8437   3.480   1.523  13.788
   77SAPC  H13A 8438   3.582   1.536  13.822
   77SAPC  H13B 8439   3.478   1.450  13.708
   77SAPC  H13C 8440   3.443   1.618  13.752
   77SAPC   C14 8441   3.256   1.453  13.852
   77SAPC  H14A 8442   3.193   1.413  13.930
   77SAPC  H14B 8443   3.210   1.544  13.817
   77SAPC  H14C 8444   3.254   1.381  13.772
   77SAPC   C15 8445   3.395   1.578  14.010
   77SAPC  H15A 8446   3.368   1.676  13.975
   77SAPC  H15B 8447   3.329   1.548  14.090
   77SAPC  H15C 8448   3.494   1.583  14.053
   77SAPC   C11 8449   3.598   1.340  14.001
   77SAPC  H11A 8450   3.664   1.366  13.916
   77SAPC  H11B 8451   3.620   1.235  14.030
   77SAPC     P 8452   3.757   1.426  14.187
   77SAPC   O13 8453   3.740   1.510  14.308
   77SAPC   O14 8454   3.794   1.285  14.210
   77SAPC   O12 8455   3.619   1.429  14.110
   77SAPC   O11 8456   3.855   1.497  14.085
   77SAPC    C1 8457   3.955   1.586  14.138
   77SAPC    HA 8458   3.908   1.662  14.204
   77SAPC    HB 8459   4.030   1.530  14.198
   77SAPC    C2 8460   4.033   1.668  14.028
   77SAPC    HS 8461   4.076   1.759  14.076
   77SAPC   O21 8462   3.951   1.706  13.917
   77SAPC   C21 8463   3.846   1.782  13.941
   77SAPC   O22 8464   3.812   1.825  14.049
   77SAPC   C22 8465   3.772   1.807  13.808
   77SAPC   H2R 8466   3.663   1.794  13.828
   77SAPC   H2S 8467   3.790   1.913  13.779
   77SAPC    C3 8468   4.153   1.586  13.971
   77SAPC    HX 8469   4.223   1.564  14.054
   77SAPC    HY 8470   4.208   1.647  13.897
   77SAPC   O31 8471   4.107   1.460  13.917
   77SAPC   C31 8472   4.076   1.461  13.789
   77SAPC   O32 8473   4.111   1.543  13.706
   77SAPC   C32 8474   3.976   1.347  13.765
   77SAPC   H2X 8475   3.898   1.359  13.844
   77SAPC   H2Y 8476   4.030   1.251  13.783
   77SAPC   C23 8477   3.818   1.712  13.694
   77SAPC   H3R 8478   3.815   1.609  13.734
   77SAPC   H3S 8479   3.924   1.733  13.668
   77SAPC   C24 8480   3.733   1.711  13.565
   77SAPC   H4R 8481   3.626   1.701  13.593
   77SAPC   H4S 8482   3.761   1.618  13.512
   77SAPC   C25 8483   3.752   1.826  13.470
   77SAPC   H5R 8484   3.679   1.908  13.482
   77SAPC   C26 8485   3.849   1.838  13.377
   77SAPC   H6R 8486   3.850   1.929  13.315
   77SAPC   C27 8487   3.962   1.743  13.347
   77SAPC   H7R 8488   4.013   1.719  13.443
   77SAPC   H7S 8489   4.040   1.798  13.290
   77SAPC   C28 8490   3.935   1.612  13.277
   77SAPC   H8R 8491   3.929   1.526  13.345
   77SAPC   C29 8492   3.924   1.590  13.144
   77SAPC   H9R 8493   3.907   1.486  13.111
   77SAPC  C210 8494   3.935   1.691  13.032
   77SAPC  H10R 8495   4.040   1.696  12.997
   77SAPC  H10S 8496   3.910   1.793  13.070
   77SAPC  C211 8497   3.842   1.656  12.918
   77SAPC  H11R 8498   3.751   1.603  12.949
   77SAPC  C212 8499   3.857   1.681  12.787
   77SAPC  H12R 8500   3.779   1.647  12.718
   77SAPC  C213 8501   3.972   1.751  12.718
   77SAPC  H13R 8502   4.018   1.682  12.644
   77SAPC  H13S 8503   4.052   1.778  12.789
   77SAPC  C214 8504   3.921   1.877  12.651
   77SAPC  H14R 8505   3.871   1.946  12.720
   77SAPC  C215 8506   3.931   1.913  12.521
   77SAPC  H15R 8507   3.890   2.010  12.491
   77SAPC  C216 8508   3.997   1.836  12.410
   77SAPC  H16R 8509   3.924   1.822  12.327
   77SAPC  H16S 8510   4.026   1.733  12.442
   77SAPC  C217 8511   4.123   1.904  12.352
   77SAPC  H17R 8512   4.207   1.831  12.358
   77SAPC  H17S 8513   4.154   1.991  12.413
   77SAPC  C218 8514   4.106   1.946  12.206
   77SAPC  H18R 8515   4.026   2.024  12.198
   77SAPC  H18S 8516   4.073   1.858  12.146
   77SAPC  C219 8517   4.236   2.000  12.145
   77SAPC  H19R 8518   4.317   1.926  12.163
   77SAPC  H19S 8519   4.264   2.094  12.197
   77SAPC  C220 8520   4.227   2.027  11.995
   77SAPC  H20R 8521   4.325   2.062  11.956
   77SAPC  H20S 8522   4.150   2.104  11.973
   77SAPC  H20T 8523   4.200   1.934  11.940
   77SAPC   C33 8524   3.909   1.350  13.626
   77SAPC   H3X 8525   3.980   1.307  13.551
   77SAPC   H3Y 8526   3.888   1.454  13.595
   77SAPC   C34 8527   3.777   1.272  13.628
   77SAPC   H4X 8528   3.706   1.324  13.696
   77SAPC   H4Y 8529   3.799   1.172  13.673
   77SAPC   C35 8530   3.710   1.251  13.492
   77SAPC   H5X 8531   3.620   1.187  13.507
   77SAPC   H5Y 8532   3.779   1.198  13.423
   77SAPC   C36 8533   3.660   1.380  13.425
   77SAPC   H6X 8534   3.747   1.432  13.380
   77SAPC   H6Y 8535   3.615   1.446  13.502
   77SAPC   C37 8536   3.554   1.355  13.316
   77SAPC   H7X 8537   3.543   1.449  13.258
   77SAPC   H7Y 8538   3.457   1.333  13.364
   77SAPC   C38 8539   3.588   1.239  13.220
   77SAPC   H8X 8540   3.580   1.144  13.277
   77SAPC   H8Y 8541   3.692   1.249  13.183
   77SAPC   C39 8542   3.492   1.233  13.101
   77SAPC   H9X 8543   3.391   1.262  13.137
   77SAPC   H9Y 8544   3.484   1.129  13.063
   77SAPC  C310 8545   3.533   1.325  12.986
   77SAPC  H10X 8546   3.587   1.413  13.026
   77SAPC  H10Y 8547   3.442   1.362  12.934
   77SAPC  C311 8548   3.621   1.254  12.881
   77SAPC  H11X 8549   3.565   1.167  12.840
   77SAPC  H11Y 8550   3.714   1.216  12.928
   77SAPC  C312 8551   3.656   1.348  12.765
   77SAPC  H12X 8552   3.717   1.431  12.805
   77SAPC  H12Y 8553   3.562   1.390  12.724
   77SAPC  C313 8554   3.735   1.281  12.651
   77SAPC  H13X 8555   3.669   1.207  12.601
   77SAPC  H13Y 8556   3.822   1.226  12.693
   77SAPC  C314 8557   3.786   1.382  12.546
   77SAPC  H14X 8558   3.829   1.325  12.460
   77SAPC  H14Y 8559   3.868   1.442  12.591
   77SAPC  C315 8560   3.676   1.477  12.495
   77SAPC  H15X 8561   3.640   1.539  12.581
   77SAPC  H15Y 8562   3.590   1.417  12.458
   77SAPC  C316 8563   3.722   1.575  12.385
   77SAPC  H16X 8564   3.818   1.622  12.415
   77SAPC  H16Y 8565   3.646   1.656  12.378
   77SAPC  C317 8566   3.736   1.510  12.247
   77SAPC  H17X 8567   3.643   1.454  12.224
   77SAPC  H17Y 8568   3.819   1.436  12.249
   77SAPC  C318 8569   3.762   1.612  12.136
   77SAPC  H18X 8570   3.775   1.561  12.038
   77SAPC  H18Y 8571   3.854   1.671  12.157
   77SAPC  H18Z 8572   3.676   1.682  12.127
   78SAPC     N 8573   4.063   2.108  14.335
   78SAPC   C12 8574   4.147   2.208  14.255
   78SAPC  H12A 8575   4.195   2.158  14.172
   78SAPC  H12B 8576   4.224   2.250  14.318
   78SAPC   C13 8577   3.980   2.180  14.436
   78SAPC  H13A 8578   3.914   2.249  14.387
   78SAPC  H13B 8579   3.921   2.111  14.494
   78SAPC  H13C 8580   4.042   2.236  14.505
   78SAPC   C14 8581   3.969   2.033  14.245
   78SAPC  H14A 8582   3.904   1.965  14.299
   78SAPC  H14B 8583   3.905   2.103  14.194
   78SAPC  H14C 8584   4.020   1.980  14.166
   78SAPC   C15 8585   4.152   2.010  14.404
   78SAPC  H15A 8586   4.092   1.937  14.457
   78SAPC  H15B 8587   4.214   1.957  14.333
   78SAPC  H15C 8588   4.215   2.059  14.476
   78SAPC   C11 8589   4.073   2.329  14.190
   78SAPC  H11A 8590   4.148   2.393  14.139
   78SAPC  H11B 8591   4.027   2.391  14.269
   78SAPC     P 8592   4.018   2.218  13.961
   78SAPC   O13 8593   4.164   2.191  13.967
   78SAPC   O14 8594   3.927   2.103  13.942
   78SAPC   O12 8595   3.972   2.286  14.098
   78SAPC   O11 8596   3.983   2.334  13.861
   78SAPC    C1 8597   3.863   2.409  13.885
   78SAPC    HA 8598   3.781   2.347  13.928
   78SAPC    HB 8599   3.885   2.492  13.956
   78SAPC    C2 8600   3.807   2.470  13.754
   78SAPC    HS 8601   3.721   2.533  13.783
   78SAPC   O21 8602   3.770   2.363  13.666
   78SAPC   C21 8603   3.645   2.334  13.648
   78SAPC   O22 8604   3.549   2.385  13.705
   78SAPC   C22 8605   3.641   2.229  13.537
   78SAPC   H2R 8606   3.697   2.274  13.453
   78SAPC   H2S 8607   3.698   2.141  13.573
   78SAPC    C3 8608   3.913   2.561  13.684
   78SAPC    HX 8609   3.966   2.617  13.764
   78SAPC    HY 8610   3.862   2.637  13.621
   78SAPC   O31 8611   4.009   2.487  13.608
   78SAPC   C31 8612   3.968   2.445  13.488
   78SAPC   O32 8613   3.872   2.488  13.428
   78SAPC   C32 8614   4.060   2.334  13.439
   78SAPC   H2X 8615   4.151   2.334  13.502
   78SAPC   H2Y 8616   4.090   2.356  13.334
   78SAPC   C23 8617   3.502   2.185  13.488
   78SAPC   H3R 8618   3.422   2.249  13.530
   78SAPC   H3S 8619   3.482   2.082  13.524
   78SAPC   C24 8620   3.491   2.191  13.334
   78SAPC   H4R 8621   3.489   2.299  13.306
   78SAPC   H4S 8622   3.392   2.149  13.305
   78SAPC   C25 8623   3.600   2.117  13.260
   78SAPC   H5R 8624   3.610   2.011  13.288
   78SAPC   C26 8625   3.684   2.167  13.167
   78SAPC   H6R 8626   3.758   2.099  13.122
   78SAPC   C27 8627   3.687   2.308  13.113
   78SAPC   H7R 8628   3.630   2.378  13.178
   78SAPC   H7S 8629   3.635   2.308  13.015
   78SAPC   C28 8630   3.827   2.362  13.100
   78SAPC   H8R 8631   3.885   2.363  13.193
   78SAPC   C29 8632   3.883   2.411  12.987
   78SAPC   H9R 8633   3.987   2.446  12.992
   78SAPC  C210 8634   3.814   2.422  12.853
   78SAPC  H10R 8635   3.711   2.461  12.868
   78SAPC  H10S 8636   3.803   2.320  12.811
   78SAPC  C211 8637   3.884   2.510  12.752
   78SAPC  H11R 8638   3.975   2.562  12.787
   78SAPC  C212 8639   3.844   2.528  12.625
   78SAPC  H12R 8640   3.903   2.593  12.559
   78SAPC  C213 8641   3.722   2.464  12.564
   78SAPC  H13R 8642   3.649   2.442  12.645
   78SAPC  H13S 8643   3.753   2.367  12.521
   78SAPC  C214 8644   3.651   2.548  12.461
   78SAPC  H14R 8645   3.640   2.654  12.489
   78SAPC  C215 8646   3.597   2.507  12.345
   78SAPC  H15R 8647   3.550   2.581  12.280
   78SAPC  C216 8648   3.594   2.366  12.291
   78SAPC  H16R 8649   3.491   2.340  12.258
   78SAPC  H16S 8650   3.622   2.291  12.368
   78SAPC  C217 8651   3.691   2.348  12.171
   78SAPC  H17R 8652   3.683   2.243  12.136
   78SAPC  H17S 8653   3.795   2.362  12.208
   78SAPC  C218 8654   3.667   2.443  12.052
   78SAPC  H18R 8655   3.738   2.415  11.971
   78SAPC  H18S 8656   3.692   2.546  12.083
   78SAPC  C219 8657   3.525   2.441  11.994
   78SAPC  H19R 8658   3.521   2.513  11.909
   78SAPC  H19S 8659   3.454   2.478  12.071
   78SAPC  C220 8660   3.478   2.304  11.945
   78SAPC  H20R 8661   3.548   2.265  11.868
   78SAPC  H20S 8662   3.376   2.310  11.902
   78SAPC  H20T 8663   3.476   2.231  12.030
   78SAPC   C33 8664   3.995   2.194  13.449
   78SAPC   H3X 8665   3.935   2.173  13.358
   78SAPC   H3Y 8666   3.926   2.191  13.537
   78SAPC   C34 8667   4.099   2.083  13.474
   78SAPC   H4X 8668   4.047   1.985  13.475
   78SAPC   H4Y 8669   4.141   2.096  13.576
   78SAPC   C35 8670   4.214   2.078  13.372
   78SAPC   H5X 8671   4.276   1.988  13.397
   78SAPC   H5Y 8672   4.279   2.167  13.384
   78SAPC   C36 8673   4.169   2.068  13.226
   78SAPC   H6X 8674   4.127   2.166  13.194
   78SAPC   H6Y 8675   4.087   1.993  13.219
   78SAPC   C37 8676   4.283   2.026  13.132
   78SAPC   H7X 8677   4.325   1.931  13.171
   78SAPC   H7Y 8678   4.364   2.102  13.133
   78SAPC   C38 8679   4.234   2.002  12.989
   78SAPC   H8X 8680   4.142   1.940  12.993
   78SAPC   H8Y 8681   4.310   1.944  12.933
   78SAPC   C39 8682   4.206   2.132  12.911
   78SAPC   H9X 8683   4.302   2.177  12.878
   78SAPC   H9Y 8684   4.155   2.205  12.977
   78SAPC  C310 8685   4.114   2.104  12.792
   78SAPC  H10X 8686   4.017   2.071  12.833
   78SAPC  H10Y 8687   4.156   2.022  12.731
   78SAPC  C311 8688   4.089   2.226  12.702
   78SAPC  H11X 8689   4.066   2.314  12.765
   78SAPC  H11Y 8690   3.999   2.204  12.640
   78SAPC  C312 8691   4.207   2.258  12.610
   78SAPC  H12X 8692   4.244   2.163  12.565
   78SAPC  H12Y 8693   4.289   2.300  12.672
   78SAPC  C313 8694   4.174   2.355  12.495
   78SAPC  H13X 8695   4.267   2.370  12.436
   78SAPC  H13Y 8696   4.142   2.453  12.535
   78SAPC  C314 8697   4.066   2.299  12.401
   78SAPC  H14X 8698   3.965   2.327  12.438
   78SAPC  H14Y 8699   4.072   2.188  12.402
   78SAPC  C315 8700   4.082   2.343  12.254
   78SAPC  H15X 8701   4.009   2.284  12.193
   78SAPC  H15Y 8702   4.184   2.317  12.219
   78SAPC  C316 8703   4.056   2.492  12.231
   78SAPC  H16X 8704   4.136   2.552  12.279
   78SAPC  H16Y 8705   3.959   2.521  12.277
   78SAPC  C317 8706   4.051   2.524  12.081
   78SAPC  H17X 8707   3.968   2.466  12.035
   78SAPC  H17Y 8708   4.145   2.489  12.034
   78SAPC  C318 8709   4.030   2.673  12.050
   78SAPC  H18X 8710   4.026   2.690  11.941
   78SAPC  H18Y 8711   4.114   2.732  12.092
   78SAPC  H18Z 8712   3.935   2.709  12.096
   79SAPC     N 8713   4.778   2.141  14.169
   79SAPC   C12 8714   4.920   2.127  14.224
   79SAPC  H12A 8715   4.916   2.129  14.332
   79SAPC  H12B 8716   4.976   2.215  14.194
   79SAPC   C13 8717   4.718   2.269  14.219
   79SAPC  H13A 8718   4.780   2.353  14.192
   79SAPC  H13B 8719   4.620   2.285  14.176
   79SAPC  H13C 8720   4.707   2.269  14.326
   79SAPC   C14 8721   4.785   2.142  14.020
   79SAPC  H14A 8722   4.828   2.050  13.984
   79SAPC  H14B 8723   4.689   2.160  13.973
   79SAPC  H14C 8724   4.854   2.217  13.986
   79SAPC   C15 8725   4.694   2.025  14.211
   79SAPC  H15A 8726   4.739   1.933  14.176
   79SAPC  H15B 8727   4.687   2.018  14.319
   79SAPC  H15C 8728   4.594   2.033  14.170
   79SAPC   C11 8729   5.005   2.006  14.179
   79SAPC  H11A 8730   4.948   1.912  14.197
   79SAPC  H11B 8731   5.096   1.999  14.242
   79SAPC     P 8732   5.139   2.126  13.990
   79SAPC   O13 8733   5.054   2.241  13.954
   79SAPC   O14 8734   0.050   2.153  14.094
   79SAPC   O12 8735   5.041   2.013  14.041
   79SAPC   O11 8736   0.013   2.060  13.863
   79SAPC    C1 8737   0.001   2.115  13.732
   79SAPC    HA 8738   0.029   2.222  13.731
   79SAPC    HB 8739   0.072   2.063  13.665
   79SAPC    C2 8740   5.049   2.099  13.671
   79SAPC    HS 8741   4.984   2.056  13.750
   79SAPC   O21 8742   5.054   2.010  13.557
   79SAPC   C21 8743   4.935   1.970  13.515
   79SAPC   O22 8744   4.828   1.990  13.570
   79SAPC   C22 8745   4.953   1.895  13.382
   79SAPC   H2R 8746   5.012   1.959  13.314
   79SAPC   H2S 8747   5.011   1.803  13.403
   79SAPC    C3 8748   4.992   2.238  13.633
   79SAPC    HX 8749   4.996   2.301  13.725
   79SAPC    HY 8750   4.886   2.229  13.600
   79SAPC   O31 8751   5.070   2.297  13.529
   79SAPC   C31 8752   5.045   2.424  13.500
   79SAPC   O32 8753   4.965   2.497  13.555
   79SAPC   C32 8754   5.129   2.464  13.380
   79SAPC   H2X 8755   0.044   2.457  13.410
   79SAPC   H2Y 8756   5.105   2.571  13.358
   79SAPC   C23 8757   4.818   1.859  13.314
   79SAPC   H3R 8758   4.757   1.951  13.302
   79SAPC   H3S 8759   4.762   1.790  13.380
   79SAPC   C24 8760   4.838   1.795  13.175
   79SAPC   H4R 8761   4.905   1.707  13.188
   79SAPC   H4S 8762   4.892   1.868  13.111
   79SAPC   C25 8763   4.708   1.749  13.114
   79SAPC   H5R 8764   4.649   1.681  13.177
   79SAPC   C26 8765   4.657   1.782  12.993
   79SAPC   H6R 8766   4.560   1.739  12.964
   79SAPC   C27 8767   4.716   1.873  12.888
   79SAPC   H7R 8768   4.736   1.813  12.796
   79SAPC   H7S 8769   4.815   1.914  12.919
   79SAPC   C28 8770   4.623   1.988  12.859
   79SAPC   H8R 8771   4.610   2.059  12.941
   79SAPC   C29 8772   4.556   2.011  12.744
   79SAPC   H9R 8773   4.492   2.100  12.737
   79SAPC  C210 8774   4.562   1.924  12.620
   79SAPC  H10R 8775   4.528   1.821  12.645
   79SAPC  H10S 8776   4.668   1.914  12.587
   79SAPC  C211 8777   4.476   1.979  12.509
   79SAPC  H11R 8778   4.368   1.984  12.532
   79SAPC  C212 8779   4.517   2.021  12.387
   79SAPC  H12R 8780   4.442   2.063  12.318
   79SAPC  C213 8781   4.658   2.021  12.334
   79SAPC  H13R 8782   4.655   2.005  12.224
   79SAPC  H13S 8783   4.713   1.933  12.374
   79SAPC  C214 8784   4.735   2.147  12.367
   79SAPC  H14R 8785   4.787   2.144  12.464
   79SAPC  C215 8786   4.741   2.259  12.293
   79SAPC  H15R 8787   4.800   2.344  12.331
   79SAPC  C216 8788   4.672   2.285  12.161
   79SAPC  H16R 8789   4.622   2.193  12.124
   79SAPC  H16S 8790   4.747   2.313  12.084
   79SAPC  C217 8791   4.565   2.395  12.171
   79SAPC  H17R 8792   4.500   2.375  12.259
   79SAPC  H17S 8793   4.501   2.389  12.081
   79SAPC  C218 8794   4.620   2.539  12.181
   79SAPC  H18R 8795   4.688   2.549  12.268
   79SAPC  H18S 8796   4.534   2.606  12.198
   79SAPC  C219 8797   4.692   2.585  12.053
   79SAPC  H19R 8798   4.634   2.551  11.965
   79SAPC  H19S 8799   4.792   2.536  12.047
   79SAPC  C220 8800   4.708   2.737  12.045
   79SAPC  H20R 8801   4.609   2.787  12.052
   79SAPC  H20S 8802   4.755   2.766  11.948
   79SAPC  H20T 8803   4.772   2.774  12.127
   79SAPC   C33 8804   5.103   2.377  13.256
   79SAPC   H3X 8805   5.153   2.427  13.170
   79SAPC   H3Y 8806   4.994   2.372  13.231
   79SAPC   C34 8807   5.162   2.235  13.266
   79SAPC   H4X 8808   5.086   2.168  13.310
   79SAPC   H4Y 8809   0.058   2.237  13.335
   79SAPC   C35 8810   0.019   2.180  13.131
   79SAPC   H5X 8811   0.055   2.076  13.145
   79SAPC   H5Y 8812   0.105   2.242  13.097
   79SAPC   C36 8813   5.102   2.182  13.022
   79SAPC   H6X 8814   5.055   2.283  13.018
   79SAPC   H6Y 8815   5.022   2.109  13.045
   79SAPC   C37 8816   5.162   2.154  12.884
   79SAPC   H7X 8817   0.006   2.049  12.881
   79SAPC   H7Y 8818   0.060   2.220  12.869
   79SAPC   C38 8819   5.063   2.181  12.771
   79SAPC   H8X 8820   5.020   2.283  12.784
   79SAPC   H8Y 8821   4.979   2.109  12.778
   79SAPC   C39 8822   5.127   2.174  12.631
   79SAPC   H9X 8823   0.002   2.262  12.619
   79SAPC   H9Y 8824   5.047   2.181  12.555
   79SAPC  C310 8825   0.020   2.048  12.607
   79SAPC  H10X 8826   0.107   2.050  12.676
   79SAPC  H10Y 8827   0.063   2.053  12.504
   79SAPC  C311 8828   5.137   1.914  12.624
   79SAPC  H11X 8829   5.038   1.929  12.674
   79SAPC  H11Y 8830   0.006   1.848  12.690
   79SAPC  C312 8831   5.115   1.841  12.491
   79SAPC  H12X 8832   5.086   1.736  12.510
   79SAPC  H12Y 8833   0.022   1.839  12.438
   79SAPC  C313 8834   5.009   1.905  12.402
   79SAPC  H13X 8835   4.998   2.013  12.426
   79SAPC  H13Y 8836   4.911   1.858  12.425
   79SAPC  C314 8837   5.040   1.890  12.252
   79SAPC  H14X 8838   4.949   1.919  12.196
   79SAPC  H14Y 8839   5.059   1.783  12.231
   79SAPC  C315 8840   5.158   1.976  12.201
   79SAPC  H15X 8841   5.180   1.948  12.096
   79SAPC  H15Y 8842   0.057   1.952  12.261
   79SAPC  C316 8843   5.132   2.127  12.205
   79SAPC  H16X 8844   0.034   2.181  12.177
   79SAPC  H16Y 8845   5.108   2.157  12.310
   79SAPC  C317 8846   5.019   2.174  12.113
   79SAPC  H17X 8847   4.996   2.280  12.138
   79SAPC  H17Y 8848   4.927   2.117  12.133
   79SAPC  C318 8849   5.051   2.166  11.963
   79SAPC  H18X 8850   5.145   2.221  11.940
   79SAPC  H18Y 8851   4.969   2.212  11.904
   79SAPC  H18Z 8852   5.064   2.060  11.931
   80SAPC     N 8853   0.708   4.537  13.928
   80SAPC   C12 8854   0.558   4.556  13.951
   80SAPC  H12A 8855   0.505   4.495  13.879
   80SAPC  H12B 8856   0.531   4.658  13.931
   80SAPC   C13 8857   0.752   4.415  14.002
   80SAPC  H13A 8858   0.699   4.328  13.968
   80SAPC  H13B 8859   0.859   4.400  13.994
   80SAPC  H13C 8860   0.726   4.427  14.107
   80SAPC   C14 8861   0.738   4.522  13.782
   80SAPC  H14A 8862   0.690   4.433  13.743
   80SAPC  H14B 8863   0.703   4.608  13.727
   80SAPC  H14C 8864   0.844   4.512  13.766
   80SAPC   C15 8865   0.784   4.655  13.982
   80SAPC  H15A 8866   0.761   4.746  13.928
   80SAPC  H15B 8867   0.756   4.673  14.084
   80SAPC  H15C 8868   0.891   4.638  13.980
   80SAPC   C11 8869   0.499   4.517  14.090
   80SAPC  H11A 8870   0.503   4.407  14.101
   80SAPC  H11B 8871   0.391   4.543  14.091
   80SAPC     P 8872   0.545   4.727  14.240
   80SAPC   O13 8873   0.489   4.728  14.377
   80SAPC   O14 8874   0.673   4.797  14.220
   80SAPC   O12 8875   0.568   4.577  14.199
   80SAPC   O11 8876   0.436   4.777  14.136
   80SAPC    C1 8877   0.473   4.878  14.041
   80SAPC    HA 8878   0.472   4.978  14.089
   80SAPC    HB 8879   0.575   4.861  14.000
   80SAPC    C2 8880   0.377   4.882  13.919
   80SAPC    HS 8881   0.276   4.908  13.958
   80SAPC   O21 8882   0.376   4.754  13.854
   80SAPC   C21 8883   0.274   4.736  13.771
   80SAPC   O22 8884   0.182   4.813  13.753
   80SAPC   C22 8885   0.291   4.601  13.700
   80SAPC   H2R 8886   0.322   4.527  13.777
   80SAPC   H2S 8887   0.191   4.570  13.662
   80SAPC    C3 8888   0.422   4.994  13.821
   80SAPC    HX 8889   0.413   5.088  13.880
   80SAPC    HY 8890   0.352   5.000  13.735
   80SAPC   O31 8891   0.557   4.970  13.774
   80SAPC   C31 8892   0.636   5.077  13.768
   80SAPC   O32 8893   0.603   5.190  13.798
   80SAPC   C32 8894   0.777   5.037  13.722
   80SAPC   H2X 8895   0.843   5.053  13.809
   80SAPC   H2Y 8896   0.806   5.109  13.642
   80SAPC   C23 8897   0.395   4.606  13.585
   80SAPC   H3R 8898   0.452   4.511  13.587
   80SAPC   H3S 8899   0.468   4.688  13.600
   80SAPC   C24 8900   0.332   4.616  13.445
   80SAPC   H4R 8901   0.269   4.526  13.429
   80SAPC   H4S 8902   0.414   4.610  13.370
   80SAPC   C25 8903   0.248   4.740  13.425
   80SAPC   H5R 8904   0.166   4.752  13.497
   80SAPC   C26 8905   0.262   4.835  13.330
   80SAPC   H6R 8906   0.189   4.917  13.330
   80SAPC   C27 8907   0.363   4.843  13.218
   80SAPC   H7R 8908   0.309   4.829  13.121
   80SAPC   H7S 8909   0.436   4.759  13.223
   80SAPC   C28 8910   0.436   4.975  13.216
   80SAPC   H8R 8911   0.415   5.044  13.299
   80SAPC   C29 8912   0.524   5.014  13.121
   80SAPC   H9R 8913   0.570   5.113  13.129
   80SAPC  C210 8914   0.566   4.933  13.001
   80SAPC  H10R 8915   0.563   4.825  13.025
   80SAPC  H10S 8916   0.673   4.955  12.978
   80SAPC  C211 8917   0.479   4.955  12.879
   80SAPC  H11R 8918   0.371   4.963  12.901
   80SAPC  C212 8919   0.520   4.965  12.751
   80SAPC  H12R 8920   0.445   4.981  12.673
   80SAPC  C213 8921   0.662   4.957  12.701
   80SAPC  H13R 8922   0.665   4.897  12.608
   80SAPC  H13S 8923   0.727   4.904  12.773
   80SAPC  C214 8924   0.718   5.095  12.678
   80SAPC  H14R 8925   0.680   5.173  12.745
   80SAPC  C215 8926   0.808   5.132  12.584
   80SAPC  H15R 8927   0.836   0.047  12.577
   80SAPC  C216 8928   0.873   5.043  12.481
   80SAPC  H16R 8929   0.860   4.936  12.504
   80SAPC  H16S 8930   0.983   5.062  12.480
   80SAPC  C217 8931   0.818   5.070  12.339
   80SAPC  H17R 8932   0.881   5.015  12.266
   80SAPC  H17S 8933   0.827   5.178  12.314
   80SAPC  C218 8934   0.672   5.024  12.322
   80SAPC  H18R 8935   0.607   5.084  12.389
   80SAPC  H18S 8936   0.665   4.918  12.357
   80SAPC  C219 8937   0.622   5.034  12.178
   80SAPC  H19R 8938   0.695   4.983  12.111
   80SAPC  H19S 8939   0.620   5.141  12.148
   80SAPC  C220 8940   0.484   4.972  12.158
   80SAPC  H20R 8941   0.486   4.864  12.182
   80SAPC  H20S 8942   0.450   4.984  12.053
   80SAPC  H20T 8943   0.410   5.021  12.224
   80SAPC   C33 8944   0.794   4.893  13.668
   80SAPC   H3X 8945   0.744   4.819  13.733
   80SAPC   H3Y 8946   0.903   4.871  13.668
   80SAPC   C34 8947   0.745   4.879  13.523
   80SAPC   H4X 8948   0.789   4.961  13.462
   80SAPC   H4Y 8949   0.635   4.891  13.519
   80SAPC   C35 8950   0.786   4.746  13.459
   80SAPC   H5X 8951   0.740   4.662  13.516
   80SAPC   H5Y 8952   0.896   4.735  13.464
   80SAPC   C36 8953   0.741   4.738  13.313
   80SAPC   H6X 8954   0.783   4.824  13.256
   80SAPC   H6Y 8955   0.631   4.745  13.309
   80SAPC   C37 8956   0.786   4.608  13.245
   80SAPC   H7X 8957   0.754   4.521  13.307
   80SAPC   H7Y 8958   0.897   4.606  13.239
   80SAPC   C38 8959   0.726   4.593  13.105
   80SAPC   H8X 8960   0.744   4.685  13.046
   80SAPC   H8Y 8961   0.616   4.580  13.114
   80SAPC   C39 8962   0.784   4.473  13.028
   80SAPC   H9X 8963   0.805   4.391  13.100
   80SAPC   H9Y 8964   0.881   4.503  12.982
   80SAPC  C310 8965   0.690   4.418  12.920
   80SAPC  H10X 8966   0.603   4.369  12.969
   80SAPC  H10Y 8967   0.744   4.341  12.862
   80SAPC  C311 8968   0.638   4.521  12.820
   80SAPC  H11X 8969   0.723   4.581  12.780
   80SAPC  H11Y 8970   0.569   4.592  12.870
   80SAPC  C312 8971   0.567   4.451  12.704
   80SAPC  H12X 8972   0.482   4.391  12.744
   80SAPC  H12Y 8973   0.637   4.379  12.656
   80SAPC  C313 8974   0.513   4.547  12.597
   80SAPC  H13X 8975   0.483   4.488  12.508
   80SAPC  H13Y 8976   0.593   4.618  12.566
   80SAPC  C314 8977   0.392   4.624  12.648
   80SAPC  H14X 8978   0.421   4.691  12.733
   80SAPC  H14Y 8979   0.319   4.551  12.688
   80SAPC  C315 8980   0.323   4.707  12.540
   80SAPC  H15X 8981   0.308   4.643  12.450
   80SAPC  H15Y 8982   0.387   4.793  12.510
   80SAPC  C316 8983   0.186   4.755  12.589
   80SAPC  H16X 8984   0.198   4.823  12.676
   80SAPC  H16Y 8985   0.129   4.666  12.623
   80SAPC  C317 8986   0.104   4.824  12.480
   80SAPC  H17X 8987   0.116   4.768  12.384
   80SAPC  H17Y 8988   0.144   4.927  12.464
   80SAPC  C318 8989   5.147   4.828  12.517
   80SAPC  H18X 8990   5.132   4.880  12.613
   80SAPC  H18Y 8991   5.110   4.724  12.529
   80SAPC  H18Z 8992   5.087   4.878  12.438
   81SAPC     N 8993   2.195   3.416   9.754
   81SAPC   C12 8994   2.113   3.316   9.835
   81SAPC  H12A 8995   2.168   3.224   9.847
   81SAPC  H12B 8996   2.025   3.289   9.778
   81SAPC   C13 8997   2.105   3.529   9.713
   81SAPC  H13A 8998   2.032   3.498   9.639
   81SAPC  H13B 8999   2.049   3.561   9.800
   81SAPC  H13C 9000   2.160   3.614   9.676
   81SAPC   C14 9001   2.303   3.475   9.839
   81SAPC  H14A 9002   2.259   3.525   9.923
   81SAPC  H14B 9003   2.370   3.400   9.878
   81SAPC  H14C 9004   2.359   3.550   9.786
   81SAPC   C15 9005   2.252   3.354   9.631
   81SAPC  H15A 9006   2.174   3.312   9.570
   81SAPC  H15B 9007   2.305   3.427   9.571
   81SAPC  H15C 9008   2.320   3.273   9.655
   81SAPC   C11 9009   2.064   3.361   9.975
   81SAPC  H11A 9010   2.151   3.375  10.043
   81SAPC  H11B 9011   2.001   3.280  10.018
   81SAPC     P 9012   1.928   3.549  10.095
   81SAPC   O13 9013   1.802   3.613  10.052
   81SAPC   O14 9014   1.923   3.450  10.204
   81SAPC   O12 9015   1.989   3.482   9.966
   81SAPC   O11 9016   2.035   3.660  10.127
   81SAPC    C1 9017   2.053   3.768  10.033
   81SAPC    HA 9018   2.097   3.728   9.940
   81SAPC    HB 9019   1.957   3.817  10.008
   81SAPC    C2 9020   2.148   3.879  10.089
   81SAPC    HS 9021   2.198   3.931  10.005
   81SAPC   O21 9022   2.247   3.825  10.179
   81SAPC   C21 9023   2.325   3.734  10.127
   81SAPC   O22 9024   2.339   3.711  10.007
   81SAPC   C22 9025   2.402   3.659  10.237
   81SAPC   H2R 9026   2.508   3.656  10.205
   81SAPC   H2S 9027   2.395   3.717  10.332
   81SAPC    C3 9028   2.065   3.987  10.166
   81SAPC    HX 9029   2.013   4.049  10.089
   81SAPC    HY 9030   2.134   4.054  10.221
   81SAPC   O31 9031   1.965   3.927  10.251
   81SAPC   C31 9032   2.011   3.882  10.367
   81SAPC   O32 9033   2.118   3.912  10.417
   81SAPC   C32 9034   1.909   3.789  10.431
   81SAPC   H2X 9035   1.966   3.701  10.468
   81SAPC   H2Y 9036   1.837   3.753  10.355
   81SAPC   C23 9037   2.351   3.515  10.257
   81SAPC   H3R 9038   2.438   3.446  10.267
   81SAPC   H3S 9039   2.294   3.481  10.167
   81SAPC   C24 9040   2.259   3.500  10.380
   81SAPC   H4R 9041   2.196   3.410  10.366
   81SAPC   H4S 9042   2.189   3.587  10.382
   81SAPC   C25 9043   2.339   3.486  10.507
   81SAPC   H5R 9044   2.408   3.400  10.507
   81SAPC   C26 9045   2.336   3.565  10.617
   81SAPC   H6R 9046   2.402   3.540  10.701
   81SAPC   C27 9047   2.251   3.687  10.641
   81SAPC   H7R 9048   2.204   3.679  10.741
   81SAPC   H7S 9049   2.167   3.693  10.569
   81SAPC   C28 9050   2.331   3.815  10.630
   81SAPC   H8R 9051   2.337   3.856  10.528
   81SAPC   C29 9052   2.388   3.884  10.731
   81SAPC   H9R 9053   2.441   3.978  10.707
   81SAPC  C210 9054   2.384   3.848  10.878
   81SAPC  H10R 9055   2.281   3.819  10.906
   81SAPC  H10S 9056   2.406   3.939  10.938
   81SAPC  C211 9057   2.484   3.740  10.912
   81SAPC  H11R 9058   2.588   3.766  10.890
   81SAPC  C212 9059   2.458   3.619  10.964
   81SAPC  H12R 9060   2.544   3.551  10.978
   81SAPC  C213 9061   2.325   3.559  11.003
   81SAPC  H13R 9062   2.297   3.480  10.929
   81SAPC  H13S 9063   2.243   3.634  10.996
   81SAPC  C214 9064   2.329   3.498  11.141
   81SAPC  H14R 9065   2.352   3.390  11.143
   81SAPC  C215 9066   2.309   3.563  11.257
   81SAPC  H15R 9067   2.317   3.507  11.352
   81SAPC  C216 9068   2.278   3.709  11.273
   81SAPC  H16R 9069   2.192   3.723  11.341
   81SAPC  H16S 9070   2.250   3.756  11.176
   81SAPC  C217 9071   2.397   3.789  11.329
   81SAPC  H17R 9072   2.370   3.897  11.327
   81SAPC  H17S 9073   2.486   3.776  11.263
   81SAPC  C218 9074   2.434   3.752  11.474
   81SAPC  H18R 9075   2.475   3.649  11.477
   81SAPC  H18S 9076   2.342   3.755  11.536
   81SAPC  C219 9077   2.537   3.850  11.531
   81SAPC  H19R 9078   2.497   3.953  11.520
   81SAPC  H19S 9079   2.630   3.843  11.472
   81SAPC  C220 9080   2.571   3.826  11.678
   81SAPC  H20R 9081   2.479   3.829  11.741
   81SAPC  H20S 9082   2.641   3.904  11.715
   81SAPC  H20T 9083   2.619   3.727  11.691
   81SAPC   C33 9084   1.836   3.857  10.549
   81SAPC   H3X 9085   1.758   3.923  10.507
   81SAPC   H3Y 9086   1.906   3.921  10.608
   81SAPC   C34 9087   1.772   3.755  10.644
   81SAPC   H4X 9088   1.743   3.665  10.585
   81SAPC   H4Y 9089   1.680   3.797  10.689
   81SAPC   C35 9090   1.861   3.714  10.762
   81SAPC   H5X 9091   1.963   3.689  10.725
   81SAPC   H5Y 9092   1.817   3.623  10.808
   81SAPC   C36 9093   1.867   3.820  10.872
   81SAPC   H6X 9094   1.767   3.830  10.920
   81SAPC   H6Y 9095   1.893   3.919  10.827
   81SAPC   C37 9096   1.973   3.789  10.979
   81SAPC   H7X 9097   1.973   3.869  11.056
   81SAPC   H7Y 9098   2.072   3.790  10.929
   81SAPC   C38 9099   1.957   3.652  11.049
   81SAPC   H8X 9100   2.047   3.639  11.112
   81SAPC   H8Y 9101   1.957   3.570  10.974
   81SAPC   C39 9102   1.831   3.642  11.137
   81SAPC   H9X 9103   1.741   3.639  11.073
   81SAPC   H9Y 9104   1.825   3.733  11.200
   81SAPC  C310 9105   1.833   3.519  11.231
   81SAPC  H10X 9106   1.829   3.427  11.169
   81SAPC  H10Y 9107   1.742   3.522  11.294
   81SAPC  C311 9108   1.959   3.515  11.319
   81SAPC  H11X 9109   1.992   3.620  11.335
   81SAPC  H11Y 9110   2.040   3.465  11.263
   81SAPC  C312 9111   1.946   3.449  11.458
   81SAPC  H12X 9112   2.044   3.460  11.508
   81SAPC  H12Y 9113   1.927   3.340  11.445
   81SAPC  C313 9114   1.838   3.508  11.551
   81SAPC  H13X 9115   1.860   3.477  11.655
   81SAPC  H13Y 9116   1.741   3.460  11.522
   81SAPC  C314 9117   1.818   3.661  11.545
   81SAPC  H14X 9118   1.738   3.690  11.615
   81SAPC  H14Y 9119   1.783   3.687  11.443
   81SAPC  C315 9120   1.943   3.745  11.575
   81SAPC  H15X 9121   2.035   3.688  11.548
   81SAPC  H15Y 9122   1.949   3.766  11.684
   81SAPC  C316 9123   1.944   3.875  11.494
   81SAPC  H16X 9124   1.855   3.936  11.519
   81SAPC  H16Y 9125   1.938   3.849  11.386
   81SAPC  C317 9126   2.071   3.960  11.515
   81SAPC  H17X 9127   2.076   4.036  11.435
   81SAPC  H17Y 9128   2.160   3.894  11.504
   81SAPC  C318 9129   2.075   4.030  11.650
   81SAPC  H18X 9130   1.994   4.106  11.657
   81SAPC  H18Y 9131   2.172   4.081  11.665
   81SAPC  H18Z 9132   2.061   3.957  11.733
   82SAPC     N 9133   1.010   2.750  10.050
   82SAPC   C12 9134   0.920   2.741   9.928
   82SAPC  H12A 9135   0.973   2.784   9.845
   82SAPC  H12B 9136   0.833   2.804   9.941
   82SAPC   C13 9137   0.964   2.660  10.160
   82SAPC  H13A 9138   0.959   2.559  10.123
   82SAPC  H13B 9139   1.032   2.661  10.244
   82SAPC  H13C 9140   0.866   2.688  10.195
   82SAPC   C14 9141   1.147   2.706  10.006
   82SAPC  H14A 9142   1.217   2.700  10.088
   82SAPC  H14B 9143   1.139   2.610   9.957
   82SAPC  H14C 9144   1.186   2.776   9.934
   82SAPC   C15 9145   1.019   2.893  10.095
   82SAPC  H15A 9146   1.085   2.904  10.180
   82SAPC  H15B 9147   1.060   2.953  10.016
   82SAPC  H15C 9148   0.923   2.935  10.119
   82SAPC   C11 9149   0.871   2.600   9.885
   82SAPC  H11A 9150   0.816   2.611   9.790
   82SAPC  H11B 9151   0.800   2.561   9.962
   82SAPC     P 9152   0.954   2.358   9.840
   82SAPC   O13 9153   0.836   2.346   9.751
   82SAPC   O14 9154   1.079   2.295   9.791
   82SAPC   O12 9155   0.982   2.511   9.868
   82SAPC   O11 9156   0.918   2.302   9.983
   82SAPC    C1 9157   0.853   2.174   9.994
   82SAPC    HA 9158   0.773   2.164   9.917
   82SAPC    HB 9159   0.926   2.092   9.979
   82SAPC    C2 9160   0.777   2.150  10.130
   82SAPC    HS 9161   0.680   2.099  10.106
   82SAPC   O21 9162   0.752   2.273  10.200
   82SAPC   C21 9163   0.667   2.354  10.141
   82SAPC   O22 9164   0.613   2.334  10.033
   82SAPC   C22 9165   0.645   2.480  10.226
   82SAPC   H2R 9166   0.695   2.563  10.172
   82SAPC   H2S 9167   0.536   2.499  10.227
   82SAPC    C3 9168   0.851   2.053  10.228
   82SAPC    HX 9169   0.877   1.959  10.175
   82SAPC    HY 9170   0.776   2.026  10.305
   82SAPC   O31 9171   0.964   2.113  10.295
   82SAPC   C31 9172   1.083   2.098  10.241
   82SAPC   O32 9173   1.109   2.039  10.138
   82SAPC   C32 9174   1.189   2.157  10.335
   82SAPC   H2X 9175   1.280   2.177  10.274
   82SAPC   H2Y 9176   1.213   2.078  10.409
   82SAPC   C23 9177   0.699   2.468  10.371
   82SAPC   H3R 9178   0.699   2.569  10.418
   82SAPC   H3S 9179   0.804   2.432  10.370
   82SAPC   C24 9180   0.610   2.376  10.456
   82SAPC   H4R 9181   0.584   2.286  10.396
   82SAPC   H4S 9182   0.514   2.430  10.474
   82SAPC   C25 9183   0.673   2.330  10.584
   82SAPC   H5R 9184   0.755   2.258  10.572
   82SAPC   C26 9185   0.636   2.367  10.708
   82SAPC   H6R 9186   0.690   2.326  10.794
   82SAPC   C27 9187   0.525   2.463  10.744
   82SAPC   H7R 9188   0.487   2.438  10.846
   82SAPC   H7S 9189   0.437   2.448  10.677
   82SAPC   C28 9190   0.568   2.607  10.738
   82SAPC   H8R 9191   0.523   2.665  10.656
   82SAPC   C29 9192   0.653   2.668  10.823
   82SAPC   H9R 9193   0.679   2.773  10.805
   82SAPC  C210 9194   0.723   2.605  10.941
   82SAPC  H10R 9195   0.806   2.671  10.974
   82SAPC  H10S 9196   0.773   2.511  10.908
   82SAPC  C211 9197   0.632   2.580  11.060
   82SAPC  H11R 9198   0.582   2.670  11.097
   82SAPC  C212 9199   0.607   2.463  11.122
   82SAPC  H12R 9200   0.539   2.465  11.208
   82SAPC  C213 9201   0.663   2.326  11.090
   82SAPC  H13R 9202   0.724   2.292  11.177
   82SAPC  H13S 9203   0.735   2.329  11.006
   82SAPC  C214 9204   0.556   2.223  11.059
   82SAPC  H14R 9205   0.507   2.238  10.962
   82SAPC  C215 9206   0.514   2.120  11.135
   82SAPC  H15R 9207   0.434   2.056  11.096
   82SAPC  C216 9208   0.563   2.079  11.272
   82SAPC  H16R 9209   0.482   2.095  11.346
   82SAPC  H16S 9210   0.648   2.142  11.306
   82SAPC  C217 9211   0.604   1.930  11.283
   82SAPC  H17R 9212   0.685   1.907  11.211
   82SAPC  H17S 9213   0.516   1.868  11.257
   82SAPC  C218 9214   0.651   1.891  11.425
   82SAPC  H18R 9215   0.645   1.781  11.436
   82SAPC  H18S 9216   0.580   1.936  11.498
   82SAPC  C219 9217   0.794   1.936  11.457
   82SAPC  H19R 9218   0.805   2.043  11.428
   82SAPC  H19S 9219   0.865   1.878  11.393
   82SAPC  C220 9220   0.834   1.922  11.604
   82SAPC  H20R 9221   0.825   1.817  11.638
   82SAPC  H20S 9222   0.769   1.986  11.667
   82SAPC  H20T 9223   0.939   1.955  11.618
   82SAPC   C33 9224   1.146   2.285  10.410
   82SAPC   H3X 9225   1.050   2.268  10.462
   82SAPC   H3Y 9226   1.131   2.368  10.338
   82SAPC   C34 9227   1.251   2.326  10.515
   82SAPC   H4X 9228   1.350   2.335  10.466
   82SAPC   H4Y 9229   1.259   2.245  10.591
   82SAPC   C35 9230   1.220   2.458  10.587
   82SAPC   H5X 9231   1.223   2.542  10.515
   82SAPC   H5Y 9232   1.299   2.476  10.663
   82SAPC   C36 9233   1.083   2.459  10.659
   82SAPC   H6X 9234   1.070   2.365  10.716
   82SAPC   H6Y 9235   1.003   2.462  10.582
   82SAPC   C37 9236   1.065   2.579  10.753
   82SAPC   H7X 9237   0.963   2.620  10.738
   82SAPC   H7Y 9238   1.137   2.660  10.727
   82SAPC   C38 9239   1.078   2.543  10.902
   82SAPC   H8X 9240   1.003   2.464  10.925
   82SAPC   H8Y 9241   1.051   2.632  10.963
   82SAPC   C39 9242   1.217   2.493  10.946
   82SAPC   H9X 9243   1.293   2.573  10.936
   82SAPC   H9Y 9244   1.246   2.410  10.877
   82SAPC  C310 9245   1.218   2.435  11.088
   82SAPC  H10X 9246   1.290   2.350  11.091
   82SAPC  H10Y 9247   1.117   2.393  11.110
   82SAPC  C311 9248   1.258   2.532  11.201
   82SAPC  H11X 9249   1.362   2.565  11.186
   82SAPC  H11Y 9250   1.254   2.476  11.297
   82SAPC  C312 9251   1.166   2.654  11.213
   82SAPC  H12X 9252   1.060   2.623  11.202
   82SAPC  H12Y 9253   1.190   2.724  11.130
   82SAPC  C313 9254   1.181   2.729  11.347
   82SAPC  H13X 9255   1.141   2.832  11.333
   82SAPC  H13Y 9256   1.289   2.739  11.374
   82SAPC  C314 9257   1.103   2.664  11.462
   82SAPC  H14X 9258   1.151   2.568  11.491
   82SAPC  H14Y 9259   1.001   2.641  11.426
   82SAPC  C315 9260   1.091   2.756  11.584
   82SAPC  H15X 9261   1.054   2.855  11.549
   82SAPC  H15Y 9262   1.190   2.773  11.630
   82SAPC  C316 9263   0.990   2.705  11.689
   82SAPC  H16X 9264   0.900   2.667  11.637
   82SAPC  H16Y 9265   0.958   2.790  11.753
   82SAPC  C317 9266   1.044   2.595  11.783
   82SAPC  H17X 9267   1.082   2.510  11.722
   82SAPC  H17Y 9268   0.959   2.558  11.844
   82SAPC  C318 9269   1.154   2.643  11.878
   82SAPC  H18X 9270   1.178   2.565  11.953
   82SAPC  H18Y 9271   1.122   2.735  11.932
   82SAPC  H18Z 9272   1.247   2.666  11.821
   83SAPC     N 9273   0.461   3.023  10.123
   83SAPC   C12 9274   0.502   3.078   9.987
   83SAPC  H12A 9275   0.430   3.046   9.914
   83SAPC  H12B 9276   0.597   3.036   9.958
   83SAPC   C13 9277   0.458   2.873  10.119
   83SAPC  H13A 9278   0.554   2.834  10.089
   83SAPC  H13B 9279   0.431   2.832  10.215
   83SAPC  H13C 9280   0.385   2.839  10.047
   83SAPC   C14 9281   0.557   3.071  10.227
   83SAPC  H14A 9282   0.657   3.035  10.208
   83SAPC  H14B 9283   0.565   3.179  10.220
   83SAPC  H14C 9284   0.526   3.045  10.327
   83SAPC   C15 9285   0.323   3.073  10.155
   83SAPC  H15A 9286   0.254   3.046  10.076
   83SAPC  H15B 9287   0.286   3.034  10.248
   83SAPC  H15C 9288   0.323   3.181  10.160
   83SAPC   C11 9289   0.515   3.232   9.975
   83SAPC  H11A 9290   0.422   3.281  10.013
   83SAPC  H11B 9291   0.521   3.260   9.868
   83SAPC     P 9292   0.769   3.291   9.987
   83SAPC   O13 9293   0.863   3.208  10.066
   83SAPC   O14 9294   0.764   3.269   9.841
   83SAPC   O12 9295   0.625   3.280  10.050
   83SAPC   O11 9296   0.810   3.443  10.010
   83SAPC    C1 9297   0.714   3.540  10.057
   83SAPC    HA 9298   0.726   3.633   9.998
   83SAPC    HB 9299   0.608   3.509  10.044
   83SAPC    C2 9300   0.736   3.576  10.207
   83SAPC    HS 9301   0.830   3.636  10.207
   83SAPC   O21 9302   0.753   3.454  10.283
   83SAPC   C21 9303   0.820   3.473  10.395
   83SAPC   O22 9304   0.878   3.575  10.426
   83SAPC   C22 9305   0.815   3.346  10.479
   83SAPC   H2R 9306   0.840   3.376  10.583
   83SAPC   H2S 9307   0.711   3.307  10.478
   83SAPC    C3 9308   0.622   3.665  10.266
   83SAPC    HX 9309   0.584   3.730  10.185
   83SAPC    HY 9310   0.667   3.734  10.341
   83SAPC   O31 9311   0.512   3.587  10.320
   83SAPC   C31 9312   0.510   3.575  10.453
   83SAPC   O32 9313   0.586   3.631  10.529
   83SAPC   C32 9314   0.407   3.472  10.496
   83SAPC   H2X 9315   0.422   3.380  10.436
   83SAPC   H2Y 9316   0.305   3.512  10.475
   83SAPC   C23 9317   0.913   3.239  10.428
   83SAPC   H3R 9318   1.017   3.279  10.427
   83SAPC   H3S 9319   0.887   3.212  10.324
   83SAPC   C24 9320   0.910   3.110  10.513
   83SAPC   H4R 9321   0.970   3.032  10.460
   83SAPC   H4S 9322   0.805   3.073  10.516
   83SAPC   C25 9323   0.966   3.129  10.652
   83SAPC   H5R 9324   1.076   3.125  10.659
   83SAPC   C26 9325   0.895   3.153  10.764
   83SAPC   H6R 9326   0.950   3.165  10.859
   83SAPC   C27 9327   0.745   3.165  10.777
   83SAPC   H7R 9328   0.698   3.187  10.678
   83SAPC   H7S 9329   0.723   3.255  10.839
   83SAPC   C28 9330   0.677   3.045  10.837
   83SAPC   H8R 9331   0.621   2.983  10.765
   83SAPC   C29 9332   0.679   3.008  10.967
   83SAPC   H9R 9333   0.624   2.917  10.997
   83SAPC  C210 9334   0.749   3.080  11.079
   83SAPC  H10R 9335   0.685   3.078  11.170
   83SAPC  H10S 9336   0.759   3.187  11.053
   83SAPC  C211 9337   0.886   3.024  11.111
   83SAPC  H11R 9338   0.923   2.944  11.046
   83SAPC  C212 9339   0.964   3.068  11.212
   83SAPC  H12R 9340   1.062   3.021  11.227
   83SAPC  C213 9341   0.929   3.178  11.310
   83SAPC  H13R 9342   1.010   3.185  11.386
   83SAPC  H13S 9343   0.838   3.148  11.366
   83SAPC  C214 9344   0.910   3.314  11.247
   83SAPC  H14R 9345   0.969   3.331  11.155
   83SAPC  C215 9346   0.831   3.413  11.292
   83SAPC  H15R 9347   0.828   3.507  11.236
   83SAPC  C216 9348   0.743   3.410  11.415
   83SAPC  H16R 9349   0.737   3.310  11.461
   83SAPC  H16S 9350   0.640   3.439  11.386
   83SAPC  C217 9351   0.793   3.510  11.521
   83SAPC  H17R 9352   0.710   3.535  11.590
   83SAPC  H17S 9353   0.820   3.605  11.469
   83SAPC  C218 9354   0.917   3.463  11.599
   83SAPC  H18R 9355   0.976   3.551  11.631
   83SAPC  H18S 9356   0.983   3.403  11.532
   83SAPC  C219 9357   0.887   3.381  11.726
   83SAPC  H19R 9358   0.984   3.353  11.771
   83SAPC  H19S 9359   0.836   3.286  11.695
   83SAPC  C220 9360   0.802   3.451  11.833
   83SAPC  H20R 9361   0.851   3.545  11.866
   83SAPC  H20S 9362   0.790   3.385  11.922
   83SAPC  H20T 9363   0.701   3.476  11.794
   83SAPC   C33 9364   0.422   3.440  10.647
   83SAPC   H3X 9365   0.411   3.534  10.706
   83SAPC   H3Y 9366   0.524   3.401  10.666
   83SAPC   C34 9367   0.319   3.338  10.698
   83SAPC   H4X 9368   0.319   3.250  10.630
   83SAPC   H4Y 9369   0.218   3.384  10.695
   83SAPC   C35 9370   0.348   3.288  10.841
   83SAPC   H5X 9371   0.446   3.236  10.842
   83SAPC   H5Y 9372   0.270   3.214  10.868
   83SAPC   C36 9373   0.349   3.398  10.948
   83SAPC   H6X 9374   0.254   3.456  10.942
   83SAPC   H6Y 9375   0.433   3.469  10.930
   83SAPC   C37 9376   0.364   3.338  11.089
   83SAPC   H7X 9377   0.457   3.277  11.092
   83SAPC   H7Y 9378   0.279   3.270  11.108
   83SAPC   C38 9379   0.371   3.441  11.204
   83SAPC   H8X 9380   0.464   3.501  11.196
   83SAPC   H8Y 9381   0.378   3.384  11.299
   83SAPC   C39 9382   0.249   3.535  11.212
   83SAPC   H9X 9383   0.166   3.490  11.154
   83SAPC   H9Y 9384   0.274   3.632  11.165
   83SAPC  C310 9385   0.198   3.555  11.356
   83SAPC  H10X 9386   0.178   3.455  11.399
   83SAPC  H10Y 9387   0.101   3.610  11.352
   83SAPC  C311 9388   0.293   3.632  11.449
   83SAPC  H11X 9389   0.296   3.738  11.416
   83SAPC  H11Y 9390   0.396   3.591  11.440
   83SAPC  C312 9391   0.250   3.625  11.596
   83SAPC  H12X 9392   0.140   3.646  11.601
   83SAPC  H12Y 9393   0.301   3.705  11.654
   83SAPC  C313 9394   0.279   3.489  11.661
   83SAPC  H13X 9395   0.300   3.415  11.581
   83SAPC  H13Y 9396   0.190   3.454  11.717
   83SAPC  C314 9397   0.399   3.493  11.757
   83SAPC  H14X 9398   0.371   3.554  11.846
   83SAPC  H14Y 9399   0.485   3.543  11.707
   83SAPC  C315 9400   0.445   3.354  11.806
   83SAPC  H15X 9401   0.358   3.296  11.844
   83SAPC  H15Y 9402   0.515   3.368  11.891
   83SAPC  C316 9403   0.517   3.273  11.697
   83SAPC  H16X 9404   0.591   3.338  11.646
   83SAPC  H16Y 9405   0.444   3.240  11.620
   83SAPC  C317 9406   0.592   3.150  11.752
   83SAPC  H17X 9407   0.522   3.090  11.814
   83SAPC  H17Y 9408   0.673   3.185  11.820
   83SAPC  C318 9409   0.653   3.061  11.644
   83SAPC  H18X 9410   0.726   3.118  11.583
   83SAPC  H18Y 9411   0.574   3.022  11.576
   83SAPC  H18Z 9412   0.705   2.974  11.690
   84SAPC     N 9413   3.765   0.090   9.798
   84SAPC   C12 9414   3.855   0.212   9.803
   84SAPC  H12A 9415   3.861   0.255   9.704
   84SAPC  H12B 9416   3.955   0.180   9.829
   84SAPC   C13 9417   3.621   0.132   9.789
   84SAPC  H13A 9418   3.593   0.188   9.877
   84SAPC  H13B 9419   3.603   0.194   9.703
   84SAPC  H13C 9420   3.555   0.047   9.782
   84SAPC   C14 9421   3.798   0.005   9.679
   84SAPC  H14A 9422   3.898   5.155   9.685
   84SAPC  H14B 9423   3.728   5.114   9.670
   84SAPC  H14C 9424   3.789   0.061   9.587
   84SAPC   C15 9425   3.782   0.010   9.924
   84SAPC  H15A 9426   3.705   5.126   9.935
   84SAPC  H15B 9427   3.881   5.157   9.930
   84SAPC  H15C 9428   3.772   0.075  10.010
   84SAPC   C11 9429   3.817   0.326   9.901
   84SAPC  H11A 9430   3.722   0.372   9.868
   84SAPC  H11B 9431   3.895   0.405   9.893
   84SAPC     P 9432   3.685   0.282  10.127
   84SAPC   O13 9433   3.569   0.321  10.043
   84SAPC   O14 9434   3.678   0.151  10.194
   84SAPC   O12 9435   3.814   0.280  10.035
   84SAPC   O11 9436   3.713   0.399  10.229
   84SAPC    C1 9437   3.837   0.470  10.234
   84SAPC    HA 9438   3.890   0.472  10.136
   84SAPC    HB 9439   3.813   0.576  10.258
   84SAPC    C2 9440   3.934   0.418  10.343
   84SAPC    HS 9441   4.020   0.489  10.345
   84SAPC   O21 9442   3.981   0.288  10.303
   84SAPC   C21 9443   4.070   0.235  10.385
   84SAPC   O22 9444   4.133   0.296  10.469
   84SAPC   C22 9445   4.079   0.084  10.358
   84SAPC   H2R 9446   3.983   0.051  10.312
   84SAPC   H2S 9447   4.161   0.069  10.285
   84SAPC    C3 9448   3.869   0.419  10.485
   84SAPC    HX 9449   3.812   0.514  10.494
   84SAPC    HY 9450   3.950   0.421  10.561
   84SAPC   O31 9451   3.781   0.306  10.506
   84SAPC   C31 9452   3.725   0.309  10.626
   84SAPC   O32 9453   3.744   0.395  10.710
   84SAPC   C32 9454   3.633   0.188  10.642
   84SAPC   H2X 9455   3.684   0.098  10.602
   84SAPC   H2Y 9456   3.542   0.207  10.581
   84SAPC   C23 9457   4.107   0.002  10.486
   84SAPC   H3R 9458   4.205   0.032  10.527
   84SAPC   H3S 9459   4.114   5.086  10.458
   84SAPC   C24 9460   3.997   0.020  10.593
   84SAPC   H4R 9461   3.900   5.180  10.551
   84SAPC   H4S 9462   3.987   0.128  10.617
   84SAPC   C25 9463   4.027   5.134  10.719
   84SAPC   H5R 9464   3.995   5.028  10.717
   84SAPC   C26 9465   4.090   5.180  10.829
   84SAPC   H6R 9466   4.103   5.113  10.915
   84SAPC   C27 9467   4.144   0.128  10.850
   84SAPC   H7R 9468   4.154   0.182  10.753
   84SAPC   H7S 9469   4.248   0.120  10.888
   84SAPC   C28 9470   4.061   0.213  10.943
   84SAPC   H8R 9471   3.986   0.276  10.893
   84SAPC   C29 9472   4.072   0.220  11.077
   84SAPC   H9R 9473   4.003   0.287  11.132
   84SAPC  C210 9474   4.169   0.145  11.164
   84SAPC  H10R 9475   4.211   0.057  11.111
   84SAPC  H10S 9476   4.115   0.104  11.252
   84SAPC  C211 9477   4.282   0.235  11.207
   84SAPC  H11R 9478   4.355   0.258  11.127
   84SAPC  C212 9479   4.301   0.288  11.329
   84SAPC  H12R 9480   4.388   0.354  11.344
   84SAPC  C213 9481   4.214   0.269  11.450
   84SAPC  H13R 9482   4.270   0.306  11.539
   84SAPC  H13S 9483   4.199   0.161  11.468
   84SAPC  C214 9484   4.079   0.338  11.446
   84SAPC  H14R 9485   4.070   0.417  11.370
   84SAPC  C215 9486   3.973   0.311  11.525
   84SAPC  H15R 9487   3.881   0.369  11.510
   84SAPC  C216 9488   3.966   0.207  11.634
   84SAPC  H16R 9489   3.972   0.105  11.592
   84SAPC  H16S 9490   3.867   0.215  11.684
   84SAPC  C217 9491   4.073   0.222  11.744
   84SAPC  H17R 9492   4.079   0.328  11.776
   84SAPC  H17S 9493   4.172   0.193  11.704
   84SAPC  C218 9494   4.045   0.136  11.868
   84SAPC  H18R 9495   4.033   0.030  11.837
   84SAPC  H18S 9496   3.950   0.169  11.915
   84SAPC  C219 9497   4.159   0.146  11.970
   84SAPC  H19R 9498   4.175   0.253  11.995
   84SAPC  H19S 9499   4.252   0.108  11.924
   84SAPC  C220 9500   4.132   0.069  12.099
   84SAPC  H20R 9501   4.042   0.110  12.150
   84SAPC  H20S 9502   4.218   0.076  12.169
   84SAPC  H20T 9503   4.114   5.153  12.077
   84SAPC   C33 9504   3.594   0.167  10.790
   84SAPC   H3X 9505   3.508   0.096  10.798
   84SAPC   H3Y 9506   3.559   0.264  10.833
   84SAPC   C34 9507   3.709   0.109  10.873
   84SAPC   H4X 9508   3.802   0.166  10.850
   84SAPC   H4Y 9509   3.727   0.004  10.843
   84SAPC   C35 9510   3.686   0.116  11.025
   84SAPC   H5X 9511   3.769   0.061  11.075
   84SAPC   H5Y 9512   3.591   0.064  11.050
   84SAPC   C36 9513   3.683   0.260  11.079
   84SAPC   H6X 9514   3.596   0.315  11.038
   84SAPC   H6Y 9515   3.775   0.312  11.044
   84SAPC   C37 9516   3.679   0.268  11.233
   84SAPC   H7X 9517   3.698   0.372  11.264
   84SAPC   H7Y 9518   3.760   0.205  11.274
   84SAPC   C38 9519   3.544   0.222  11.291
   84SAPC   H8X 9520   3.519   0.122  11.250
   84SAPC   H8Y 9521   3.464   0.292  11.259
   84SAPC   C39 9522   3.545   0.211  11.444
   84SAPC   H9X 9523   3.635   0.154  11.475
   84SAPC   H9Y 9524   3.456   0.153  11.476
   84SAPC  C310 9525   3.542   0.346  11.517
   84SAPC  H10X 9526   3.450   0.401  11.488
   84SAPC  H10Y 9527   3.629   0.408  11.486
   84SAPC  C311 9528   3.546   0.325  11.668
   84SAPC  H11X 9529   3.642   0.276  11.693
   84SAPC  H11Y 9530   3.464   0.255  11.696
   84SAPC  C312 9531   3.532   0.453  11.752
   84SAPC  H12X 9532   3.432   0.496  11.732
   84SAPC  H12Y 9533   3.608   0.527  11.721
   84SAPC  C313 9534   3.545   0.425  11.903
   84SAPC  H13X 9535   3.482   0.336  11.927
   84SAPC  H13Y 9536   3.505   0.511  11.961
   84SAPC  C314 9537   3.689   0.398  11.947
   84SAPC  H14X 9538   3.742   0.337  11.871
   84SAPC  H14Y 9539   3.689   0.338  12.041
   84SAPC  C315 9540   3.769   0.527  11.973
   84SAPC  H15X 9541   3.737   0.568  12.071
   84SAPC  H15Y 9542   3.743   0.602  11.896
   84SAPC  C316 9543   3.921   0.504  11.971
   84SAPC  H16X 9544   3.955   0.505  11.866
   84SAPC  H16Y 9545   3.943   0.403  12.012
   84SAPC  C317 9546   3.999   0.607  12.053
   84SAPC  H17X 9547   4.108   0.589  12.038
   84SAPC  H17Y 9548   3.978   0.589  12.161
   84SAPC  C318 9549   3.969   0.754  12.023
   84SAPC  H18X 9550   4.002   0.780  11.920
   84SAPC  H18Y 9551   4.023   0.820  12.094
   84SAPC  H18Z 9552   3.860   0.776  12.032
   85POPC     N 9553   0.972   3.393  13.993
   85POPC   C12 9554   0.913   3.427  13.857
   85POPC  H12A 9555   0.986   3.408  13.780
   85POPC  H12B 9556   0.894   3.533  13.854
   85POPC   C13 9557   0.975   3.244  14.010
   85POPC  H13A 9558   1.024   3.216  14.102
   85POPC  H13B 9559   0.874   3.208  14.017
   85POPC  H13C 9560   1.020   3.193  13.927
   85POPC   C14 9561   1.108   3.452  14.010
   85POPC  H14A 9562   1.102   3.560  14.005
   85POPC  H14B 9563   1.149   3.425  14.106
   85POPC  H14C 9564   1.175   3.417  13.933
   85POPC   C15 9565   0.883   3.451  14.099
   85POPC  H15A 9566   0.783   3.414  14.084
   85POPC  H15B 9567   0.880   3.559  14.092
   85POPC  H15C 9568   0.916   3.423  14.198
   85POPC   C11 9569   0.782   3.356  13.812
   85POPC  H11A 9570   0.808   3.250  13.788
   85POPC  H11B 9571   0.749   3.401  13.716
   85POPC     P 9572   0.604   3.244  13.972
   85POPC   O13 9573   0.460   3.270  13.989
   85POPC   O14 9574   0.680   3.214  14.096
   85POPC   O12 9575   0.675   3.369  13.906
   85POPC   O11 9576   0.629   3.126  13.868
   85POPC    C1 9577   0.704   3.011  13.913
   85POPC    HA 9578   0.652   2.961  13.997
   85POPC    HB 9579   0.805   3.041  13.950
   85POPC    C2 9580   0.725   2.903  13.803
   85POPC    HS 9581   0.789   2.824  13.846
   85POPC   O21 9582   0.784   2.956  13.683
   85POPC   C21 9583   0.898   3.018  13.681
   85POPC   O22 9584   0.973   3.040  13.776
   85POPC   C22 9585   0.926   3.061  13.536
   85POPC   H2R 9586   0.923   3.172  13.534
   85POPC   H2S 9587   0.846   3.021  13.470
   85POPC    C3 9588   0.591   2.836  13.760
   85POPC    HX 9589   0.541   2.798  13.852
   85POPC    HY 9590   0.614   2.747  13.698
   85POPC   O31 9591   0.502   2.929  13.694
   85POPC   C31 9592   0.520   2.942  13.564
   85POPC   O32 9593   0.590   2.871  13.493
   85POPC   C32 9594   0.438   3.061  13.512
   85POPC   H2X 9595   0.409   3.124  13.598
   85POPC   H2Y 9596   0.347   3.020  13.465
   85POPC   C23 9597   1.063   3.011  13.485
   85POPC   H3R 9598   1.068   2.900  13.489
   85POPC   H3S 9599   1.143   3.048  13.554
   85POPC   C24 9600   1.094   3.057  13.341
   85POPC   H4R 9601   1.205   3.056  13.327
   85POPC   H4S 9602   1.058   3.160  13.325
   85POPC   C25 9603   1.035   2.963  13.236
   85POPC   H5R 9604   0.924   2.970  13.236
   85POPC   H5S 9605   1.062   2.860  13.267
   85POPC   C26 9606   1.088   2.984  13.092
   85POPC   H6R 9607   1.058   2.894  13.034
   85POPC   H6S 9608   1.199   2.987  13.092
   85POPC   C27 9609   1.029   3.106  13.021
   85POPC   H7R 9610   1.082   3.198  13.055
   85POPC   H7S 9611   0.923   3.115  13.053
   85POPC   C28 9612   1.029   3.093  12.867
   85POPC   H8R 9613   0.960   3.170  12.827
   85POPC   H8S 9614   0.985   2.994  12.843
   85POPC   C29 9615   1.163   3.106  12.798
   85POPC   H91 9616   1.246   3.141  12.861
   85POPC  C210 9617   1.184   3.079  12.668
   85POPC  H101 9618   1.285   3.094  12.626
   85POPC  C211 9619   1.080   3.031  12.570
   85POPC  H11R 9620   0.988   2.997  12.623
   85POPC  H11S 9621   1.117   2.943  12.514
   85POPC  C212 9622   1.033   3.137  12.467
   85POPC  H12R 9623   1.024   3.237  12.515
   85POPC  H12S 9624   0.931   3.108  12.435
   85POPC  C213 9625   1.119   3.145  12.340
   85POPC  H13R 9626   1.126   3.043  12.297
   85POPC  H13S 9627   1.222   3.179  12.365
   85POPC  C214 9628   1.057   3.240  12.236
   85POPC  H14R 9629   1.074   3.345  12.268
   85POPC  H14S 9630   0.947   3.222  12.235
   85POPC  C215 9631   1.106   3.220  12.091
   85POPC  H15R 9632   1.216   3.238  12.084
   85POPC  H15S 9633   1.056   3.298  12.029
   85POPC  C216 9634   1.070   3.082  12.034
   85POPC  H16R 9635   0.979   3.045  12.085
   85POPC  H16S 9636   1.152   3.011  12.056
   85POPC  C217 9637   1.042   3.082  11.883
   85POPC  H17R 9638   0.950   3.143  11.865
   85POPC  H17S 9639   1.018   2.978  11.852
   85POPC  C218 9640   1.155   3.135  11.794
   85POPC  H18R 9641   1.246   3.071  11.805
   85POPC  H18S 9642   1.181   3.239  11.822
   85POPC  H18T 9643   1.125   3.134  11.687
   85POPC   C33 9644   0.519   3.143  13.410
   85POPC   H3X 9645   0.554   3.077  13.327
   85POPC   H3Y 9646   0.609   3.185  13.460
   85POPC   C34 9647   0.438   3.259  13.351
   85POPC   H4X 9648   0.393   3.317  13.434
   85POPC   H4Y 9649   0.355   3.218  13.290
   85POPC   C35 9650   0.521   3.355  13.264
   85POPC   H5X 9651   0.602   3.399  13.326
   85POPC   H5Y 9652   0.455   3.439  13.231
   85POPC   C36 9653   0.584   3.290  13.140
   85POPC   H6X 9654   0.504   3.242  13.079
   85POPC   H6Y 9655   0.653   3.209  13.173
   85POPC   C37 9656   0.664   3.388  13.053
   85POPC   H7X 9657   0.721   3.330  12.977
   85POPC   H7Y 9658   0.738   3.439  13.117
   85POPC   C38 9659   0.578   3.494  12.981
   85POPC   H8X 9660   0.646   3.566  12.931
   85POPC   H8Y 9661   0.521   3.552  13.057
   85POPC   C39 9662   0.479   3.438  12.877
   85POPC   H9X 9663   0.425   3.524  12.831
   85POPC   H9Y 9664   0.404   3.375  12.927
   85POPC  C310 9665   0.544   3.358  12.762
   85POPC  H10X 9666   0.465   3.328  12.690
   85POPC  H10Y 9667   0.589   3.265  12.804
   85POPC  C311 9668   0.653   3.436  12.688
   85POPC  H11X 9669   0.735   3.456  12.761
   85POPC  H11Y 9670   0.612   3.534  12.655
   85POPC  C312 9671   0.714   3.363  12.568
   85POPC  H12X 9672   0.739   3.258  12.598
   85POPC  H12Y 9673   0.810   3.411  12.541
   85POPC  C313 9674   0.626   3.363  12.443
   85POPC  H13X 9675   0.596   3.467  12.418
   85POPC  H13Y 9676   0.533   3.306  12.465
   85POPC  C314 9677   0.699   3.301  12.324
   85POPC  H14X 9678   0.740   3.203  12.358
   85POPC  H14Y 9679   0.785   3.365  12.295
   85POPC  C315 9680   0.611   3.275  12.202
   85POPC  H15X 9681   0.593   3.370  12.147
   85POPC  H15Y 9682   0.512   3.238  12.236
   85POPC  C316 9683   0.670   3.170  12.108
   85POPC  H16X 9684   0.691   3.076  12.163
   85POPC  H16Y 9685   0.765   3.206  12.063
   85POPC  H16Z 9686   0.598   3.146  12.027
   86POPC     N 9687   1.856   0.038  14.030
   86POPC   C12 9688   1.886   5.153  13.902
   86POPC  H12A 9689   1.792   5.125  13.856
   86POPC  H12B 9690   1.937   5.061  13.928
   86POPC   C13 9691   1.753   0.143  14.001
   86POPC  H13A 9692   1.657   0.100  13.975
   86POPC  H13B 9693   1.741   0.211  14.084
   86POPC  H13C 9694   1.785   0.204  13.917
   86POPC   C14 9695   1.805   5.138  14.136
   86POPC  H14A 9696   1.771   0.004  14.222
   86POPC  H14B 9697   1.722   5.078  14.102
   86POPC  H14C 9698   1.882   5.071  14.170
   86POPC   C15 9699   1.980   0.105  14.081
   86POPC  H15A 9700   2.054   0.033  14.114
   86POPC  H15B 9701   1.957   0.172  14.163
   86POPC  H15C 9702   2.025   0.165  14.003
   86POPC   C11 9703   1.970   0.033  13.793
   86POPC  H11A 9704   1.974   5.159  13.703
   86POPC  H11B 9705   2.075   0.043  13.828
   86POPC     P 9706   1.980   0.298  13.774
   86POPC   O13 9707   2.107   0.280  13.848
   86POPC   O14 9708   1.880   0.390  13.833
   86POPC   O12 9709   1.911   0.157  13.755
   86POPC   O11 9710   2.010   0.341  13.625
   86POPC    C1 9711   2.062   0.243  13.535
   86POPC    HA 9712   1.984   0.171  13.504
   86POPC    HB 9713   2.146   0.186  13.581
   86POPC    C2 9714   2.118   0.313  13.408
   86POPC    HS 9715   2.175   0.401  13.445
   86POPC   O21 9716   2.007   0.355  13.325
   86POPC   C21 9717   2.044   0.438  13.229
   86POPC   O22 9718   2.159   0.475  13.209
   86POPC   C22 9719   1.926   0.480  13.141
   86POPC   H2R 9720   1.871   0.388  13.112
   86POPC   H2S 9721   1.972   0.522  13.049
   86POPC    C3 9722   2.219   0.219  13.335
   86POPC    HX 9723   2.300   0.199  13.409
   86POPC    HY 9724   2.270   0.271  13.250
   86POPC   O31 9725   2.160   0.093  13.299
   86POPC   C31 9726   2.124   0.080  13.172
   86POPC   O32 9727   2.136   0.163  13.084
   86POPC   C32 9728   2.063   5.131  13.156
   86POPC   H2X 9729   1.953   5.142  13.160
   86POPC   H2Y 9730   2.097   5.072  13.243
   86POPC   C23 9731   1.829   0.587  13.199
   86POPC   H3R 9732   1.794   0.650  13.115
   86POPC   H3S 9733   1.885   0.654  13.268
   86POPC   C24 9734   1.703   0.534  13.270
   86POPC   H4R 9735   1.657   0.620  13.324
   86POPC   H4S 9736   1.734   0.461  13.348
   86POPC   C25 9737   1.596   0.471  13.179
   86POPC   H5R 9738   1.631   0.368  13.157
   86POPC   H5S 9739   1.591   0.526  13.082
   86POPC   C26 9740   1.454   0.456  13.236
   86POPC   H6R 9741   1.395   0.549  13.222
   86POPC   H6S 9742   1.462   0.439  13.346
   86POPC   C27 9743   1.371   0.340  13.176
   86POPC   H7R 9744   1.272   0.342  13.227
   86POPC   H7S 9745   1.420   0.244  13.205
   86POPC   C28 9746   1.349   0.341  13.023
   86POPC   H8R 9747   1.444   0.365  12.972
   86POPC   H8S 9748   1.277   0.423  12.999
   86POPC   C29 9749   1.293   0.207  12.979
   86POPC   H91 9750   1.219   0.165  13.049
   86POPC  C210 9751   1.324   0.131  12.873
   86POPC  H101 9752   1.271   0.035  12.860
   86POPC  C211 9753   1.425   0.159  12.765
   86POPC  H11R 9754   1.519   0.105  12.788
   86POPC  H11S 9755   1.450   0.268  12.761
   86POPC  C212 9756   1.378   0.115  12.626
   86POPC  H12R 9757   1.283   0.167  12.602
   86POPC  H12S 9758   1.359   0.006  12.623
   86POPC  C213 9759   1.481   0.151  12.517
   86POPC  H13R 9760   1.513   0.256  12.534
   86POPC  H13S 9761   1.430   0.146  12.418
   86POPC  C214 9762   1.607   0.063  12.514
   86POPC  H14R 9763   1.580   5.151  12.484
   86POPC  H14S 9764   1.652   0.059  12.615
   86POPC  C215 9765   1.713   0.116  12.416
   86POPC  H15R 9766   1.800   0.047  12.416
   86POPC  H15S 9767   1.749   0.215  12.451
   86POPC  C216 9768   1.662   0.131  12.272
   86POPC  H16R 9769   1.581   0.207  12.269
   86POPC  H16S 9770   1.620   0.034  12.238
   86POPC  C217 9771   1.772   0.175  12.174
   86POPC  H17R 9772   1.853   0.099  12.175
   86POPC  H17S 9773   1.816   0.271  12.211
   86POPC  C218 9774   1.722   0.195  12.031
   86POPC  H18R 9775   1.805   0.227  11.964
   86POPC  H18S 9776   1.642   0.273  12.028
   86POPC  H18T 9777   1.679   0.100  11.991
   86POPC   C33 9778   2.104   5.060  13.025
   86POPC   H3X 9779   2.089   4.951  13.036
   86POPC   H3Y 9780   2.212   5.077  13.003
   86POPC   C34 9781   2.021   5.107  12.905
   86POPC   H4X 9782   2.030   0.026  12.901
   86POPC   H4Y 9783   1.913   5.083  12.922
   86POPC   C35 9784   2.067   5.046  12.772
   86POPC   H5X 9785   2.043   4.938  12.771
   86POPC   H5Y 9786   2.178   5.055  12.766
   86POPC   C36 9787   2.005   5.114  12.649
   86POPC   H6X 9788   1.895   5.097  12.650
   86POPC   H6Y 9789   2.046   5.067  12.558
   86POPC   C37 9790   2.030   0.075  12.642
   86POPC   H7X 9791   1.976   0.124  12.725
   86POPC   H7Y 9792   1.987   0.113  12.547
   86POPC   C38 9793   2.178   0.116  12.649
   86POPC   H8X 9794   2.232   0.063  12.569
   86POPC   H8Y 9795   2.222   0.083  12.746
   86POPC   C39 9796   2.196   0.269  12.638
   86POPC   H9X 9797   2.214   0.310  12.739
   86POPC   H9Y 9798   2.100   0.313  12.602
   86POPC  C310 9799   2.308   0.314  12.543
   86POPC  H10X 9800   2.405   0.281  12.587
   86POPC  H10Y 9801   2.309   0.425  12.540
   86POPC  C311 9802   2.298   0.261  12.399
   86POPC  H11X 9803   2.312   0.151  12.400
   86POPC  H11Y 9804   2.382   0.303  12.340
   86POPC  C312 9805   2.166   0.294  12.327
   86POPC  H12X 9806   2.168   0.399  12.291
   86POPC  H12Y 9807   2.080   0.283  12.396
   86POPC  C313 9808   2.139   0.199  12.209
   86POPC  H13X 9809   2.045   0.230  12.159
   86POPC  H13Y 9810   2.125   0.097  12.249
   86POPC  C314 9811   2.251   0.198  12.104
   86POPC  H14X 9812   2.347   0.166  12.150
   86POPC  H14Y 9813   2.265   0.303  12.068
   86POPC  C315 9814   2.220   0.107  11.985
   86POPC  H15X 9815   2.300   0.122  11.909
   86POPC  H15Y 9816   2.124   0.138  11.939
   86POPC  C316 9817   2.214   5.150  12.022
   86POPC  H16X 9818   2.210   5.088  11.930
   86POPC  H16Y 9819   2.124   5.128  12.083
   86POPC  H16Z 9820   2.304   5.120  12.080
   87POPC     N 9821   4.610   2.044  10.041
   87POPC   C12 9822   4.499   2.147  10.053
   87POPC  H12A 9823   4.518   2.209  10.139
   87POPC  H12B 9824   4.405   2.096  10.072
   87POPC   C13 9825   4.627   1.970  10.170
   87POPC  H13A 9826   4.532   1.933  10.208
   87POPC  H13B 9827   4.689   1.883  10.156
   87POPC  H13C 9828   4.669   2.032  10.247
   87POPC   C14 9829   4.576   1.946   9.934
   87POPC  H14A 9830   4.490   1.887   9.959
   87POPC  H14B 9831   4.557   1.995   9.840
   87POPC  H14C 9832   4.657   1.876   9.920
   87POPC   C15 9833   4.741   2.110  10.008
   87POPC  H15A 9834   4.770   2.179  10.085
   87POPC  H15B 9835   4.728   2.171   9.919
   87POPC  H15C 9836   4.820   2.039   9.992
   87POPC   C11 9837   4.479   2.244   9.934
   87POPC  H11A 9838   4.384   2.300   9.949
   87POPC  H11B 9839   4.466   2.186   9.840
   87POPC     P 9840   4.610   2.445  10.032
   87POPC   O13 9841   4.543   2.401  10.156
   87POPC   O14 9842   4.566   2.574   9.974
   87POPC   O12 9843   4.589   2.335   9.919
   87POPC   O11 9844   4.766   2.440  10.052
   87POPC    C1 9845   4.859   2.499   9.961
   87POPC    HA 9846   4.816   2.583   9.903
   87POPC    HB 9847   4.892   2.421   9.889
   87POPC    C2 9848   4.986   2.553  10.036
   87POPC    HS 9849   5.074   2.547   9.968
   87POPC   O21 9850   5.013   2.481  10.157
   87POPC   C21 9851   5.024   2.350  10.148
   87POPC   O22 9852   5.041   2.285  10.046
   87POPC   C22 9853   5.007   2.293  10.288
   87POPC   H2R 9854   4.910   2.331  10.327
   87POPC   H2S 9855   5.088   2.333  10.352
   87POPC    C3 9856   4.968   2.703  10.074
   87POPC    HX 9857   4.971   2.762   9.980
   87POPC    HY 9858   5.053   2.736  10.137
   87POPC   O31 9859   4.840   2.725  10.136
   87POPC   C31 9860   4.834   2.705  10.267
   87POPC   O32 9861   4.929   2.698  10.343
   87POPC   C32 9862   4.686   2.696  10.308
   87POPC   H2X 9863   4.625   2.695  10.216
   87POPC   H2Y 9864   4.661   2.789  10.365
   87POPC   C23 9865   5.009   2.138  10.295
   87POPC   H3R 9866   5.103   2.101  10.250
   87POPC   H3S 9867   4.925   2.096  10.237
   87POPC   C24 9868   5.002   2.086  10.439
   87POPC   H4R 9869   5.090   2.125  10.495
   87POPC   H4S 9870   5.011   1.976  10.438
   87POPC   C25 9871   4.873   2.125  10.515
   87POPC   H5R 9872   4.820   2.032  10.542
   87POPC   H5S 9873   4.805   2.183  10.448
   87POPC   C26 9874   4.898   2.206  10.644
   87POPC   H6R 9875   4.961   2.145  10.712
   87POPC   H6S 9876   4.800   2.222  10.694
   87POPC   C27 9877   4.965   2.343  10.621
   87POPC   H7R 9878   4.909   2.396  10.542
   87POPC   H7S 9879   5.069   2.330  10.584
   87POPC   C28 9880   4.964   2.434  10.746
   87POPC   H8R 9881   4.859   2.443  10.779
   87POPC   H8S 9882   4.997   2.536  10.714
   87POPC   C29 9883   5.051   2.385  10.858
   87POPC   H91 9884   5.133   2.319  10.827
   87POPC  C210 9885   5.040   2.419  10.988
   87POPC  H101 9886   5.111   2.376  11.060
   87POPC  C211 9887   4.938   2.512  11.048
   87POPC  H11R 9888   4.857   2.537  10.976
   87POPC  H11S 9889   4.986   2.609  11.074
   87POPC  C212 9890   4.871   2.457  11.175
   87POPC  H12R 9891   4.815   2.364  11.150
   87POPC  H12S 9892   4.797   2.532  11.210
   87POPC  C213 9893   4.969   2.429  11.290
   87POPC  H13R 9894   5.044   2.511  11.294
   87POPC  H13S 9895   5.025   2.335  11.269
   87POPC  C214 9896   4.902   2.418  11.428
   87POPC  H14R 9897   4.850   2.514  11.449
   87POPC  H14S 9898   4.980   2.405  11.506
   87POPC  C215 9899   4.800   2.303  11.439
   87POPC  H15R 9900   4.851   2.205  11.432
   87POPC  H15S 9901   4.731   2.311  11.352
   87POPC  C216 9902   4.714   2.311  11.566
   87POPC  H16R 9903   4.622   2.251  11.550
   87POPC  H16S 9904   4.683   2.417  11.581
   87POPC  C217 9905   4.780   2.260  11.695
   87POPC  H17R 9906   4.713   2.286  11.780
   87POPC  H17S 9907   4.876   2.314  11.711
   87POPC  C218 9908   4.804   2.109  11.695
   87POPC  H18R 9909   4.712   2.055  11.665
   87POPC  H18S 9910   4.834   2.074  11.796
   87POPC  H18T 9911   4.886   2.083  11.624
   87POPC   C33 9912   4.654   2.571  10.392
   87POPC   H3X 9913   4.712   2.482  10.358
   87POPC   H3Y 9914   4.546   2.546  10.376
   87POPC   C34 9915   4.673   2.596  10.542
   87POPC   H4X 9916   4.616   2.689  10.565
   87POPC   H4Y 9917   4.780   2.614  10.564
   87POPC   C35 9918   4.619   2.486  10.634
   87POPC   H5X 9919   4.685   2.397  10.628
   87POPC   H5Y 9920   4.518   2.455  10.598
   87POPC   C36 9921   4.605   2.534  10.779
   87POPC   H6X 9922   4.522   2.609  10.781
   87POPC   H6Y 9923   4.697   2.587  10.811
   87POPC   C37 9924   4.574   2.423  10.880
   87POPC   H7X 9925   4.665   2.362  10.898
   87POPC   H7Y 9926   4.497   2.356  10.837
   87POPC   C38 9927   4.520   2.481  11.011
   87POPC   H8X 9928   4.434   2.546  10.985
   87POPC   H8Y 9929   4.597   2.546  11.059
   87POPC   C39 9930   4.471   2.374  11.109
   87POPC   H9X 9931   4.555   2.338  11.172
   87POPC   H9Y 9932   4.433   2.288  11.050
   87POPC  C310 9933   4.355   2.425  11.196
   87POPC  H10X 9934   4.311   2.341  11.253
   87POPC  H10Y 9935   4.277   2.465  11.128
   87POPC  C311 9936   4.393   2.537  11.294
   87POPC  H11X 9937   4.306   2.605  11.305
   87POPC  H11Y 9938   4.478   2.596  11.254
   87POPC  C312 9939   4.428   2.484  11.433
   87POPC  H12X 9940   4.515   2.416  11.426
   87POPC  H12Y 9941   4.341   2.424  11.467
   87POPC  C313 9942   4.454   2.596  11.534
   87POPC  H13X 9943   4.384   2.679  11.513
   87POPC  H13Y 9944   4.557   2.635  11.522
   87POPC  C314 9945   4.430   2.551  11.679
   87POPC  H14X 9946   4.502   2.472  11.708
   87POPC  H14Y 9947   4.328   2.507  11.686
   87POPC  C315 9948   4.437   2.667  11.779
   87POPC  H15X 9949   4.388   2.756  11.734
   87POPC  H15Y 9950   4.543   2.693  11.797
   87POPC  C316 9951   4.367   2.635  11.911
   87POPC  H16X 9952   4.408   2.542  11.956
   87POPC  H16Y 9953   4.258   2.619  11.893
   87POPC  H16Z 9954   4.379   2.718  11.984
   88POPC     N 9955   5.006   4.818   9.996
   88POPC   C12 9956   4.928   4.689   9.971
   88POPC  H12A 9957   4.992   4.615   9.926
   88POPC  H12B 9958   4.849   4.707   9.900
   88POPC   C13 9959   5.117   4.789  10.093
   88POPC  H13A 9960   5.166   4.879  10.126
   88POPC  H13B 9961   5.076   4.736  10.178
   88POPC  H13C 9962   5.189   4.721  10.050
   88POPC   C14 9963   5.064   4.870   9.868
   88POPC  H14A 9964   5.139   4.803   9.828
   88POPC  H14B 9965   4.989   4.885   9.792
   88POPC  H14C 9966   5.111   4.966   9.884
   88POPC   C15 9967   4.918   4.924  10.053
   88POPC  H15A 9968   4.841   4.953   9.982
   88POPC  H15B 9969   4.975   5.013  10.076
   88POPC  H15C 9970   4.870   4.889  10.143
   88POPC   C11 9971   4.870   4.621  10.097
   88POPC  H11A 9972   4.789   4.552  10.065
   88POPC  H11B 9973   4.823   4.695  10.166
   88POPC     P 9974   4.996   4.398  10.143
   88POPC   O13 9975   5.104   4.347  10.229
   88POPC   O14 9976   5.013   4.374   9.998
   88POPC   O12 9977   4.975   4.553  10.166
   88POPC   O11 9978   4.855   4.339  10.187
   88POPC    C1 9979   4.838   4.286  10.319
   88POPC    HA 9980   4.918   4.212  10.340
   88POPC    HB 9981   4.741   4.231  10.320
   88POPC    C2 9982   4.825   4.397  10.433
   88POPC    HS 9983   4.846   4.302  10.486
   88POPC   O21 9984   4.959   4.438  10.463
   88POPC   C21 9985   4.964   4.566  10.496
   88POPC   O22 9986   4.885   4.651  10.460
   88POPC   C22 9987   5.066   4.582  10.609
   88POPC   H2R 9988   5.108   4.482  10.633
   88POPC   H2S 9989   5.008   4.614  10.698
   88POPC    C3 9990   4.736   4.398  10.566
   88POPC    HX 9991   4.654   4.324  10.557
   88POPC    HY 9992   4.689   4.499  10.572
   88POPC   O31 9993   4.816   4.375  10.685
   88POPC   C31 9994   4.755   4.382  10.802
   88POPC   O32 9995   4.637   4.404  10.819
   88POPC   C32 9996   4.861   4.353  10.910
   88POPC   H2X 9997   4.942   4.428  10.900
   88POPC   H2Y 9998   4.903   4.253  10.883
   88POPC   C23 9999   5.183   4.679  10.581
   88POPC   H3R10000   0.053   4.639  10.498
   88POPC   H3S10001   0.056   4.679  10.672
   88POPC   C2410002   5.145   4.825  10.549
   88POPC   H4R10003   5.106   4.829  10.445
   88POPC   H4S10004   0.047   4.885  10.551
   88POPC   C2510005   5.041   4.894  10.640
   88POPC   H5R10006   4.940   4.855  10.614
   88POPC   H5S10007   5.041   5.003  10.615
   88POPC   C2610008   5.059   4.880  10.792
   88POPC   H6R10009   5.038   4.775  10.821
   88POPC   H6S10010   4.983   4.943  10.843
   88POPC   C2710011   0.007   4.920  10.845
   88POPC   H7R10012   0.020   5.029  10.833
   88POPC   H7S10013   0.086   4.870  10.786
   88POPC   C2810014   0.024   4.883  10.994
   88POPC   H8R10015   5.137   4.936  11.051
   88POPC   H8S10016   0.122   4.923  11.028
   88POPC   C2910017   0.020   4.733  11.015
   88POPC   H9110018   0.072   4.675  10.938
   88POPC  C21010019   5.151   4.668  11.116
   88POPC  H10110020   5.157   4.558  11.118
   88POPC  C21110021   5.075   4.728  11.232
   88POPC  H11R10022   4.971   4.689  11.232
   88POPC  H11S10023   5.067   4.839  11.225
   88POPC  C21210024   5.142   4.693  11.366
   88POPC  H12R10025   5.158   4.583  11.373
   88POPC  H12S10026   5.072   4.721  11.448
   88POPC  C21310027   0.084   4.765  11.390
   88POPC  H13R10028   0.064   4.874  11.401
   88POPC  H13S10029   0.149   4.752  11.301
   88POPC  C21410030   0.161   4.713  11.513
   88POPC  H14R10031   0.251   4.776  11.528
   88POPC  H14S10032   0.195   4.610  11.492
   88POPC  C21510033   0.080   4.710  11.645
   88POPC  H15R10034   0.146   4.671  11.725
   88POPC  H15S10035   5.187   4.639  11.634
   88POPC  C21610036   0.026   4.847  11.688
   88POPC  H16R10037   5.149   4.886  11.610
   88POPC  H16S10038   0.110   4.919  11.697
   88POPC  C21710039   5.141   4.841  11.821
   88POPC  H17R10040   0.018   4.802  11.900
   88POPC  H17S10041   5.058   4.768  11.811
   88POPC  C21810042   5.084   4.976  11.865
   88POPC  H18R10043   5.030   4.967  11.961
   88POPC  H18S10044   5.014   5.016  11.788
   88POPC  H18T10045   5.166   5.050  11.878
   88POPC   C3310046   4.812   4.347  11.057
   88POPC   H3X10047   4.711   4.301  11.062
   88POPC   H3Y10048   4.802   4.450  11.099
   88POPC   C3410049   4.907   4.263  11.143
   88POPC   H4X10050   5.001   4.319  11.162
   88POPC   H4Y10051   4.934   4.173  11.084
   88POPC   C3510052   4.849   4.208  11.274
   88POPC   H5X10053   4.920   4.134  11.316
   88POPC   H5Y10054   4.756   4.152  11.251
   88POPC   C3610055   4.816   4.311  11.383
   88POPC   H6X10056   4.786   4.256  11.475
   88POPC   H6Y10057   4.727   4.368  11.349
   88POPC   C3710058   4.927   4.411  11.418
   88POPC   H7X10059   4.948   4.476  11.331
   88POPC   H7Y10060   5.019   4.354  11.441
   88POPC   C3810061   4.891   4.497  11.540
   88POPC   H8X10062   4.982   4.545  11.581
   88POPC   H8Y10063   4.852   4.429  11.619
   88POPC   C3910064   4.786   4.605  11.511
   88POPC   H9X10065   4.718   4.570  11.430
   88POPC   H9Y10066   4.836   4.697  11.473
   88POPC  C31010067   4.698   4.638  11.632
   88POPC  H10X10068   4.650   4.544  11.667
   88POPC  H10Y10069   4.617   4.707  11.601
   88POPC  C31110070   4.774   4.701  11.750
   88POPC  H11X10071   4.813   4.800  11.720
   88POPC  H11Y10072   4.861   4.637  11.777
   88POPC  C31210073   4.684   4.715  11.873
   88POPC  H12X10074   4.651   4.614  11.906
   88POPC  H12Y10075   4.593   4.773  11.846
   88POPC  C31310076   4.753   4.786  11.991
   88POPC  H13X10077   4.777   4.890  11.961
   88POPC  H13Y10078   4.849   4.734  12.013
   88POPC  C31410079   4.666   4.788  12.117
   88POPC  H14X10080   4.650   4.684  12.151
   88POPC  H14Y10081   4.567   4.831  12.092
   88POPC  C31510082   4.728   4.870  12.231
   88POPC  H15X10083   4.741   4.975  12.196
   88POPC  H15Y10084   4.829   4.829  12.253
   88POPC  C31610085   4.643   4.869  12.358
   88POPC  H16X10086   4.691   4.930  12.438
   88POPC  H16Y10087   4.631   4.765  12.396
   88POPC  H16Z10088   4.542   4.911  12.338
   89SOPE     N10089   2.528   4.576  14.337
   89SOPE   HN110090   2.608   4.643  14.338
   89SOPE   HN210091   2.553   4.491  14.390
   89SOPE   HN310092   2.506   4.550  14.239
   89SOPE   C1210093   2.408   4.647  14.394
   89SOPE  H12A10094   2.429   4.756  14.389
   89SOPE  H12B10095   2.397   4.617  14.500
   89SOPE   C1110096   2.280   4.618  14.314
   89SOPE  H11A10097   2.194   4.658  14.372
   89SOPE  H11B10098   2.262   4.509  14.302
   89SOPE     P10099   2.348   4.629  14.059
   89SOPE   O1310100   2.418   4.505  14.099
   89SOPE   O1410101   2.429   4.737  14.001
   89SOPE   O1210102   2.281   4.687  14.189
   89SOPE   O1110103   2.219   4.598  13.972
   89SOPE    C110104   2.149   4.710  13.914
   89SOPE    HA10105   2.192   4.809  13.940
   89SOPE    HB10106   2.044   4.712  13.951
   89SOPE    C210107   2.145   4.703  13.759
   89SOPE    HS10108   2.070   4.626  13.732
   89SOPE   O2110109   2.276   4.674  13.706
   89SOPE   C2110110   2.295   4.551  13.665
   89SOPE   O2210111   2.213   4.461  13.666
   89SOPE   C2210112   2.437   4.540  13.609
   89SOPE   H2R10113   2.506   4.547  13.696
   89SOPE   H2S10114   2.457   4.628  13.543
   89SOPE    C310115   2.097   4.836  13.697
   89SOPE    HX10116   2.176   4.912  13.714
   89SOPE    HY10117   2.006   4.869  13.751
   89SOPE   O3110118   2.066   4.812  13.557
   89SOPE   C3110119   2.142   4.877  13.470
   89SOPE   O3210120   2.206   4.978  13.492
   89SOPE   C3210121   2.139   4.801  13.337
   89SOPE   H2X10122   2.115   4.872  13.254
   89SOPE   H2Y10123   2.059   4.724  13.341
   89SOPE   C2310124   2.461   4.408  13.533
   89SOPE   H3R10125   2.432   4.322  13.597
   89SOPE   H3S10126   2.570   4.401  13.515
   89SOPE   C2410127   2.389   4.397  13.397
   89SOPE   H4R10128   2.365   4.290  13.379
   89SOPE   H4S10129   2.292   4.450  13.399
   89SOPE   C2510130   2.475   4.446  13.279
   89SOPE   H5R10131   2.494   4.555  13.290
   89SOPE   H5S10132   2.574   4.396  13.283
   89SOPE   C2610133   2.412   4.418  13.141
   89SOPE   H6R10134   2.396   4.309  13.129
   89SOPE   H6S10135   2.312   4.467  13.136
   89SOPE   C2710136   2.500   4.468  13.024
   89SOPE   H7R10137   2.527   4.574  13.041
   89SOPE   H7S10138   2.594   4.410  13.026
   89SOPE   C2810139   2.435   4.451  12.885
   89SOPE   H8R10140   2.515   4.463  12.809
   89SOPE   H8S10141   2.398   4.347  12.876
   89SOPE   C2910142   2.323   4.550  12.860
   89SOPE   H9110143   2.270   4.582  12.950
   89SOPE  C21010144   2.284   4.600  12.741
   89SOPE  H10110145   2.199   4.670  12.739
   89SOPE  C21110146   2.342   4.570  12.605
   89SOPE  H11R10147   2.448   4.537  12.611
   89SOPE  H11S10148   2.340   4.661  12.542
   89SOPE  C21210149   2.262   4.459  12.533
   89SOPE  H12R10150   2.153   4.483  12.531
   89SOPE  H12S10151   2.274   4.366  12.592
   89SOPE  C21310152   2.310   4.430  12.390
   89SOPE  H13R10153   2.279   4.327  12.362
   89SOPE  H13S10154   2.421   4.433  12.391
   89SOPE  C21410155   2.258   4.525  12.281
   89SOPE  H14R10156   2.314   4.501  12.188
   89SOPE  H14S10157   2.281   4.630  12.309
   89SOPE  C21510158   2.108   4.512  12.252
   89SOPE  H15R10159   2.051   4.542  12.343
   89SOPE  H15S10160   2.083   4.405  12.233
   89SOPE  C21610161   2.060   4.597  12.133
   89SOPE  H16R10162   2.088   4.703  12.153
   89SOPE  H16S10163   1.949   4.593  12.129
   89SOPE  C21710164   2.115   4.555  11.996
   89SOPE  H17R10165   2.225   4.562  11.996
   89SOPE  H17S10166   2.078   4.628  11.920
   89SOPE  C21810167   2.075   4.415  11.951
   89SOPE  H18R10168   2.113   4.394  11.848
   89SOPE  H18S10169   1.964   4.405  11.949
   89SOPE  H18T10170   2.116   4.338  12.019
   89SOPE   C3310171   2.274   4.731  13.308
   89SOPE   H3X10172   2.262   4.665  13.220
   89SOPE   H3Y10173   2.299   4.666  13.394
   89SOPE   C3410174   2.393   4.825  13.281
   89SOPE   H4X10175   2.485   4.763  13.276
   89SOPE   H4Y10176   2.408   4.897  13.364
   89SOPE   C3510177   2.382   4.902  13.148
   89SOPE   H5X10178   2.347   5.005  13.169
   89SOPE   H5Y10179   2.308   4.852  13.083
   89SOPE   C3610180   2.515   4.906  13.072
   89SOPE   H6X10181   2.547   4.802  13.048
   89SOPE   H6Y10182   2.594   4.950  13.137
   89SOPE   C3710183   2.507   4.987  12.942
   89SOPE   H7X10184   2.489   5.093  12.967
   89SOPE   H7Y10185   2.422   4.951  12.881
   89SOPE   C3810186   2.636   4.975  12.859
   89SOPE   H8X10187   2.640   4.875  12.811
   89SOPE   H8Y10188   2.723   4.981  12.927
   89SOPE   C3910189   2.651   5.087  12.754
   89SOPE   H9X10190   2.750   5.076  12.704
   89SOPE   H9Y10191   2.651   5.185  12.807
   89SOPE  C31010192   2.542   5.089  12.646
   89SOPE  H10X10193   2.561   5.175  12.579
   89SOPE  H10Y10194   2.442   5.106  12.693
   89SOPE  C31110195   2.537   4.960  12.563
   89SOPE  H11X10196   2.442   4.906  12.585
   89SOPE  H11Y10197   2.621   4.894  12.591
   89SOPE  C31210198   2.546   4.987  12.412
   89SOPE  H12X10199   2.649   5.022  12.388
   89SOPE  H12Y10200   2.476   5.069  12.385
   89SOPE  C31310201   2.512   4.864  12.326
   89SOPE  H13X10202   2.527   4.892  12.219
   89SOPE  H13Y10203   2.404   4.843  12.339
   89SOPE  C31410204   2.590   4.736  12.359
   89SOPE  H14X10205   2.552   4.653  12.295
   89SOPE  H14Y10206   2.566   4.708  12.464
   89SOPE  C31510207   2.743   4.742  12.345
   89SOPE  H15X10208   2.782   4.656  12.403
   89SOPE  H15Y10209   2.784   4.834  12.393
   89SOPE  C31610210   2.797   4.725  12.202
   89SOPE  H16X10211   2.897   4.677  12.207
   89SOPE  H16Y10212   2.731   4.657  12.145
   89SOPE  C31710213   2.814   4.859  12.128
   89SOPE  H17X10214   2.892   4.918  12.181
   89SOPE  H17Y10215   2.719   4.915  12.134
   89SOPE  C31810216   2.853   4.843  11.981
   89SOPE  H18X10217   2.857   4.942  11.931
   89SOPE  H18Y10218   2.954   4.796  11.973
   89SOPE  H18Z10219   2.779   4.780  11.928
   90SOPE     N10220   0.344   2.695  14.325
   90SOPE   HN110221   0.403   2.662  14.404
   90SOPE   HN210222   0.296   2.616  14.277
   90SOPE   HN310223   0.404   2.740  14.252
   90SOPE   C1210224   0.240   2.796  14.367
   90SOPE  H12A10225   0.287   2.896  14.358
   90SOPE  H12B10226   0.214   2.777  14.473
   90SOPE   C1110227   0.113   2.789  14.278
   90SOPE  H11A10228   0.049   2.875  14.306
   90SOPE  H11B10229   0.055   2.697  14.303
   90SOPE     P10230   0.168   2.670  14.049
   90SOPE   O1310231   0.188   2.558  14.143
   90SOPE   O1410232   0.281   2.702  13.960
   90SOPE   O1210233   0.144   2.798  14.139
   90SOPE   O1110234   0.032   2.655  13.971
   90SOPE    C110235   5.153   2.768  13.917
   90SOPE    HA10236   0.004   2.865  13.951
   90SOPE    HB10237   5.048   2.764  13.951
   90SOPE    C210238   5.153   2.769  13.761
   90SOPE    HS10239   5.100   2.679  13.725
   90SOPE   O2110240   0.097   2.778  13.713
   90SOPE   C2110241   0.147   2.667  13.659
   90SOPE   O2210242   0.089   2.562  13.641
   90SOPE   C2210243   0.290   2.699  13.614
   90SOPE   H2R10244   0.340   2.741  13.704
   90SOPE   H2S10245   0.286   2.778  13.536
   90SOPE    C310246   5.076   2.894  13.708
   90SOPE    HX10247   5.117   2.982  13.763
   90SOPE    HY10248   4.969   2.882  13.734
   90SOPE   O3110249   5.095   2.908  13.566
   90SOPE   C3110250   5.060   3.024  13.514
   90SOPE   O3210251   4.997   3.113  13.571
   90SOPE   C3210252   5.109   3.029  13.369
   90SOPE   H2X10253   5.019   3.043  13.305
   90SOPE   H2Y10254   5.155   2.931  13.343
   90SOPE   C2310255   0.373   2.577  13.566
   90SOPE   H3R10256   0.358   2.492  13.636
   90SOPE   H3S10257   0.480   2.606  13.572
   90SOPE   C2410258   0.349   2.530  13.421
   90SOPE   H4R10259   0.423   2.450  13.401
   90SOPE   H4S10260   0.248   2.484  13.413
   90SOPE   C2510261   0.367   2.638  13.313
   90SOPE   H5R10262   0.419   2.725  13.358
   90SOPE   H5S10263   0.434   2.599  13.233
   90SOPE   C2610264   0.235   2.683  13.247
   90SOPE   H6R10265   0.154   2.683  13.323
   90SOPE   H6S10266   0.250   2.788  13.213
   90SOPE   C2710267   0.195   2.599  13.124
   90SOPE   H7R10268   0.278   2.604  13.050
   90SOPE   H7S10269   0.183   2.493  13.156
   90SOPE   C2810270   0.065   2.648  13.057
   90SOPE   H8R10271   5.176   2.646  13.133
   90SOPE   H8S10272   0.077   2.755  13.029
   90SOPE   C2910273   0.023   2.564  12.938
   90SOPE   H9110274   0.005   2.459  12.961
   90SOPE  C21010275   0.008   2.604  12.810
   90SOPE  H10110276   5.168   2.529  12.736
   90SOPE  C21110277   0.030   2.742  12.753
   90SOPE  H11R10278   0.085   2.808  12.824
   90SOPE  H11S10279   5.124   2.791  12.733
   90SOPE  C21210280   0.111   2.738  12.621
   90SOPE  H12R10281   0.128   2.842  12.587
   90SOPE  H12S10282   0.051   2.687  12.542
   90SOPE  C21310283   0.246   2.667  12.635
   90SOPE  H13R10284   0.229   2.560  12.661
   90SOPE  H13S10285   0.299   2.714  12.721
   90SOPE  C21410286   0.337   2.673  12.512
   90SOPE  H14R10287   0.441   2.658  12.547
   90SOPE  H14S10288   0.332   2.775  12.467
   90SOPE  C21510289   0.311   2.568  12.404
   90SOPE  H15R10290   0.218   2.594  12.349
   90SOPE  H15S10291   0.296   2.469  12.452
   90SOPE  C21610292   0.428   2.557  12.304
   90SOPE  H16R10293   0.405   2.474  12.234
   90SOPE  H16S10294   0.520   2.528  12.358
   90SOPE  C21710295   0.453   2.685  12.224
   90SOPE  H17R10296   0.511   2.754  12.289
   90SOPE  H17S10297   0.355   2.734  12.202
   90SOPE  C21810298   0.529   2.666  12.093
   90SOPE  H18R10299   0.626   2.614  12.110
   90SOPE  H18S10300   0.550   2.764  12.045
   90SOPE  H18T10301   0.469   2.605  12.022
   90SOPE   C3310302   0.019   3.143  13.345
   90SOPE   H3X10303   0.107   3.129  13.411
   90SOPE   H3Y10304   5.163   3.239  13.371
   90SOPE   C3410305   0.069   3.151  13.199
   90SOPE   H4X10306   0.134   3.241  13.190
   90SOPE   H4Y10307   5.174   3.164  13.131
   90SOPE   C3510308   0.154   3.031  13.154
   90SOPE   H5X10309   0.092   2.939  13.156
   90SOPE   H5Y10310   0.237   3.018  13.226
   90SOPE   C3610311   0.212   3.051  13.013
   90SOPE   H6X10312   0.265   3.149  13.008
   90SOPE   H6Y10313   0.127   3.055  12.941
   90SOPE   C3710314   0.309   2.941  12.969
   90SOPE   H7X10315   0.327   2.952  12.860
   90SOPE   H7Y10316   0.263   2.841  12.983
   90SOPE   C3810317   0.445   2.944  13.042
   90SOPE   H8X10318   0.465   2.844  13.087
   90SOPE   H8Y10319   0.439   3.017  13.126
   90SOPE   C3910320   0.561   2.982  12.950
   90SOPE   H9X10321   0.650   3.007  13.011
   90SOPE   H9Y10322   0.532   3.073  12.894
   90SOPE  C31010323   0.598   2.870  12.852
   90SOPE  H10X10324   0.507   2.831  12.801
   90SOPE  H10Y10325   0.639   2.785  12.911
   90SOPE  C31110326   0.703   2.913  12.748
   90SOPE  H11X10327   0.750   2.823  12.703
   90SOPE  H11Y10328   0.783   2.969  12.802
   90SOPE  C31210329   0.648   3.000  12.635
   90SOPE  H12X10330   0.733   3.041  12.576
   90SOPE  H12Y10331   0.591   3.086  12.677
   90SOPE  C31310332   0.557   2.922  12.540
   90SOPE  H13X10333   0.481   2.869  12.600
   90SOPE  H13Y10334   0.619   2.845  12.487
   90SOPE  C31410335   0.484   3.009  12.437
   90SOPE  H14X10336   0.458   2.944  12.350
   90SOPE  H14Y10337   0.552   3.088  12.400
   90SOPE  C31510338   0.354   3.069  12.491
   90SOPE  H15X10339   0.378   3.136  12.576
   90SOPE  H15Y10340   0.290   2.987  12.531
   90SOPE  C31610341   0.273   3.147  12.387
   90SOPE  H16X10342   0.332   3.237  12.357
   90SOPE  H16Y10343   0.180   3.184  12.435
   90SOPE  C31710344   0.234   3.069  12.260
   90SOPE  H17X10345   0.325   3.030  12.210
   90SOPE  H17Y10346   0.188   3.140  12.188
   90SOPE  C31810347   0.135   2.954  12.283
   90SOPE  H18X10348   0.108   2.906  12.187
   90SOPE  H18Y10349   0.042   2.992  12.331
   90SOPE  H18Z10350   0.180   2.876  12.349
   91SOPE     N10351   4.081   4.492  14.306
   91SOPE   HN110352   3.997   4.530  14.354
   91SOPE   HN210353   4.055   4.474  14.207
   91SOPE   HN310354   4.111   4.402  14.348
   91SOPE   C1210355   4.196   4.590  14.302
   91SOPE  H12A10356   4.277   4.542  14.243
   91SOPE  H12B10357   4.231   4.605  14.406
   91SOPE   C1110358   4.156   4.724  14.236
   91SOPE  H11A10359   4.247   4.781  14.209
   91SOPE  H11B10360   4.104   4.784  14.315
   91SOPE     P10361   4.106   4.632  13.994
   91SOPE   O1310362   4.111   4.489  14.033
   91SOPE   O1410363   4.230   4.688  13.936
   91SOPE   O1210364   4.067   4.713  14.124
   91SOPE   O1110365   3.983   4.655  13.899
   91SOPE    C110366   3.849   4.630  13.947
   91SOPE    HA10367   3.829   4.688  14.040
   91SOPE    HB10368   3.837   4.522  13.970
   91SOPE    C210369   3.741   4.670  13.842
   91SOPE    HS10370   3.645   4.618  13.865
   91SOPE   O2110371   3.782   4.637  13.709
   91SOPE   C2110372   3.818   4.513  13.687
   91SOPE   O2210373   3.774   4.415  13.746
   91SOPE   C2210374   3.932   4.518  13.584
   91SOPE   H2R10375   4.026   4.521  13.643
   91SOPE   H2S10376   3.926   4.614  13.529
   91SOPE    C310377   3.712   4.823  13.845
   91SOPE    HX10378   3.648   4.843  13.933
   91SOPE    HY10379   3.653   4.852  13.755
   91SOPE   O3110380   3.833   4.901  13.858
   91SOPE   C3110381   3.906   4.915  13.749
   91SOPE   O3210382   3.874   4.882  13.636
   91SOPE   C3210383   4.037   4.984  13.783
   91SOPE   H2X10384   4.117   4.910  13.763
   91SOPE   H2Y10385   4.040   5.009  13.891
   91SOPE   C2310386   3.940   4.401  13.482
   91SOPE   H3R10387   3.954   4.306  13.537
   91SOPE   H3S10388   4.032   4.415  13.421
   91SOPE   C2410389   3.821   4.392  13.386
   91SOPE   H4R10390   3.828   4.297  13.329
   91SOPE   H4S10391   3.726   4.388  13.444
   91SOPE   C2510392   3.813   4.507  13.285
   91SOPE   H5R10393   3.809   4.603  13.341
   91SOPE   H5S10394   3.905   4.509  13.223
   91SOPE   C2610395   3.688   4.501  13.195
   91SOPE   H6R10396   3.599   4.488  13.260
   91SOPE   H6S10397   3.676   4.599  13.144
   91SOPE   C2710398   3.688   4.390  13.088
   91SOPE   H7R10399   3.698   4.291  13.138
   91SOPE   H7S10400   3.589   4.391  13.038
   91SOPE   C2810401   3.797   4.401  12.979
   91SOPE   H8R10402   3.896   4.386  13.026
   91SOPE   H8S10403   3.782   4.317  12.908
   91SOPE   C2910404   3.793   4.534  12.908
   91SOPE   H9110405   3.825   4.618  12.972
   91SOPE  C21010406   3.755   4.561  12.782
   91SOPE  H10110407   3.760   4.666  12.748
   91SOPE  C21110408   3.706   4.465  12.677
   91SOPE  H11R10409   3.595   4.471  12.672
   91SOPE  H11S10410   3.732   4.360  12.699
   91SOPE  C21210411   3.761   4.504  12.538
   91SOPE  H12R10412   3.751   4.613  12.522
   91SOPE  H12S10413   3.700   4.454  12.460
   91SOPE  C21310414   3.907   4.462  12.515
   91SOPE  H13R10415   3.967   4.477  12.607
   91SOPE  H13S10416   3.950   4.527  12.436
   91SOPE  C21410417   3.918   4.317  12.465
   91SOPE  H14R10418   3.853   4.306  12.376
   91SOPE  H14S10419   3.878   4.248  12.543
   91SOPE  C21510420   4.060   4.275  12.428
   91SOPE  H15R10421   4.120   4.267  12.522
   91SOPE  H15S10422   4.108   4.353  12.365
   91SOPE  C21610423   4.063   4.140  12.354
   91SOPE  H16R10424   3.994   4.071  12.407
   91SOPE  H16S10425   4.165   4.095  12.361
   91SOPE  C21710426   4.024   4.148  12.206
   91SOPE  H17R10427   3.927   4.201  12.196
   91SOPE  H17S10428   4.008   4.045  12.168
   91SOPE  C21810429   4.128   4.216  12.116
   91SOPE  H18R10430   4.223   4.159  12.119
   91SOPE  H18S10431   4.148   4.320  12.149
   91SOPE  H18T10432   4.093   4.218  12.011
   91SOPE   C3310433   4.058   5.112  13.698
   91SOPE   H3X10434   4.024   0.008  13.758
   91SOPE   H3Y10435   3.997   5.110  13.605
   91SOPE   C3410436   4.204   5.135  13.655
   91SOPE   H4X10437   4.270   5.096  13.735
   91SOPE   H4Y10438   4.220   0.053  13.648
   91SOPE   C3510439   4.240   5.074  13.518
   91SOPE   H5X10440   4.341   5.107  13.489
   91SOPE   H5Y10441   4.169   5.114  13.442
   91SOPE   C3610442   4.233   4.921  13.513
   91SOPE   H6X10443   4.130   4.888  13.536
   91SOPE   H6Y10444   4.300   4.877  13.591
   91SOPE   C3710445   4.270   4.866  13.375
   91SOPE   H7X10446   4.369   4.905  13.343
   91SOPE   H7Y10447   4.195   4.903  13.303
   91SOPE   C3810448   4.273   4.712  13.371
   91SOPE   H8X10449   4.180   4.673  13.416
   91SOPE   H8Y10450   4.358   4.676  13.434
   91SOPE   C3910451   4.287   4.656  13.229
   91SOPE   H9X10452   4.302   4.546  13.237
   91SOPE   H9Y10453   4.377   4.698  13.179
   91SOPE  C31010454   4.163   4.681  13.143
   91SOPE  H10X10455   4.157   4.788  13.114
   91SOPE  H10Y10456   4.073   4.659  13.206
   91SOPE  C31110457   4.155   4.592  13.018
   91SOPE  H11X10458   4.054   4.602  12.974
   91SOPE  H11Y10459   4.168   4.486  13.048
   91SOPE  C31210460   4.257   4.626  12.908
   91SOPE  H12X10461   4.242   4.552  12.827
   91SOPE  H12Y10462   4.361   4.615  12.945
   91SOPE  C31310463   4.237   4.767  12.849
   91SOPE  H13X10464   4.278   4.842  12.920
   91SOPE  H13Y10465   4.128   4.787  12.839
   91SOPE  C31410466   4.303   4.787  12.711
   91SOPE  H14X10467   4.410   4.759  12.717
   91SOPE  H14Y10468   4.297   4.894  12.685
   91SOPE  C31510469   4.234   4.706  12.599
   91SOPE  H15X10470   4.125   4.728  12.601
   91SOPE  H15Y10471   4.247   4.597  12.618
   91SOPE  C31610472   4.289   4.738  12.460
   91SOPE  H16X10473   4.398   4.717  12.458
   91SOPE  H16Y10474   4.275   4.846  12.439
   91SOPE  C31710475   4.221   4.656  12.350
   91SOPE  H17X10476   4.111   4.675  12.355
   91SOPE  H17Y10477   4.236   4.548  12.371
   91SOPE  C31810478   4.271   4.688  12.209
   91SOPE  H18X10479   4.219   4.625  12.134
   91SOPE  H18Y10480   4.380   4.668  12.201
   91SOPE  H18Z10481   4.253   4.795  12.184
   92SOPE     N10482   3.724   2.214   9.621
   92SOPE   HN110483   3.800   2.241   9.555
   92SOPE   HN210484   3.633   2.213   9.570
   92SOPE   HN310485   3.718   2.284   9.697
   92SOPE   C1210486   3.754   2.077   9.675
   92SOPE  H12A10487   3.699   2.002   9.614
   92SOPE  H12B10488   3.718   2.072   9.780
   92SOPE   C1110489   3.905   2.048   9.669
   92SOPE  H11A10490   3.937   2.044   9.563
   92SOPE  H11B10491   3.923   1.948   9.712
   92SOPE     P10492   4.057   2.128   9.868
   92SOPE   O1310493   4.151   2.241   9.884
   92SOPE   O1410494   4.114   1.991   9.866
   92SOPE   O1210495   3.978   2.153   9.733
   92SOPE   O1110496   3.940   2.137   9.973
   92SOPE    C110497   3.853   2.250   9.986
   92SOPE    HA10498   3.771   2.220  10.054
   92SOPE    HB10499   3.807   2.279   9.889
   92SOPE    C210500   3.920   2.377  10.049
   92SOPE    HS10501   3.971   2.428   9.965
   92SOPE   O2110502   4.015   2.336  10.149
   92SOPE   C2110503   4.117   2.419  10.164
   92SOPE   O2210504   4.131   2.526  10.106
   92SOPE   C2210505   4.221   2.355  10.254
   92SOPE   H2R10506   4.316   2.409  10.236
   92SOPE   H2S10507   4.233   2.249  10.224
   92SOPE    C310508   3.815   2.476  10.109
   92SOPE    HX10509   3.759   2.519  10.024
   92SOPE    HY10510   3.867   2.562  10.158
   92SOPE   O3110511   3.721   2.410  10.198
   92SOPE   C3110512   3.763   2.398  10.325
   92SOPE   O3210513   3.862   2.451  10.372
   92SOPE   C3210514   3.665   2.311  10.403
   92SOPE   H2X10515   3.562   2.338  10.371
   92SOPE   H2Y10516   3.675   2.336  10.510
   92SOPE   C2310517   4.186   2.364  10.405
   92SOPE   H3R10518   4.092   2.309  10.425
   92SOPE   H3S10519   4.171   2.470  10.434
   92SOPE   C2410520   4.301   2.305  10.487
   92SOPE   H4R10521   4.313   2.198  10.460
   92SOPE   H4S10522   4.394   2.357  10.458
   92SOPE   C2510523   4.281   2.315  10.639
   92SOPE   H5R10524   4.373   2.274  10.686
   92SOPE   H5S10525   4.271   2.421  10.670
   92SOPE   C2610526   4.162   2.234  10.689
   92SOPE   H6R10527   4.067   2.285  10.662
   92SOPE   H6S10528   4.165   2.137  10.635
   92SOPE   C2710529   4.165   2.203  10.840
   92SOPE   H7R10530   4.115   2.104  10.854
   92SOPE   H7S10531   4.270   2.191  10.872
   92SOPE   C2810532   4.091   2.306  10.928
   92SOPE   H8R10533   4.142   2.405  10.916
   92SOPE   H8S10534   3.987   2.317  10.893
   92SOPE   C2910535   4.097   2.260  11.071
   92SOPE   H9110536   4.171   2.181  11.089
   92SOPE  C21010537   4.026   2.304  11.177
   92SOPE  H10110538   4.046   2.257  11.274
   92SOPE  C21110539   3.921   2.412  11.181
   92SOPE  H11R10540   3.902   2.454  11.080
   92SOPE  H11S10541   3.956   2.496  11.245
   92SOPE  C21210542   3.785   2.363  11.239
   92SOPE  H12R10543   3.746   2.283  11.172
   92SOPE  H12S10544   3.713   2.447  11.236
   92SOPE  C21310545   3.792   2.309  11.383
   92SOPE  H13R10546   3.818   2.391  11.453
   92SOPE  H13S10547   3.873   2.233  11.390
   92SOPE  C21410548   3.661   2.240  11.428
   92SOPE  H14R10549   3.611   2.198  11.339
   92SOPE  H14S10550   3.593   2.316  11.472
   92SOPE  C21510551   3.683   2.124  11.527
   92SOPE  H15R10552   3.740   2.044  11.477
   92SOPE  H15S10553   3.584   2.082  11.554
   92SOPE  C21610554   3.757   2.163  11.656
   92SOPE  H16R10555   3.703   2.246  11.706
   92SOPE  H16S10556   3.858   2.200  11.630
   92SOPE  C21710557   3.772   2.045  11.754
   92SOPE  H17R10558   3.832   1.966  11.705
   92SOPE  H17S10559   3.671   2.003  11.773
   92SOPE  C21810560   3.837   2.084  11.887
   92SOPE  H18R10561   3.845   1.996  11.954
   92SOPE  H18S10562   3.776   2.162  11.938
   92SOPE  H18T10563   3.939   2.125  11.870
   92SOPE   C3310564   3.687   2.159  10.380
   92SOPE   H3X10565   3.678   2.136  10.272
   92SOPE   H3Y10566   3.605   2.103  10.432
   92SOPE   C3410567   3.821   2.105  10.431
   92SOPE   H4X10568   3.903   2.154  10.374
   92SOPE   H4Y10569   3.828   1.997  10.409
   92SOPE   C3510570   3.849   2.126  10.582
   92SOPE   H5X10571   3.845   2.234  10.606
   92SOPE   H5Y10572   3.952   2.091  10.601
   92SOPE   C3610573   3.757   2.048  10.676
   92SOPE   H6X10574   3.768   1.940  10.653
   92SOPE   H6Y10575   3.650   2.076  10.659
   92SOPE   C3710576   3.792   2.071  10.825
   92SOPE   H7X10577   3.759   2.172  10.855
   92SOPE   H7Y10578   3.902   2.066  10.837
   92SOPE   C3810579   3.728   1.965  10.916
   92SOPE   H8X10580   3.768   1.866  10.884
   92SOPE   H8Y10581   3.618   1.965  10.900
   92SOPE   C3910582   3.758   1.980  11.066
   92SOPE   H9X10583   3.686   1.917  11.123
   92SOPE   H9Y10584   3.741   2.086  11.096
   92SOPE  C31010585   3.900   1.937  11.106
   92SOPE  H10X10586   3.972   2.000  11.050
   92SOPE  H10Y10587   3.917   1.831  11.077
   92SOPE  C31110588   3.926   1.953  11.256
   92SOPE  H11X10589   3.869   1.877  11.314
   92SOPE  H11Y10590   3.887   2.053  11.286
   92SOPE  C31210591   4.075   1.948  11.292
   92SOPE  H12X10592   4.130   2.014  11.223
   92SOPE  H12Y10593   4.113   1.845  11.277
   92SOPE  C31310594   4.105   1.994  11.436
   92SOPE  H13X10595   4.077   1.912  11.506
   92SOPE  H13Y10596   4.043   2.082  11.461
   92SOPE  C31410597   4.253   2.031  11.454
   92SOPE  H14X10598   4.277   2.125  11.399
   92SOPE  H14Y10599   4.313   1.950  11.406
   92SOPE  C31510600   4.300   2.042  11.600
   92SOPE  H15X10601   4.406   2.011  11.603
   92SOPE  H15Y10602   4.243   1.970  11.664
   92SOPE  C31610603   4.294   2.183  11.661
   92SOPE  H16X10604   4.349   2.255  11.596
   92SOPE  H16Y10605   4.349   2.180  11.758
   92SOPE  C31710606   4.153   2.236  11.690
   92SOPE  H17X10607   4.153   2.286  11.790
   92SOPE  H17Y10608   4.083   2.149  11.698
   92SOPE  C31810609   4.099   2.337  11.588
   92SOPE  H18X10610   3.995   2.366  11.613
   92SOPE  H18Y10611   4.161   2.429  11.587
   92SOPE  H18Z10612   4.101   2.293  11.485
   93SOPE     N10613   3.894   4.125   9.542
   93SOPE   HN110614   3.968   4.168   9.601
   93SOPE   HN210615   3.939   4.072   9.465
   93SOPE   HN310616   3.837   4.205   9.505
   93SOPE   C1210617   3.809   4.034   9.627
   93SOPE  H12A10618   3.757   3.962   9.560
   93SOPE  H12B10619   3.732   4.097   9.677
   93SOPE   C1110620   3.895   3.961   9.732
   93SOPE  H11A10621   3.958   3.886   9.679
   93SOPE  H11B10622   3.830   3.905   9.802
   93SOPE     P10623   3.924   4.157   9.904
   93SOPE   O1310624   3.860   4.266   9.828
   93SOPE   O1410625   4.030   4.201   9.998
   93SOPE   O1210626   3.982   4.051   9.802
   93SOPE   O1110627   3.814   4.078   9.984
   93SOPE    C110628   3.675   4.114   9.978
   93SOPE    HA10629   3.624   4.061   9.895
   93SOPE    HB10630   3.660   4.223   9.960
   93SOPE    C210631   3.598   4.083  10.110
   93SOPE    HS10632   3.504   4.142  10.111
   93SOPE   O2110633   3.676   4.112  10.227
   93SOPE   C2110634   3.737   4.226  10.237
   93SOPE   O2210635   3.715   4.329  10.176
   93SOPE   C2210636   3.852   4.210  10.335
   93SOPE   H2R10637   3.946   4.202  10.275
   93SOPE   H2S10638   3.839   4.116  10.392
   93SOPE    C310639   3.557   3.932  10.118
   93SOPE    HX10640   3.496   3.910  10.028
   93SOPE    HY10641   3.490   3.917  10.206
   93SOPE   O3110642   3.674   3.845  10.120
   93SOPE   C3110643   3.724   3.824  10.243
   93SOPE   O3210644   3.663   3.840  10.346
   93SOPE   C3210645   3.868   3.770  10.233
   93SOPE   H2X10646   3.893   3.757  10.126
   93SOPE   H2Y10647   3.871   3.670  10.282
   93SOPE   C2310648   3.860   4.329  10.432
   93SOPE   H3R10649   3.862   4.426  10.379
   93SOPE   H3S10650   3.956   4.320  10.488
   93SOPE   C2410651   3.747   4.322  10.534
   93SOPE   H4R10652   3.648   4.332  10.485
   93SOPE   H4S10653   3.750   4.221  10.581
   93SOPE   C2510654   3.758   4.427  10.645
   93SOPE   H5R10655   3.863   4.428  10.683
   93SOPE   H5S10656   3.733   4.528  10.608
   93SOPE   C2610657   3.665   4.392  10.761
   93SOPE   H6R10658   3.560   4.404  10.729
   93SOPE   H6S10659   3.681   4.284  10.782
   93SOPE   C2710660   3.691   4.476  10.887
   93SOPE   H7R10661   3.800   4.486  10.904
   93SOPE   H7S10662   3.653   4.579  10.870
   93SOPE   C2810663   3.625   4.420  11.015
   93SOPE   H8R10664   3.652   4.486  11.100
   93SOPE   H8S10665   3.515   4.431  11.001
   93SOPE   C2910666   3.660   4.276  11.044
   93SOPE   H9110667   3.709   4.221  10.962
   93SOPE  C21010668   3.644   4.209  11.159
   93SOPE  H10110669   3.676   4.104  11.165
   93SOPE  C21110670   3.585   4.264  11.285
   93SOPE  H11R10671   3.545   4.366  11.268
   93SOPE  H11S10672   3.663   4.275  11.363
   93SOPE  C21210673   3.469   4.176  11.336
   93SOPE  H12R10674   3.397   4.156  11.254
   93SOPE  H12S10675   3.413   4.234  11.413
   93SOPE  C21310676   3.512   4.044  11.402
   93SOPE  H13R10677   3.551   3.975  11.324
   93SOPE  H13S10678   3.422   3.997  11.446
   93SOPE  C21410679   3.617   4.062  11.513
   93SOPE  H14R10680   3.586   4.146  11.579
   93SOPE  H14S10681   3.715   4.090  11.467
   93SOPE  C21510682   3.635   3.934  11.595
   93SOPE  H15R10683   3.664   3.853  11.525
   93SOPE  H15S10684   3.538   3.906  11.641
   93SOPE  C21610685   3.742   3.942  11.704
   93SOPE  H16R10686   3.841   3.964  11.658
   93SOPE  H16S10687   3.749   3.842  11.752
   93SOPE  C21710688   3.714   4.045  11.814
   93SOPE  H17R10689   3.612   4.027  11.855
   93SOPE  H17S10690   3.714   4.147  11.770
   93SOPE  C21810691   3.815   4.039  11.929
   93SOPE  H18R10692   3.799   4.122  12.000
   93SOPE  H18S10693   3.919   4.046  11.890
   93SOPE  H18T10694   3.806   3.943  11.984
   93SOPE   C3310695   3.974   3.864  10.298
   93SOPE   H3X10696   3.958   3.968  10.262
   93SOPE   H3Y10697   4.074   3.832  10.262
   93SOPE   C3410698   3.977   3.860  10.452
   93SOPE   H4X10699   4.010   3.759  10.485
   93SOPE   H4Y10700   3.875   3.878  10.492
   93SOPE   C3510701   4.071   3.965  10.514
   93SOPE   H5X10702   4.031   4.066  10.493
   93SOPE   H5Y10703   4.171   3.959  10.466
   93SOPE   C3610704   4.089   3.951  10.667
   93SOPE   H6X10705   4.153   3.864  10.689
   93SOPE   H6Y10706   3.990   3.933  10.714
   93SOPE   C3710707   4.149   4.078  10.729
   93SOPE   H7X10708   4.075   4.161  10.721
   93SOPE   H7Y10709   4.238   4.107  10.669
   93SOPE   C3810710   4.196   4.066  10.876
   93SOPE   H8X10711   4.246   4.161  10.905
   93SOPE   H8Y10712   4.273   3.987  10.879
   93SOPE   C3910713   4.088   4.032  10.980
   93SOPE   H9X10714   4.135   4.031  11.081
   93SOPE   H9Y10715   4.051   3.930  10.960
   93SOPE  C31010716   3.968   4.128  10.982
   93SOPE  H10X10717   3.894   4.093  11.057
   93SOPE  H10Y10718   3.919   4.121  10.883
   93SOPE  C31110719   4.001   4.276  11.010
   93SOPE  H11X10720   3.920   4.333  10.960
   93SOPE  H11Y10721   4.095   4.307  10.960
   93SOPE  C31210722   4.000   4.319  11.158
   93SOPE  H12X10723   4.101   4.301  11.201
   93SOPE  H12Y10724   3.928   4.256  11.215
   93SOPE  C31310725   3.960   4.467  11.174
   93SOPE  H13X10726   3.849   4.475  11.185
   93SOPE  H13Y10727   3.986   4.518  11.079
   93SOPE  C31410728   4.029   4.544  11.288
   93SOPE  H14X10729   4.023   4.652  11.262
   93SOPE  H14Y10730   4.136   4.517  11.292
   93SOPE  C31510731   3.966   4.529  11.427
   93SOPE  H15X10732   3.857   4.549  11.423
   93SOPE  H15Y10733   4.012   4.605  11.493
   93SOPE  C31610734   3.992   4.391  11.490
   93SOPE  H16X10735   4.097   4.362  11.470
   93SOPE  H16Y10736   3.926   4.316  11.443
   93SOPE  C31710737   3.971   4.393  11.642
   93SOPE  H17X10738   3.867   4.427  11.662
   93SOPE  H17Y10739   4.039   4.468  11.687
   93SOPE  C31810740   3.995   4.257  11.707
   93SOPE  H18X10741   4.100   4.224  11.693
   93SOPE  H18Y10742   3.927   4.181  11.663
   93SOPE  H18Z10743   3.974   4.263  11.816
   94SOPE     N10744   1.281   4.765  10.039
   94SOPE   HN110745   1.341   4.816  10.107
   94SOPE   HN210746   1.227   4.837   9.987
   94SOPE   HN310747   1.213   4.705  10.089
   94SOPE   C1210748   1.360   4.685   9.938
   94SOPE  H12A10749   1.287   4.640   9.867
   94SOPE  H12B10750   1.411   4.603   9.993
   94SOPE   C1110751   1.462   4.770   9.860
   94SOPE  H11A10752   1.528   4.698   9.806
   94SOPE  H11B10753   1.530   4.825   9.929
   94SOPE     P10754   1.339   4.995   9.803
   94SOPE   O1310755   1.209   4.966   9.867
   94SOPE   O1410756   1.336   5.087   9.686
   94SOPE   O1210757   1.402   4.856   9.762
   94SOPE   O1110758   1.440   5.044   9.912
   94SOPE    C110759   1.416   5.150  10.005
   94SOPE    HA10760   1.334   0.027   9.974
   94SOPE    HB10761   1.508   0.020  10.010
   94SOPE    C210762   1.390   5.098  10.151
   94SOPE    HS10763   1.429   5.174  10.222
   94SOPE   O2110764   1.452   4.969  10.172
   94SOPE   C2110765   1.584   4.981  10.190
   94SOPE   O2210766   1.646   5.085  10.195
   94SOPE   C2210767   1.647   4.842  10.204
   94SOPE   H2R10768   1.707   4.825  10.112
   94SOPE   H2S10769   1.568   4.764  10.210
   94SOPE    C310770   1.238   5.089  10.181
   94SOPE    HX10771   1.191   5.029  10.100
   94SOPE    HY10772   1.195   5.191  10.172
   94SOPE   O3110773   1.211   5.023  10.308
   94SOPE   C3110774   1.150   5.096  10.400
   94SOPE   O3210775   1.120   0.022  10.390
   94SOPE   C3210776   1.118   5.006  10.521
   94SOPE   H2X10777   1.214   4.979  10.569
   94SOPE   H2Y10778   1.070   4.914  10.483
   94SOPE   C2310779   1.740   4.832  10.327
   94SOPE   H3R10780   1.806   4.921  10.335
   94SOPE   H3S10781   1.807   4.744  10.314
   94SOPE   C2410782   1.665   4.813  10.460
   94SOPE   H4R10783   1.595   4.897  10.477
   94SOPE   H4S10784   1.606   4.719  10.454
   94SOPE   C2510785   1.762   4.803  10.579
   94SOPE   H5R10786   1.846   4.736  10.550
   94SOPE   H5S10787   1.806   4.903  10.599
   94SOPE   C2610788   1.699   4.745  10.706
   94SOPE   H6R10789   1.657   4.645  10.682
   94SOPE   H6S10790   1.779   4.729  10.782
   94SOPE   C2710791   1.587   4.831  10.770
   94SOPE   H7R10792   1.504   4.841  10.697
   94SOPE   H7S10793   1.548   4.774  10.857
   94SOPE   C2810794   1.629   4.972  10.817
   94SOPE   H8R10795   1.650   5.035  10.728
   94SOPE   H8S10796   1.541   5.017  10.868
   94SOPE   C2910797   1.749   4.971  10.908
   94SOPE   H9110798   1.844   4.952  10.856
   94SOPE  C21010799   1.754   4.990  11.041
   94SOPE  H10110800   1.852   4.984  11.090
   94SOPE  C21110801   1.640   5.018  11.136
   94SOPE  H11R10802   1.584   5.108  11.102
   94SOPE  H11S10803   1.680   5.043  11.237
   94SOPE  C21210804   1.538   4.903  11.153
   94SOPE  H12R10805   1.502   4.872  11.052
   94SOPE  H12S10806   1.450   4.940  11.209
   94SOPE  C21310807   1.594   4.779  11.225
   94SOPE  H13R10808   1.693   4.751  11.183
   94SOPE  H13S10809   1.525   4.695  11.207
   94SOPE  C21410810   1.604   4.798  11.378
   94SOPE  H14R10811   1.510   4.844  11.414
   94SOPE  H14S10812   1.688   4.867  11.402
   94SOPE  C21510813   1.625   4.663  11.449
   94SOPE  H15R10814   1.716   4.615  11.410
   94SOPE  H15S10815   1.539   4.598  11.423
   94SOPE  C21610816   1.634   4.672  11.602
   94SOPE  H16R10817   1.729   4.723  11.631
   94SOPE  H16S10818   1.638   4.569  11.643
   94SOPE  C21710819   1.518   4.748  11.668
   94SOPE  H17R10820   1.422   4.712  11.625
   94SOPE  H17S10821   1.526   4.856  11.645
   94SOPE  C21810822   1.514   4.730  11.820
   94SOPE  H18R10823   1.430   4.787  11.864
   94SOPE  H18S10824   1.609   4.765  11.866
   94SOPE  H18T10825   1.500   4.623  11.847
   94SOPE   C3310826   1.025   5.076  10.623
   94SOPE   H3X10827   0.935   5.115  10.572
   94SOPE   H3Y10828   1.078   5.163  10.667
   94SOPE   C3410829   0.980   4.983  10.737
   94SOPE   H4X10830   1.068   4.929  10.778
   94SOPE   H4Y10831   0.909   4.906  10.697
   94SOPE   C3510832   0.913   5.060  10.852
   94SOPE   H5X10833   0.827   5.118  10.812
   94SOPE   H5Y10834   0.987   5.134  10.890
   94SOPE   C3610835   0.864   4.974  10.969
   94SOPE   H6X10836   0.940   4.897  10.995
   94SOPE   H6Y10837   0.771   4.922  10.939
   94SOPE   C3710838   0.838   5.062  11.093
   94SOPE   H7X10839   0.794   5.156  11.055
   94SOPE   H7Y10840   0.936   5.087  11.140
   94SOPE   C3810841   0.743   5.005  11.200
   94SOPE   H8X10842   0.641   4.994  11.157
   94SOPE   H8Y10843   0.736   5.080  11.282
   94SOPE   C3910844   0.790   4.872  11.259
   94SOPE   H9X10845   0.899   4.881  11.279
   94SOPE   H9Y10846   0.775   4.791  11.185
   94SOPE  C31010847   0.723   4.836  11.392
   94SOPE  H10X10848   0.612   4.844  11.382
   94SOPE  H10Y10849   0.755   4.909  11.469
   94SOPE  C31110850   0.758   4.693  11.439
   94SOPE  H11X10851   0.865   4.673  11.418
   94SOPE  H11Y10852   0.698   4.622  11.378
   94SOPE  C31210853   0.735   4.668  11.588
   94SOPE  H12X10854   0.643   4.721  11.621
   94SOPE  H12Y10855   0.820   4.711  11.645
   94SOPE  C31310856   0.721   4.519  11.627
   94SOPE  H13X10857   0.615   4.488  11.609
   94SOPE  H13Y10858   0.739   4.509  11.736
   94SOPE  C31410859   0.811   4.421  11.551
   94SOPE  H14X10860   0.917   4.448  11.570
   94SOPE  H14Y10861   0.795   4.430  11.441
   94SOPE  C31510862   0.786   4.275  11.592
   94SOPE  H15X10863   0.740   4.219  11.507
   94SOPE  H15Y10864   0.713   4.274  11.675
   94SOPE  C31610865   0.913   4.202  11.638
   94SOPE  H16X10866   0.885   4.109  11.692
   94SOPE  H16Y10867   0.968   4.266  11.710
   94SOPE  C31710868   1.008   4.167  11.524
   94SOPE  H17X10869   1.027   4.261  11.467
   94SOPE  H17Y10870   0.959   4.096  11.455
   94SOPE  C31810871   1.142   4.108  11.568
   94SOPE  H18X10872   1.126   4.017  11.630
   94SOPE  H18Y10873   1.200   4.182  11.628
   94SOPE  H18Z10874   1.203   4.080  11.480
   95SAPI   C1210875   0.672   0.941  14.487
   95SAPI    H210876   0.721   1.014  14.418
   95SAPI    O210877   0.775   0.867  14.553
   95SAPI   HO210878   0.808   0.809  14.483
   95SAPI   C1310879   0.587   1.019  14.586
   95SAPI    H310880   0.511   1.074  14.527
   95SAPI    O310881   0.661   1.117  14.659
   95SAPI   HO310882   0.676   1.190  14.599
   95SAPI   C1410883   0.512   0.924  14.679
   95SAPI    H410884   0.587   0.866  14.737
   95SAPI    O410885   0.434   1.000  14.771
   95SAPI   HO410886   0.474   1.088  14.768
   95SAPI   C1510887   0.427   0.828  14.597
   95SAPI    H510888   0.351   0.888  14.542
   95SAPI    O510889   0.356   0.736  14.681
   95SAPI   HO510890   0.296   0.688  14.624
   95SAPI   C1610891   0.510   0.751  14.496
   95SAPI    H610892   0.583   0.687  14.551
   95SAPI    O610893   0.426   0.666  14.419
   95SAPI   HO610894   0.433   0.695  14.328
   95SAPI   C1110895   0.585   0.847  14.406
   95SAPI    H110896   0.511   0.912  14.353
   95SAPI     P10897   0.621   0.755  14.158
   95SAPI   O1310898   0.669   0.869  14.078
   95SAPI   O1410899   0.477   0.726  14.166
   95SAPI   O1210900   0.672   0.778  14.314
   95SAPI   O1110901   0.698   0.621  14.123
   95SAPI    C110902   0.838   0.624  14.092
   95SAPI    HA10903   0.891   0.708  14.144
   95SAPI    HB10904   0.884   0.531  14.131
   95SAPI    C210905   0.867   0.626  13.939
   95SAPI    HS10906   0.970   0.589  13.923
   95SAPI   O2110907   0.853   0.757  13.882
   95SAPI   C2110908   0.943   0.847  13.914
   95SAPI   O2210909   1.037   0.831  13.990
   95SAPI   C2210910   0.918   0.971  13.827
   95SAPI   H2R10911   0.811   0.999  13.839
   95SAPI   H2S10912   0.982   1.054  13.866
   95SAPI    C310913   0.771   0.534  13.859
   95SAPI    HX10914   0.669   0.577  13.863
   95SAPI    HY10915   0.769   0.434  13.909
   95SAPI   O3110916   0.824   0.520  13.726
   95SAPI   C3110917   0.756   0.574  13.626
   95SAPI   O3210918   0.639   0.603  13.626
   95SAPI   C3210919   0.854   0.591  13.509
   95SAPI   H2X10920   0.882   0.489  13.475
   95SAPI   H2Y10921   0.945   0.641  13.549
   95SAPI   C2310922   0.950   0.944  13.677
   95SAPI   H3R10923   0.890   0.857  13.643
   95SAPI   H3S10924   1.058   0.917  13.669
   95SAPI   C2410925   0.919   1.063  13.583
   95SAPI   H4R10926   0.966   1.154  13.625
   95SAPI   H4S10927   0.810   1.080  13.581
   95SAPI   C2510928   0.975   1.036  13.445
   95SAPI   H5R10929   1.079   0.999  13.446
   95SAPI   C2610930   0.917   1.053  13.324
   95SAPI   H6R10931   0.975   1.027  13.235
   95SAPI   C2710932   0.778   1.104  13.294
   95SAPI   H7R10933   0.785   1.178  13.211
   95SAPI   H7S10934   0.737   1.161  13.380
   95SAPI   C2810935   0.679   0.996  13.255
   95SAPI   H8R10936   0.623   0.955  13.340
   95SAPI   C2910937   0.656   0.944  13.133
   95SAPI   H9R10938   0.579   0.866  13.124
   95SAPI  C21010939   0.724   0.981  13.003
   95SAPI  H10R10940   0.761   0.887  12.957
   95SAPI  H10S10941   0.815   1.042  13.022
   95SAPI  C21110942   0.635   1.055  12.907
   95SAPI  H11R10943   0.614   1.159  12.935
   95SAPI  C21210944   0.580   1.007  12.793
   95SAPI  H12R10945   0.518   1.075  12.732
   95SAPI  C21310946   0.595   0.867  12.739
   95SAPI  H13R10947   0.596   0.794  12.823
   95SAPI  H13S10948   0.694   0.858  12.690
   95SAPI  C21410949   0.483   0.828  12.644
   95SAPI  H14R10950   0.382   0.829  12.687
   95SAPI  C21510951   0.497   0.789  12.516
   95SAPI  H15R10952   0.408   0.763  12.457
   95SAPI  C21610953   0.629   0.776  12.445
   95SAPI  H16R10954   0.691   0.701  12.499
   95SAPI  H16S10955   0.684   0.872  12.449
   95SAPI  C21710956   0.620   0.730  12.298
   95SAPI  H17R10957   0.573   0.630  12.293
   95SAPI  H17S10958   0.724   0.719  12.260
   95SAPI  C21810959   0.546   0.825  12.203
   95SAPI  H18R10960   0.437   0.823  12.226
   95SAPI  H18S10961   0.558   0.788  12.099
   95SAPI  C21910962   0.591   0.972  12.208
   95SAPI  H19R10963   0.562   1.014  12.307
   95SAPI  H19S10964   0.533   1.028  12.131
   95SAPI  C22010965   0.740   0.997  12.185
   95SAPI  H20R10966   0.802   0.944  12.261
   95SAPI  H20S10967   0.763   1.106  12.191
   95SAPI  H20T10968   0.770   0.961  12.084
   95SAPI   C3310969   0.798   0.672  13.390
   95SAPI   H3X10970   0.789   0.778  13.420
   95SAPI   H3Y10971   0.696   0.636  13.363
   95SAPI   C3410972   0.887   0.662  13.265
   95SAPI   H4X10973   0.847   0.732  13.189
   95SAPI   H4Y10974   0.880   0.559  13.222
   95SAPI   C3510975   1.035   0.693  13.291
   95SAPI   H5X10976   1.076   0.621  13.365
   95SAPI   H5Y10977   1.042   0.794  13.337
   95SAPI   C3610978   1.125   0.689  13.166
   95SAPI   H6X10979   1.134   0.585  13.130
   95SAPI   H6Y10980   1.227   0.722  13.198
   95SAPI   C3710981   1.079   0.780  13.051
   95SAPI   H7X10982   1.169   0.830  13.009
   95SAPI   H7Y10983   1.012   0.861  13.088
   95SAPI   C3810984   1.012   0.703  12.938
   95SAPI   H8X10985   0.911   0.669  12.970
   95SAPI   H8Y10986   1.072   0.612  12.917
   95SAPI   C3910987   1.001   0.782  12.806
   95SAPI   H9X10988   1.102   0.819  12.780
   95SAPI   H9Y10989   0.935   0.870  12.818
   95SAPI  C31010990   0.951   0.692  12.693
   95SAPI  H10X10991   0.843   0.671  12.709
   95SAPI  H10Y10992   1.005   0.595  12.701
   95SAPI  C31110993   0.974   0.746  12.552
   95SAPI  H11X10994   1.074   0.794  12.546
   95SAPI  H11Y10995   0.899   0.826  12.529
   95SAPI  C31210996   0.966   0.634  12.448
   95SAPI  H12X10997   0.864   0.592  12.448
   95SAPI  H12Y10998   1.035   0.551  12.478
   95SAPI  C31310999   1.002   0.680  12.306
   95SAPI  H13X11000   1.111   0.704  12.301
   95SAPI  H13Y11001   0.946   0.773  12.285
   95SAPI  C31411002   0.967   0.573  12.202
   95SAPI  H14X11003   0.859   0.549  12.211
   95SAPI  H14Y11004   1.023   0.480  12.225
   95SAPI  C31511005   0.995   0.614  12.057
   95SAPI  H15X11006   0.953   0.534  11.992
   95SAPI  H15Y11007   1.105   0.618  12.040
   95SAPI  C31611008   0.933   0.748  12.015
   95SAPI  H16X11009   0.982   0.830  12.071
   95SAPI  H16Y11010   0.825   0.747  12.042
   95SAPI  C31711011   0.946   0.776  11.865
   95SAPI  H17X11012   0.889   0.700  11.809
   95SAPI  H17Y11013   1.053   0.766  11.836
   95SAPI  C31811014   0.897   0.916  11.825
   95SAPI  H18X11015   0.906   0.931  11.715
   95SAPI  H18Y11016   0.957   0.994  11.877
   95SAPI  H18Z11017   0.791   0.929  11.854
   96SAPI   C1211018   2.090   4.825   9.480
   96SAPI    H211019   2.102   4.935   9.488
   96SAPI    O211020   1.952   4.795   9.498
   96SAPI   HO211021   1.928   4.835   9.582
   96SAPI   C1311022   2.136   4.785   9.341
   96SAPI    H311023   2.244   4.813   9.332
   96SAPI    O311024   2.067   4.856   9.239
   96SAPI   HO311025   1.973   4.846   9.255
   96SAPI   C1411026   2.127   4.634   9.325
   96SAPI    H411027   2.024   4.600   9.348
   96SAPI    O411028   2.152   4.595   9.190
   96SAPI   HO411029   2.145   4.675   9.137
   96SAPI   C1511030   2.223   4.570   9.425
   96SAPI    H511031   2.324   4.613   9.410
   96SAPI    O511032   2.235   4.428   9.410
   96SAPI   HO511033   2.279   4.399   9.491
   96SAPI   C1611034   2.178   4.606   9.566
   96SAPI    H611035   2.075   4.567   9.583
   96SAPI    O611036   2.265   4.548   9.663
   96SAPI   HO611037   2.252   4.605   9.740
   96SAPI   C1111038   2.178   4.757   9.584
   96SAPI    H111039   2.282   4.793   9.571
   96SAPI     P11040   2.125   4.935   9.780
   96SAPI   O1311041   2.001   4.996   9.728
   96SAPI   O1411042   2.253   5.007   9.757
   96SAPI   O1211043   2.136   4.784   9.719
   96SAPI   O1111044   2.109   4.899   9.933
   96SAPI    C111045   2.022   4.973  10.019
   96SAPI    HA11046   1.952   5.039   9.965
   96SAPI    HB11047   1.960   4.901  10.077
   96SAPI    C211048   2.102   5.058  10.120
   96SAPI    HS11049   2.167   5.129  10.064
   96SAPI   O2111050   2.177   4.968  10.204
   96SAPI   C2111051   2.306   4.957  10.179
   96SAPI   O2211052   2.369   5.021  10.096
   96SAPI   C2211053   2.366   4.847  10.265
   96SAPI   H2R11054   2.291   4.813  10.340
   96SAPI   H2S11055   2.390   4.762  10.198
   96SAPI    C311056   2.007   5.144  10.207
   96SAPI    HX11057   1.936   5.078  10.262
   96SAPI    HY11058   1.946   0.015  10.139
   96SAPI   O3111059   2.083   0.040  10.294
   96SAPI   C3111060   2.107   5.184  10.416
   96SAPI   O3211061   2.062   5.081  10.463
   96SAPI   C3211062   2.201   0.089  10.486
   96SAPI   H2X11063   2.154   0.190  10.487
   96SAPI   H2Y11064   2.295   0.096  10.427
   96SAPI   C2311065   2.495   4.893  10.338
   96SAPI   H3R11066   2.571   4.929  10.267
   96SAPI   H3S11067   2.537   4.804  10.389
   96SAPI   C2411068   2.464   5.002  10.443
   96SAPI   H4R11069   2.370   4.975  10.494
   96SAPI   H4S11070   2.445   5.098  10.391
   96SAPI   C2511071   2.574   5.020  10.546
   96SAPI   H5R11072   2.635   5.111  10.534
   96SAPI   C2611073   2.599   4.936  10.647
   96SAPI   H6R11074   2.680   4.960  10.717
   96SAPI   C2711075   2.523   4.808  10.676
   96SAPI   H7R11076   2.584   4.722  10.644
   96SAPI   H7S11077   2.430   4.801  10.615
   96SAPI   C2811078   2.490   4.791  10.823
   96SAPI   H8R11079   2.572   4.749  10.883
   96SAPI   C2911080   2.374   4.820  10.884
   96SAPI   H9R11081   2.367   4.800  10.992
   96SAPI  C21011082   2.248   4.877  10.822
   96SAPI  H10R11083   2.257   4.879  10.711
   96SAPI  H10S11084   2.240   4.984  10.851
   96SAPI  C21111085   2.118   4.809  10.858
   96SAPI  H11R11086   2.062   4.771  10.770
   96SAPI  C21211087   2.063   4.792  10.980
   96SAPI  H12R11088   1.966   4.740  10.985
   96SAPI  C21311089   2.117   4.834  11.115
   96SAPI  H13R11090   2.214   4.783  11.132
   96SAPI  H13S11091   2.050   4.791  11.193
   96SAPI  C21411092   2.136   4.982  11.137
   96SAPI  H14R11093   2.206   5.031  11.068
   96SAPI  C21511094   2.077   5.057  11.232
   96SAPI  H15R11095   2.101   5.165  11.238
   96SAPI  C21611096   1.979   5.007  11.336
   96SAPI  H16R11097   1.915   4.928  11.293
   96SAPI  H16S11098   1.911   5.089  11.367
   96SAPI  C21711099   2.048   4.949  11.461
   96SAPI  H17R11100   2.098   5.031  11.517
   96SAPI  H17S11101   2.126   4.877  11.429
   96SAPI  C21811102   1.948   4.875  11.551
   96SAPI  H18R11103   1.904   4.793  11.492
   96SAPI  H18S11104   1.866   4.944  11.580
   96SAPI  C21911105   2.012   4.815  11.678
   96SAPI  H19R11106   2.098   4.752  11.649
   96SAPI  H19S11107   1.937   4.749  11.726
   96SAPI  C22011108   2.057   4.921  11.779
   96SAPI  H20R11109   1.973   4.988  11.805
   96SAPI  H20S11110   2.140   4.982  11.737
   96SAPI  H20T11111   2.093   4.872  11.872
   96SAPI   C3311112   2.234   0.044  10.630
   96SAPI   H3X11113   2.282   5.136  10.630
   96SAPI   H3Y11114   2.139   0.036  10.689
   96SAPI   C3411115   2.326   0.145  10.699
   96SAPI   H4X11116   2.278   0.245  10.692
   96SAPI   H4Y11117   2.423   0.152  10.644
   96SAPI   C3511118   2.350   0.113  10.846
   96SAPI   H5X11119   2.255   0.083  10.895
   96SAPI   H5Y11120   2.383   0.208  10.894
   96SAPI   C3611121   2.458   0.007  10.871
   96SAPI   H6X11122   2.549   0.030  10.811
   96SAPI   H6Y11123   2.421   5.100  10.836
   96SAPI   C3711124   2.497   5.189  11.019
   96SAPI   H7X11125   2.405   0.005  11.081
   96SAPI   H7Y11126   2.561   0.086  11.044
   96SAPI   C3811127   2.573   5.062  11.059
   96SAPI   H8X11128   2.650   5.040  10.982
   96SAPI   H8Y11129   2.502   4.977  11.061
   96SAPI   C3911130   2.642   5.073  11.196
   96SAPI   H9X11131   2.723   5.149  11.187
   96SAPI   H9Y11132   2.689   4.976  11.222
   96SAPI  C31011133   2.549   5.118  11.311
   96SAPI  H10X11134   2.499   0.021  11.281
   96SAPI  H10Y11135   2.613   5.141  11.399
   96SAPI  C31111136   2.443   5.016  11.353
   96SAPI  H11X11137   2.394   4.971  11.264
   96SAPI  H11Y11138   2.365   5.070  11.410
   96SAPI  C31211139   2.500   4.907  11.444
   96SAPI  H12X11140   2.563   4.957  11.521
   96SAPI  H12Y11141   2.565   4.839  11.385
   96SAPI  C31311142   2.390   4.826  11.515
   96SAPI  H13X11143   2.328   4.774  11.439
   96SAPI  H13Y11144   2.324   4.895  11.571
   96SAPI  C31411145   2.445   4.720  11.613
   96SAPI  H14X11146   2.500   4.644  11.554
   96SAPI  H14Y11147   2.360   4.669  11.662
   96SAPI  C31511148   2.540   4.775  11.721
   96SAPI  H15X11149   2.627   4.824  11.672
   96SAPI  H15Y11150   2.582   4.690  11.780
   96SAPI  C31611151   2.476   4.875  11.819
   96SAPI  H16X11152   2.420   4.952  11.762
   96SAPI  H16Y11153   2.557   4.927  11.874
   96SAPI  C31711154   2.383   4.812  11.923
   96SAPI  H17X11155   2.299   4.760  11.871
   96SAPI  H17Y11156   2.339   4.894  11.984
   96SAPI  C31811157   2.454   4.715  12.017
   96SAPI  H18X11158   2.550   4.758  12.051
   96SAPI  H18Y11159   2.476   4.618  11.966
   96SAPI  H18Z11160   2.391   4.694  12.106
   97SOD    SOD11161   0.032   1.709   8.680
   98SOD    SOD11162   1.967   1.697  15.451
   99SOD    SOD11163   4.117   3.922   9.189
  100SOD    SOD11164   4.887   0.924   8.715
  101SOD    SOD11165   1.524   4.178   8.734
  102SOD    SOD11166   0.453   3.340   9.490
  103SOD    SOD11167   4.532   3.005  15.387
  104SOD    SOD11168   3.046   1.088  14.888
  105SOD    SOD11169   1.225   0.392  15.171
  106SOD    SOD11170   2.935   2.438   8.439
  107SOD    SOD11171   4.754   4.399   9.299
  108SOD    SOD11172   1.652   3.947  15.085
  109SOD    SOD11173   0.571   0.483   9.095
  110SOD    SOD11174   4.843   0.122   8.600
  111SOD    SOD11175   1.405   3.151  14.045
  112SOD    SOD11176   3.340   3.041  15.509
  113SOD    SOD11177   4.754   4.506  14.318
  114CLA    CLA11178   2.928   1.741   8.122
  115CLA    CLA11179   5.039   4.395   8.125
  116CLA    CLA11180   0.446   3.737  15.409
  117CLA    CLA11181   4.300   3.328  15.069
  118CLA    CLA11182   3.471   3.058  15.279
  119CLA    CLA11183   5.135   4.939   8.374
  120CLA    CLA11184   4.144   1.442   8.456
  121TIP3   OH211185   3.499   3.646  14.068
  121TIP3    H111186   3.437   3.620  14.136
  121TIP3    H211187   3.540   3.725  14.102
  122TIP3   OH211188   3.042   3.150  14.186
  122TIP3    H111189   3.068   3.058  14.180
  122TIP3    H211190   3.073   3.189  14.104
  123TIP3   OH211191   3.799   2.733  14.045
  123TIP3    H111192   3.732   2.666  14.061
  123TIP3    H211193   3.751   2.815  14.044
  124TIP3   OH211194   3.339   2.733  14.109
  124TIP3    H111195   3.270   2.796  14.129
  124TIP3    H211196   3.362   2.752  14.018
  125TIP3   OH211197   3.471   2.346  13.957
  125TIP3    H111198   3.492   2.253  13.948
  125TIP3    H211199   3.479   2.382  13.869
  126TIP3   OH211200   3.617   2.947  14.055
  126TIP3    H111201   3.599   3.038  14.029
  126TIP3    H211202   3.604   2.946  14.150
  127TIP3   OH211203   3.582   2.561  14.091
  127TIP3    H111204   3.508   2.620  14.109
  127TIP3    H211205   3.543   2.489  14.042
  128TIP3   OH211206   1.806   3.330  13.949
  128TIP3    H111207   1.862   3.320  14.025
  128TIP3    H211208   1.825   3.419  13.917
  129TIP3   OH211209   1.943   1.291  14.075
  129TIP3    H111210   1.882   1.340  14.019
  129TIP3    H211211   1.962   1.212  14.025
  130TIP3   OH211212   1.968   1.617  14.056
  130TIP3    H111213   2.017   1.549  14.104
  130TIP3    H211214   2.027   1.692  14.055
  131TIP3   OH211215   1.180   2.513  14.054
  131TIP3    H111216   1.255   2.467  14.091
  131TIP3    H211217   1.112   2.445  14.047
  132TIP3   OH211218   0.842   2.513  13.999
  132TIP3    H111219   0.833   2.440  14.060
  132TIP3    H211220   0.820   2.475  13.914
  133TIP3   OH211221   0.984   2.681  14.165
  133TIP3    H111222   1.065   2.640  14.135
  133TIP3    H211223   0.916   2.641  14.112
  134TIP3   OH211224   2.339   1.084  14.004
  134TIP3    H111225   2.388   1.082  13.922
  134TIP3    H211226   2.382   1.151  14.057
  135TIP3   OH211227   1.149   1.300  14.240
  135TIP3    H111228   1.227   1.347  14.212
  135TIP3    H211229   1.077   1.344  14.194
  136TIP3   OH211230   5.170   3.855  14.321
  136TIP3    H111231   0.056   3.804  14.295
  136TIP3    H211232   5.103   3.790  14.339
  137TIP3   OH211233   0.074   4.347  13.899
  137TIP3    H111234   5.182   4.303  13.914
  137TIP3    H211235   0.080   4.412  13.969
  138TIP3   OH211236   3.555   0.023  14.089
  138TIP3    H111237   3.589   0.065  14.010
  138TIP3    H211238   3.489   0.084  14.122
  139TIP3   OH211239   0.640   0.150  14.020
  139TIP3    H111240   0.618   0.107  13.938
  139TIP3    H211241   0.564   0.204  14.041
  140TIP3   OH211242   0.310   0.014  14.120
  140TIP3    H111243   0.370   5.172  14.186
  140TIP3    H211244   0.334   0.107  14.111
  141TIP3   OH211245   5.047   0.206  14.045
  141TIP3    H111246   4.960   0.222  14.008
  141TIP3    H211247   5.107   0.219  13.972
  142TIP3   OH211248   2.173   2.161  10.020
  142TIP3    H111249   2.158   2.198  10.107
  142TIP3    H211250   2.202   2.234   9.967
  143TIP3   OH211251   2.289   1.595  10.084
  143TIP3    H111252   2.279   1.690  10.095
  143TIP3    H211253   2.210   1.568  10.037
  144TIP3   OH211254   3.491   2.438  10.044
  144TIP3    H111255   3.452   2.523  10.065
  144TIP3    H211256   3.564   2.429  10.105
  145TIP3   OH211257   3.534   2.383   9.779
  145TIP3    H111258   3.513   2.389   9.872
  145TIP3    H211259   3.558   2.472   9.754
  146TIP3   OH211260   3.635   2.808   9.951
  146TIP3    H111261   3.636   2.746   9.878
  146TIP3    H211262   3.727   2.831   9.964
  147TIP3   OH211263   3.197   1.215   9.902
  147TIP3    H111264   3.226   1.298   9.863
  147TIP3    H211265   3.103   1.225   9.913
  148TIP3   OH211266   1.818   4.023   9.839
  148TIP3    H111267   1.855   3.950   9.788
  148TIP3    H211268   1.743   4.052   9.788
  149TIP3   OH211269   2.220   4.230   9.900
  149TIP3    H111270   2.304   4.247   9.857
  149TIP3    H211271   2.226   4.278   9.983
  150TIP3   OH211272   2.506   4.488  10.004
  150TIP3    H111273   2.572   4.428  10.040
  150TIP3    H211274   2.427   4.468  10.053
  151TIP3   OH211275   2.443   4.359   9.773
  151TIP3    H111276   2.385   4.420   9.727
  151TIP3    H211277   2.473   4.408   9.850
  152TIP3   OH211278   1.008   0.855  10.014
  152TIP3    H111279   1.058   0.833   9.935
  152TIP3    H211280   1.046   0.937  10.044
  153TIP3   OH211281   1.027   1.368  10.040
  153TIP3    H111282   1.057   1.449  10.081
  153TIP3    H211283   0.951   1.393   9.988
  154TIP3   OH211284   4.091   1.200   9.898
  154TIP3    H111285   4.131   1.274   9.853
  154TIP3    H211286   4.005   1.191   9.858
  155TIP3   OH211287   1.365   0.474   9.887
  155TIP3    H111288   1.375   0.540   9.819
  155TIP3    H211289   1.280   0.434   9.870
  156TIP3   OH211290   4.413   3.806   9.948
  156TIP3    H111291   4.465   3.814   9.868
  156TIP3    H211292   4.469   3.842  10.017
  157TIP3   OH211293   4.779   4.123  10.041
  157TIP3    H111294   4.717   4.143   9.971
  157TIP3    H211295   4.798   4.208  10.082
  158TIP3   OH211296   0.315   4.052   9.849
  158TIP3    H111297   0.265   4.023   9.926
  158TIP3    H211298   0.302   4.146   9.845
  159TIP3   OH211299   0.181   0.795   9.938
  159TIP3    H111300   0.205   0.856  10.008
  159TIP3    H211301   0.263   0.777   9.893
  160TIP3   OH211302   0.590   1.001   9.782
  160TIP3    H111303   0.542   1.076   9.816
  160TIP3    H211304   0.654   0.980   9.850
  161TIP3   OH211305   0.887   0.606   9.963
  161TIP3    H111306   0.910   0.538  10.025
  161TIP3    H211307   0.919   0.687  10.002
  162TIP3   OH211308   0.679   0.279   9.954
  162TIP3    H111309   0.610   0.295  10.018
  162TIP3    H211310   0.671   0.350   9.891
  163TIP3   OH211311   4.737   1.232   9.965
  163TIP3    H111312   4.686   1.313   9.965
  163TIP3    H211313   4.671   1.163   9.974
  164TIP3   OH211314   5.096   0.785   9.945
  164TIP3    H111315   5.070   0.877   9.955
  164TIP3    H211316   5.191   0.787   9.948
  165TIP3   OH211317   4.975   1.071   9.949
  165TIP3    H111318   5.037   1.100   9.883
  165TIP3    H211319   4.899   1.128   9.937
  166TIP3   OH211320   4.865   0.642   9.911
  166TIP3    H111321   4.950   0.685   9.917
  166TIP3    H211322   4.820   0.666   9.992
  167TIP3   OH211323   1.047   0.960  14.555
  167TIP3    H111324   1.072   1.052  14.539
  167TIP3    H211325   0.952   0.963  14.567
  168TIP3   OH211326   1.102   0.974  15.077
  168TIP3    H111327   1.121   0.923  15.155
  168TIP3    H211328   1.050   0.916  15.022
  169TIP3   OH211329   0.196   0.928  15.186
  169TIP3    H111330   0.207   0.836  15.213
  169TIP3    H211331   0.240   0.979  15.253
  170TIP3   OH211332   1.394   1.299  14.848
  170TIP3    H111333   1.380   1.214  14.890
  170TIP3    H211334   1.406   1.360  14.921
  171TIP3   OH211335   0.340   1.370  14.997
  171TIP3    H111336   0.285   1.294  14.978
  171TIP3    H211337   0.416   1.359  14.939
  172TIP3   OH211338   5.145   0.659  14.516
  172TIP3    H111339   5.163   0.753  14.523
  172TIP3    H211340   5.175   0.635  14.429
  173TIP3   OH211341   0.156   0.933  14.776
  173TIP3    H111342   0.139   0.844  14.807
  173TIP3    H211343   0.250   0.936  14.762
  174TIP3   OH211344   1.142   1.681  14.856
  174TIP3    H111345   1.192   1.653  14.780
  174TIP3    H211346   1.136   1.603  14.911
  175TIP3   OH211347   0.790   1.235  14.965
  175TIP3    H111348   0.813   1.187  14.885
  175TIP3    H211349   0.872   1.239  15.014
  176TIP3   OH211350   1.733   0.356  15.124
  176TIP3    H111351   1.733   0.429  15.185
  176TIP3    H211352   1.812   0.368  15.071
  177TIP3   OH211353   1.187   0.591  15.050
  177TIP3    H111354   1.112   0.636  15.011
  177TIP3    H211355   1.245   0.573  14.976
  178TIP3   OH211356   0.538   0.532  14.772
  178TIP3    H111357   0.485   0.602  14.735
  178TIP3    H211358   0.508   0.453  14.726
  179TIP3   OH211359   1.274   0.564  14.611
  179TIP3    H111360   1.318   0.538  14.692
  179TIP3    H211361   1.346   0.580  14.549
  180TIP3   OH211362   0.126   0.678  14.892
  180TIP3    H111363   0.214   0.662  14.926
  180TIP3    H211364   0.095   0.592  14.864
  181TIP3   OH211365   1.700   0.528  15.332
  181TIP3    H111366   1.658   0.612  15.313
  181TIP3    H211367   1.753   0.545  15.410
  182TIP3   OH211368   0.342   0.402  15.223
  182TIP3    H111369   0.325   0.470  15.159
  182TIP3    H211370   0.263   0.400  15.277
  183TIP3   OH211371   1.117   1.226  14.502
  183TIP3    H111372   1.123   1.248  14.409
  183TIP3    H211373   1.058   1.292  14.539
  184TIP3   OH211374   0.610   1.141  15.152
  184TIP3    H111375   0.553   1.212  15.182
  184TIP3    H211376   0.668   1.182  15.088
  185TIP3   OH211377   1.384   0.513  14.865
  185TIP3    H111378   1.404   0.421  14.881
  185TIP3    H211379   1.453   0.561  14.910
  186TIP3   OH211380   0.367   0.566  14.991
  186TIP3    H111381   0.413   0.616  15.057
  186TIP3    H211382   0.433   0.548  14.924
  187TIP3   OH211383   0.443   1.339  15.250
  187TIP3    H111384   0.412   1.363  15.163
  187TIP3    H211385   0.366   1.347  15.306
  188TIP3   OH211386   1.395   1.479  15.065
  188TIP3    H111387   1.299   1.478  15.068
  188TIP3    H211388   1.417   1.565  15.030
  189TIP3   OH211389   1.450   0.333  15.157
  189TIP3    H111390   1.449   0.237  15.153
  189TIP3    H211391   1.542   0.356  15.142
  190TIP3   OH211392   0.715   0.166  14.925
  190TIP3    H111393   0.691   0.075  14.945
  190TIP3    H211394   0.645   0.219  14.964
  191TIP3   OH211395   1.300   1.615  14.637
  191TIP3    H111396   1.318   1.524  14.614
  191TIP3    H211397   1.381   1.661  14.616
  192TIP3   OH211398   1.360   1.346  14.581
  192TIP3    H111399   1.278   1.301  14.563
  192TIP3    H211400   1.379   1.326  14.673
  193TIP3   OH211401   1.550   1.271  15.410
  193TIP3    H111402   1.538   1.217  15.332
  193TIP3    H211403   1.558   1.360  15.377
  194TIP3   OH211404   1.713   0.959  15.263
  194TIP3    H111405   1.645   1.022  15.240
  194TIP3    H211406   1.771   0.959  15.187
  195TIP3   OH211407   1.341   0.841  15.440
  195TIP3    H111408   1.327   0.924  15.484
  195TIP3    H211409   1.268   0.834  15.378
  196TIP3   OH211410   0.599   1.417  14.892
  196TIP3    H111411   0.623   1.445  14.804
  196TIP3    H211412   0.666   1.353  14.917
  197TIP3   OH211413   0.519   0.913  15.024
  197TIP3    H111414   0.485   0.938  14.938
  197TIP3    H211415   0.549   0.995  15.063
  198TIP3   OH211416   1.118   1.480  15.069
  198TIP3    H111417   1.051   1.536  15.110
  198TIP3    H211418   1.087   1.391  15.083
  199TIP3   OH211419   0.612   1.362  15.472
  199TIP3    H111420   0.549   1.420  15.515
  199TIP3    H211421   0.572   1.343  15.387
  200TIP3   OH211422   0.299   1.012  15.437
  200TIP3    H111423   0.308   1.095  15.483
  200TIP3    H211424   0.212   0.980  15.461
  201TIP3   OH211425   0.954   1.433  14.575
  201TIP3    H111426   0.876   1.454  14.627
  201TIP3    H211427   0.941   1.481  14.493
  202TIP3   OH211428   0.418   1.536  15.561
  202TIP3    H111429   0.449   1.602  15.498
  202TIP3    H211430   0.336   1.504  15.525
  203TIP3   OH211431   1.507   0.066  14.293
  203TIP3    H111432   1.440   0.123  14.331
  203TIP3    H211433   1.587   0.118  14.297
  204TIP3   OH211434   0.026   1.176  15.339
  204TIP3    H111435   5.180   1.158  15.252
  204TIP3    H211436   0.034   1.089  15.379
  205TIP3   OH211437   5.149   1.488  14.965
  205TIP3    H111438   0.015   1.494  15.041
  205TIP3    H211439   5.061   1.499  15.000
  206TIP3   OH211440   1.797   1.570  15.696
  206TIP3    H111441   1.791   1.482  15.657
  206TIP3    H211442   1.708   1.605  15.688
  207TIP3   OH211443   0.854   1.489  15.479
  207TIP3    H111444   0.834   1.568  15.529
  207TIP3    H211445   0.771   1.441  15.475
  208TIP3   OH211446   0.933   1.847  14.339
  208TIP3    H111447   0.978   1.848  14.255
  208TIP3    H211448   0.887   1.931  14.343
  209TIP3   OH211449   0.333   1.746  14.680
  209TIP3    H111450   0.341   1.707  14.768
  209TIP3    H211451   0.279   1.683  14.631
  210TIP3   OH211452   1.272   1.716  14.191
  210TIP3    H111453   1.203   1.758  14.140
  210TIP3    H211454   1.251   1.736  14.282
  211TIP3   OH211455   1.186   1.790  14.446
  211TIP3    H111456   1.093   1.809  14.437
  211TIP3    H211457   1.191   1.726  14.517
  212TIP3   OH211458   1.444   0.652  15.615
  212TIP3    H111459   1.403   0.707  15.548
  212TIP3    H211460   1.451   0.566  15.574
  213TIP3   OH211461   0.214   1.366  15.402
  213TIP3    H111462   0.213   1.348  15.496
  213TIP3    H211463   0.145   1.311  15.366
  214TIP3   OH211464   0.485   0.257  15.038
  214TIP3    H111465   0.418   0.213  14.986
  214TIP3    H211466   0.437   0.300  15.108
  215TIP3   OH211467   0.912   0.082  15.413
  215TIP3    H111468   0.882   0.088  15.504
  215TIP3    H211469   0.834   0.096  15.360
  216TIP3   OH211470   1.257   0.529  15.363
  216TIP3    H111471   1.200   0.501  15.434
  216TIP3    H211472   1.231   0.620  15.346
  217TIP3   OH211473   0.521   0.696  15.176
  217TIP3    H111474   0.502   0.735  15.262
  217TIP3    H211475   0.525   0.771  15.116
  218TIP3   OH211476   1.000   0.708  14.437
  218TIP3    H111477   1.028   0.796  14.465
  218TIP3    H211478   1.048   0.692  14.356
  219TIP3   OH211479   0.953   0.801  15.677
  219TIP3    H111480   0.918   0.713  15.662
  219TIP3    H211481   1.042   0.787  15.709
  220TIP3   OH211482   1.156   0.779  14.733
  220TIP3    H111483   1.123   0.845  14.672
  220TIP3    H211484   1.177   0.704  14.678
  221TIP3   OH211485   0.224   0.685  15.310
  221TIP3    H111486   0.272   0.688  15.393
  221TIP3    H211487   0.173   0.604  15.314
  222TIP3   OH211488   5.148   0.290  14.766
  222TIP3    H111489   0.036   0.321  14.809
  222TIP3    H211490   5.178   0.246  14.687
  223TIP3   OH211491   0.150   0.373  14.376
  223TIP3    H111492   0.243   0.377  14.356
  223TIP3    H211493   0.112   0.447  14.328
  224TIP3   OH211494   1.145   0.770  15.262
  224TIP3    H111495   1.163   0.717  15.184
  224TIP3    H211496   1.064   0.734  15.296
  225TIP3   OH211497   0.790   0.560  14.895
  225TIP3    H111498   0.705   0.550  14.853
  225TIP3    H211499   0.838   0.480  14.873
  226TIP3   OH211500   1.175   0.284  14.974
  226TIP3    H111501   1.090   0.302  14.934
  226TIP3    H211502   1.215   0.217  14.919
  227TIP3   OH211503   1.477   1.939  15.672
  227TIP3    H111504   1.508   1.958  15.584
  227TIP3    H211505   1.473   2.024  15.716
  228TIP3   OH211506   0.220   1.308  15.668
  228TIP3    H111507   0.295   1.272  15.715
  228TIP3    H211508   0.144   1.261  15.705
  229TIP3   OH211509   0.988   0.752  14.948
  229TIP3    H111510   1.031   0.764  14.863
  229TIP3    H211511   0.909   0.702  14.927
  230TIP3   OH211512   0.425   0.323  14.627
  230TIP3    H111513   0.367   0.247  14.636
  230TIP3    H211514   0.426   0.342  14.534
  231TIP3   OH211515   0.749   0.550  15.171
  231TIP3    H111516   0.672   0.607  15.171
  231TIP3    H211517   0.776   0.546  15.079
  232TIP3   OH211518   1.528   1.140  15.174
  232TIP3    H111519   1.592   1.197  15.131
  232TIP3    H211520   1.467   1.116  15.104
  233TIP3   OH211521   1.149   0.658  14.211
  233TIP3    H111522   1.120   0.702  14.132
  233TIP3    H211523   1.236   0.624  14.189
  234TIP3   OH211524   0.935   1.205  15.413
  234TIP3    H111525   0.979   1.164  15.488
  234TIP3    H211526   0.921   1.296  15.441
  235TIP3   OH211527   0.039   0.945  15.494
  235TIP3    H111528   0.031   0.944  15.589
  235TIP3    H211529   5.158   0.890  15.463
  236TIP3   OH211530   0.725   0.956  15.646
  236TIP3    H111531   0.722   0.966  15.551
  236TIP3    H211532   0.799   0.898  15.663
  237TIP3   OH211533   1.127   1.473  15.535
  237TIP3    H111534   1.036   1.482  15.506
  237TIP3    H211535   1.123   1.482  15.631
  238TIP3   OH211536   1.785   1.341  15.548
  238TIP3    H111537   1.699   1.316  15.514
  238TIP3    H211538   1.846   1.285  15.500
  239TIP3   OH211539   1.528   1.378  14.359
  239TIP3    H111540   1.478   1.373  14.441
  239TIP3    H211541   1.612   1.338  14.380
  240TIP3   OH211542   1.355   1.055  14.974
  240TIP3    H111543   1.266   1.030  15.000
  240TIP3    H211544   1.382   0.988  14.912
  241TIP3   OH211545   0.689   1.499  14.650
  241TIP3    H111546   0.659   1.581  14.612
  241TIP3    H211547   0.677   1.435  14.579
  242TIP3   OH211548   0.764   1.640  15.254
  242TIP3    H111549   0.827   1.711  15.238
  242TIP3    H211550   0.806   1.585  15.320
  243TIP3   OH211551   0.585   1.740  14.564
  243TIP3    H111552   0.500   1.751  14.607
  243TIP3    H211553   0.642   1.803  14.608
  244TIP3   OH211554   1.010   1.230  15.139
  244TIP3    H111555   0.986   1.220  15.232
  244TIP3    H211556   1.050   1.147  15.115
  245TIP3   OH211557   1.334   1.631  15.449
  245TIP3    H111558   1.268   1.570  15.482
  245TIP3    H211559   1.284   1.696  15.399
  246TIP3   OH211560   0.100   0.441  15.356
  246TIP3    H111561   0.035   0.479  15.415
  246TIP3    H211562   0.060   0.361  15.324
  247TIP3   OH211563   0.084   1.554  15.208
  247TIP3    H111564   0.154   1.508  15.255
  247TIP3    H211565   0.008   1.546  15.266
  248TIP3   OH211566   0.716   1.517  14.132
  248TIP3    H111567   0.640   1.464  14.158
  248TIP3    H211568   0.762   1.534  14.215
  249TIP3   OH211569   0.671   1.304  14.461
  249TIP3    H111570   0.578   1.308  14.435
  249TIP3    H211571   0.719   1.316  14.379
  250TIP3   OH211572   1.092   0.282  15.325
  250TIP3    H111573   1.089   0.326  15.410
  250TIP3    H211574   1.033   0.208  15.335
  251TIP3   OH211575   1.130   0.402  14.437
  251TIP3    H111576   1.119   0.454  14.358
  251TIP3    H211577   1.167   0.462  14.501
  252TIP3   OH211578   0.899   1.574  14.344
  252TIP3    H111579   0.907   1.669  14.350
  252TIP3    H211580   0.952   1.551  14.267
  253TIP3   OH211581   0.810   0.533  14.528
  253TIP3    H111582   0.879   0.589  14.494
  253TIP3    H211583   0.761   0.589  14.588
  254TIP3   OH211584   0.941   0.621  15.357
  254TIP3    H111585   0.906   0.590  15.441
  254TIP3    H211586   0.875   0.593  15.293
  255TIP3   OH211587   0.914   0.285  14.579
  255TIP3    H111588   0.863   0.364  14.562
  255TIP3    H211589   0.994   0.296  14.528
  256TIP3   OH211590   0.430   0.394  14.357
  256TIP3    H111591   0.421   0.488  14.369
  256TIP3    H211592   0.521   0.381  14.332
  257TIP3   OH211593   1.485   0.416  15.464
  257TIP3    H111594   1.410   0.443  15.412
  257TIP3    H211595   1.561   0.443  15.411
  258TIP3   OH211596   1.423   0.834  14.811
  258TIP3    H111597   1.335   0.801  14.796
  258TIP3    H211598   1.460   0.775  14.877
  259TIP3   OH211599   0.275   0.562  14.127
  259TIP3    H111600   0.347   0.624  14.138
  259TIP3    H211601   0.259   0.560  14.032
  260TIP3   OH211602   1.462   1.732  14.993
  260TIP3    H111603   1.425   1.782  14.920
  260TIP3    H211604   1.552   1.764  15.000
  261TIP3   OH211605   0.282   0.129  14.898
  261TIP3    H111606   0.267   0.101  14.807
  261TIP3    H211607   0.285   0.048  14.948
  262TIP3   OH211608   0.129   1.613  14.528
  262TIP3    H111609   0.082   1.633  14.609
  262TIP3    H211610   0.092   1.673  14.463
  263TIP3   OH211611   0.102   1.819  15.746
  263TIP3    H111612   0.179   1.829  15.802
  263TIP3    H211613   0.095   1.725  15.731
  264TIP3   OH211614   0.483   1.603  15.822
  264TIP3    H111615   0.564   1.557  15.840
  264TIP3    H211616   0.460   1.578  15.732
  265TIP3   OH211617   0.989   1.482  14.099
  265TIP3    H111618   0.897   1.485  14.075
  265TIP3    H211619   1.036   1.509  14.020
  266TIP3   OH211620   1.132   1.483  15.811
  266TIP3    H111621   1.114   1.393  15.838
  266TIP3    H211622   1.226   1.492  15.820
  267TIP3   OH211623   1.359   1.452  14.152
  267TIP3    H111624   1.427   1.439  14.218
  267TIP3    H211625   1.334   1.544  14.161
  268TIP3   OH211626   5.181   1.193  15.754
  268TIP3    H111627   5.180   1.099  15.772
  268TIP3    H211628   5.119   1.205  15.683
  269TIP3   OH211629   0.694   1.226  15.700
  269TIP3    H111630   0.674   1.261  15.613
  269TIP3    H211631   0.711   1.133  15.685
  270TIP3   OH211632   1.291   1.247  15.521
  270TIP3    H111633   1.374   1.270  15.481
  270TIP3    H211634   1.238   1.326  15.513
  271TIP3   OH211635   5.180   0.917  15.763
  271TIP3    H111636   0.058   0.856  15.787
  271TIP3    H211637   5.099   0.867  15.775
  272TIP3   OH211638   0.513   0.839  15.411
  272TIP3    H111639   0.436   0.896  15.423
  272TIP3    H211640   0.585   0.900  15.398
  273TIP3   OH211641   1.038   1.064  15.635
  273TIP3    H111642   1.132   1.047  15.638
  273TIP3    H211643   0.998   0.977  15.645
  274TIP3   OH211644   0.603   0.609  15.533
  274TIP3    H111645   0.590   0.536  15.472
  274TIP3    H211646   0.573   0.686  15.484
  275TIP3   OH211647   0.587   0.404  15.346
  275TIP3    H111648   0.646   0.437  15.278
  275TIP3    H211649   0.501   0.403  15.304
  276TIP3   OH211650   0.719   1.028  15.378
  276TIP3    H111651   0.797   1.083  15.386
  276TIP3    H211652   0.677   1.056  15.296
  277TIP3   OH211653   1.219   0.781  15.740
  277TIP3    H111654   1.290   0.719  15.723
  277TIP3    H211655   1.260   0.867  15.733
  278TIP3   OH211656   1.325   1.032  15.674
  278TIP3    H111657   1.308   1.114  15.627
  278TIP3    H211658   1.419   1.018  15.666
  279TIP3   OH211659   0.408   0.629  15.729
  279TIP3    H111660   0.369   0.542  15.718
  279TIP3    H211661   0.485   0.628  15.671
  280TIP3   OH211662   0.642   0.130  15.371
  280TIP3    H111663   0.617   0.223  15.367
  280TIP3    H211664   0.573   0.084  15.324
  281TIP3   OH211665   0.851   0.545  15.626
  281TIP3    H111666   0.831   0.474  15.686
  281TIP3    H211667   0.765   0.575  15.595
  282TIP3   OH211668   1.101   0.427  15.564
  282TIP3    H111669   1.020   0.468  15.592
  282TIP3    H211670   1.138   0.390  15.644
  283TIP3   OH211671   1.193   0.308  15.801
  283TIP3    H111672   1.187   0.213  15.796
  283TIP3    H211673   1.129   0.333  15.868
  284TIP3   OH211674   0.288   0.379  15.687
  284TIP3    H111675   0.283   0.308  15.624
  284TIP3    H211676   0.197   0.405  15.701
  285TIP3   OH211677   0.767   0.092  15.644
  285TIP3    H111678   0.745   0.025  15.708
  285TIP3    H211679   0.697   0.087  15.579
  286TIP3   OH211680   0.766   0.333  15.774
  286TIP3    H111681   0.781   0.251  15.727
  286TIP3    H211682   0.676   0.327  15.805
  287TIP3   OH211683   5.146   1.908  14.640
  287TIP3    H111684   5.082   1.892  14.571
  287TIP3    H211685   5.149   1.826  14.689
  288TIP3   OH211686   0.021   1.676  14.782
  288TIP3    H111687   5.187   1.598  14.831
  288TIP3    H211688   0.061   1.734  14.847
  289TIP3   OH211689   1.688   1.886  15.044
  289TIP3    H111690   1.739   1.912  15.120
  289TIP3    H211691   1.630   1.960  15.027
  290TIP3   OH211692   1.742   1.675  15.413
  290TIP3    H111693   1.694   1.620  15.351
  290TIP3    H211694   1.680   1.691  15.484
  291TIP3   OH211695   1.538   1.304  15.938
  291TIP3    H111696   1.456   1.255  15.937
  291TIP3    H211697   1.565   1.303  16.030
  292TIP3   OH211698   1.760   1.236  14.413
  292TIP3    H111699   1.848   1.268  14.395
  292TIP3    H211700   1.773   1.159  14.468
  293TIP3   OH211701   1.787   1.004  14.564
  293TIP3    H111702   1.719   0.939  14.581
  293TIP3    H211703   1.843   1.001  14.641
  294TIP3   OH211704   1.774   1.266  15.128
  294TIP3    H111705   1.809   1.189  15.081
  294TIP3    H211706   1.824   1.340  15.092
  295TIP3   OH211707   1.539   1.521  15.298
  295TIP3    H111708   1.465   1.564  15.343
  295TIP3    H211709   1.505   1.501  15.211
  296TIP3   OH211710   1.601   0.796  14.590
  296TIP3    H111711   1.555   0.731  14.537
  296TIP3    H211712   1.543   0.813  14.664
  297TIP3   OH211713   0.184   1.124  14.980
  297TIP3    H111714   0.169   1.073  14.901
  297TIP3    H211715   0.198   1.058  15.049
  298TIP3   OH211716   1.584   1.037  15.592
  298TIP3    H111717   1.633   0.958  15.568
  298TIP3    H211718   1.596   1.096  15.518
  299TIP3   OH211719   1.688   0.782  15.561
  299TIP3    H111720   1.603   0.746  15.585
  299TIP3    H211721   1.750   0.711  15.578
  300TIP3   OH211722   1.475   0.606  14.425
  300TIP3    H111723   1.520   0.523  14.441
  300TIP3    H211724   1.450   0.603  14.333
  301TIP3   OH211725   1.551   0.675  15.009
  301TIP3    H111726   1.646   0.674  15.004
  301TIP3    H211727   1.532   0.695  15.101
  302TIP3   OH211728   1.544   0.747  15.278
  302TIP3    H111729   1.473   0.781  15.333
  302TIP3    H211730   1.608   0.818  15.274
  303TIP3   OH211731   0.027   0.462  15.729
  303TIP3    H111732   5.170   0.493  15.652
  303TIP3    H211733   5.161   0.395  15.767
  304TIP3   OH211734   1.861   0.080  15.764
  304TIP3    H111735   1.946   0.081  15.720
  304TIP3    H211736   1.819   0.162  15.737
  305TIP3   OH211737   1.555   0.353  14.507
  305TIP3    H111738   1.597   0.309  14.581
  305TIP3    H211739   1.474   0.303  14.493
  306TIP3   OH211740   0.182   0.386  14.887
  306TIP3    H111741   0.217   0.298  14.899
  306TIP3    H211742   0.247   0.444  14.925
  307TIP3   OH211743   5.159   0.838  15.050
  307TIP3    H111744   0.015   0.786  14.985
  307TIP3    H211745   0.035   0.869  15.110
  308TIP3   OH211746   1.710   0.304  15.687
  308TIP3    H111747   1.631   0.321  15.739
  308TIP3    H211748   1.679   0.255  15.611
  309TIP3   OH211749   0.004   0.187  14.507
  309TIP3    H111750   5.103   0.209  14.493
  309TIP3    H211751   0.052   0.250  14.453
  310TIP3   OH211752   1.501   1.814  14.588
  310TIP3    H111753   1.465   1.865  14.516
  310TIP3    H211754   1.459   1.849  14.666
  311TIP3   OH211755   5.141   0.232  15.266
  311TIP3    H111756   5.114   0.140  15.265
  311TIP3    H211757   5.077   0.277  15.210
  312TIP3   OH211758   0.103   1.539  15.765
  312TIP3    H111759   0.145   1.468  15.717
  312TIP3    H211760   0.138   1.532  15.854
  313TIP3   OH211761   0.511   1.695  15.365
  313TIP3    H111762   0.476   1.772  15.322
  313TIP3    H211763   0.595   1.679  15.322
  314TIP3   OH211764   0.812   1.726  15.616
  314TIP3    H111765   0.833   1.697  15.704
  314TIP3    H211766   0.887   1.781  15.590
  315TIP3   OH211767   1.034   1.869  15.544
  315TIP3    H111768   1.087   1.841  15.470
  315TIP3    H211769   1.096   1.878  15.616
  316TIP3   OH211770   1.605   0.161  15.476
  316TIP3    H111771   1.538   0.229  15.464
  316TIP3    H211772   1.563   0.081  15.445
  317TIP3   OH211773   0.187   2.071  15.295
  317TIP3    H111774   0.099   2.102  15.273
  317TIP3    H211775   0.181   2.044  15.387
  318TIP3   OH211776   0.424   1.929  15.251
  318TIP3    H111777   0.335   1.962  15.264
  318TIP3    H211778   0.448   1.962  15.164
  319TIP3   OH211779   0.924   1.853  15.183
  319TIP3    H111780   0.876   1.875  15.103
  319TIP3    H211781   0.916   1.931  15.238
  320TIP3   OH211782   1.166   1.804  15.313
  320TIP3    H111783   1.092   1.811  15.253
  320TIP3    H211784   1.238   1.848  15.267
  321TIP3   OH211785   1.391   1.906  15.196
  321TIP3    H111786   1.420   1.983  15.147
  321TIP3    H211787   1.407   1.833  15.136
  322TIP3   OH211788   0.136   1.771  15.021
  322TIP3    H111789   0.101   1.719  15.094
  322TIP3    H211790   0.217   1.727  14.997
  323TIP3   OH211791   0.360   1.642  14.938
  323TIP3    H111792   0.346   1.550  14.960
  323TIP3    H211793   0.449   1.661  14.968
  324TIP3   OH211794   0.627   1.666  15.015
  324TIP3    H111795   0.628   1.583  14.968
  324TIP3    H211796   0.669   1.647  15.099
  325TIP3   OH211797   0.929   0.321  14.853
  325TIP3    H111798   0.860   0.263  14.886
  325TIP3    H211799   0.932   0.304  14.759
  326TIP3   OH211800   1.562   0.076  14.872
  326TIP3    H111801   1.620   0.123  14.812
  326TIP3    H211802   1.474   0.092  14.838
  327TIP3   OH211803   1.711   0.202  14.682
  327TIP3    H111804   1.764   0.140  14.633
  327TIP3    H211805   1.771   0.273  14.706
  328TIP3   OH211806   0.238   0.073  14.624
  328TIP3    H111807   0.175   0.134  14.585
  328TIP3    H211808   0.207   5.177  14.598
  329TIP3   OH211809   0.746   0.072  14.664
  329TIP3    H111810   0.801   0.132  14.613
  329TIP3    H211811   0.734   0.117  14.748
  330TIP3   OH211812   1.288   0.087  14.817
  330TIP3    H111813   1.272   0.058  14.727
  330TIP3    H211814   1.288   0.006  14.868
  331TIP3   OH211815   1.328   0.207  14.454
  331TIP3    H111816   1.254   0.266  14.441
  331TIP3    H211817   1.291   0.130  14.495
  332TIP3   OH211818   0.040   1.756  14.312
  332TIP3    H111819   0.074   1.732  14.225
  332TIP3    H211820   0.072   1.846  14.325
  333TIP3   OH211821   0.396   0.279  14.082
  333TIP3    H111822   0.345   0.321  14.013
  333TIP3    H211823   0.391   0.339  14.156
  334TIP3   OH211824   0.699   0.407  14.301
  334TIP3    H111825   0.701   0.471  14.230
  334TIP3    H211826   0.737   0.453  14.376
  335TIP3   OH211827   1.042   1.864  14.089
  335TIP3    H111828   1.004   1.952  14.086
  335TIP3    H211829   1.044   1.836  13.998
  336TIP3   OH211830   0.281   0.143  15.543
  336TIP3    H111831   0.241   0.073  15.491
  336TIP3    H211832   0.350   0.100  15.593
  337TIP3   OH211833   0.473   0.028  15.703
  337TIP3    H111834   0.490   0.104  15.758
  337TIP3    H211835   0.463   5.147  15.765
  338TIP3   OH211836   1.165   0.035  15.807
  338TIP3    H111837   1.092   5.189  15.856
  338TIP3    H211838   1.232   5.159  15.808
  339TIP3   OH211839   1.546   1.676  15.624
  339TIP3    H111840   1.475   1.656  15.562
  339TIP3    H211841   1.528   1.766  15.653
  340TIP3   OH211842   2.934   1.141  14.701
  340TIP3    H111843   2.927   1.234  14.682
  340TIP3    H211844   2.897   1.098  14.624
  341TIP3   OH211845   2.889   0.974  15.019
  341TIP3    H111846   2.913   0.933  15.102
  341TIP3    H211847   2.834   0.908  14.975
  342TIP3   OH211848   2.095   0.920  15.141
  342TIP3    H111849   2.090   0.830  15.172
  342TIP3    H211850   2.185   0.930  15.110
  343TIP3   OH211851   3.187   1.267  14.881
  343TIP3    H111852   3.201   1.299  14.791
  343TIP3    H211853   3.219   1.338  14.937
  344TIP3   OH211854   2.199   1.372  14.934
  344TIP3    H111855   2.175   1.286  14.899
  344TIP3    H211856   2.294   1.373  14.932
  345TIP3   OH211857   1.878   0.721  14.536
  345TIP3    H111858   1.894   0.806  14.496
  345TIP3    H211859   1.785   0.721  14.559
  346TIP3   OH211860   1.957   0.973  14.784
  346TIP3    H111861   1.986   0.885  14.807
  346TIP3    H211862   2.037   1.026  14.788
  347TIP3   OH211863   2.987   1.720  14.881
  347TIP3    H111864   3.061   1.678  14.836
  347TIP3    H211865   2.968   1.662  14.955
  348TIP3   OH211866   2.749   1.211  15.062
  348TIP3    H111867   2.788   1.128  15.037
  348TIP3    H211868   2.820   1.259  15.105
  349TIP3   OH211869   3.516   0.330  15.129
  349TIP3    H111870   3.540   0.403  15.187
  349TIP3    H211871   3.558   0.351  15.046
  350TIP3   OH211872   3.062   0.693  15.002
  350TIP3    H111873   3.074   0.599  15.016
  350TIP3    H211874   3.031   0.701  14.912
  351TIP3   OH211875   2.381   0.459  14.790
  351TIP3    H111876   2.386   0.546  14.751
  351TIP3    H211877   2.336   0.406  14.725
  352TIP3   OH211878   3.106   0.510  14.585
  352TIP3    H111879   3.179   0.496  14.645
  352TIP3    H211880   3.142   0.565  14.516
  353TIP3   OH211881   2.034   0.718  14.870
  353TIP3    H111882   2.100   0.674  14.924
  353TIP3    H211883   2.040   0.675  14.785
  354TIP3   OH211884   2.506   0.873  14.830
  354TIP3    H111885   2.593   0.833  14.841
  354TIP3    H211886   2.458   0.811  14.775
  355TIP3   OH211887   3.588   0.531  15.299
  355TIP3    H111888   3.525   0.603  15.305
  355TIP3    H211889   3.637   0.535  15.380
  356TIP3   OH211890   2.251   0.394  15.221
  356TIP3    H111891   2.225   0.454  15.151
  356TIP3    H211892   2.179   0.400  15.285
  357TIP3   OH211893   2.904   1.399  14.615
  357TIP3    H111894   2.811   1.376  14.616
  357TIP3    H211895   2.905   1.495  14.617
  358TIP3   OH211896   2.501   1.150  15.156
  358TIP3    H111897   2.459   1.231  15.184
  358TIP3    H211898   2.582   1.179  15.114
  359TIP3   OH211899   3.255   0.496  14.836
  359TIP3    H111900   3.191   0.451  14.892
  359TIP3    H211901   3.330   0.512  14.894
  360TIP3   OH211902   2.223   0.552  14.997
  360TIP3    H111903   2.283   0.610  15.044
  360TIP3    H211904   2.276   0.513  14.928
  361TIP3   OH211905   2.384   1.371  15.266
  361TIP3    H111906   2.383   1.466  15.264
  361TIP3    H211907   2.294   1.347  15.287
  362TIP3   OH211908   2.029   1.323  14.334
  362TIP3    H111909   1.993   1.317  14.246
  362TIP3    H211910   2.108   1.270  14.332
  363TIP3   OH211911   3.244   1.492  15.035
  363TIP3    H111912   3.152   1.514  15.050
  363TIP3    H211913   3.279   1.567  14.986
  364TIP3   OH211914   3.256   0.271  15.190
  364TIP3    H111915   3.206   0.319  15.124
  364TIP3    H211916   3.347   0.281  15.164
  365TIP3   OH211917   2.600   0.168  14.920
  365TIP3    H111918   2.589   0.074  14.906
  365TIP3    H211919   2.525   0.193  14.975
  366TIP3   OH211920   3.194   1.601  14.749
  366TIP3    H111921   3.202   1.519  14.702
  366TIP3    H211922   3.225   1.667  14.687
  367TIP3   OH211923   3.194   1.355  14.616
  367TIP3    H111924   3.243   1.317  14.544
  367TIP3    H211925   3.102   1.353  14.588
  368TIP3   OH211926   3.409   1.281  15.354
  368TIP3    H111927   3.391   1.219  15.283
  368TIP3    H211928   3.428   1.364  15.310
  369TIP3   OH211929   2.840   1.096  14.452
  369TIP3    H111930   2.765   1.105  14.394
  369TIP3    H211931   2.916   1.092  14.394
  370TIP3   OH211932   2.839   0.889  14.251
  370TIP3    H111933   2.914   0.946  14.233
  370TIP3    H211934   2.763   0.946  14.241
  371TIP3   OH211935   3.532   0.979  15.265
  371TIP3    H111936   3.463   1.028  15.221
  371TIP3    H211937   3.608   0.988  15.208
  372TIP3   OH211938   3.232   0.972  14.465
  372TIP3    H111939   3.150   0.938  14.500
  372TIP3    H211940   3.284   0.894  14.446
  373TIP3   OH211941   3.174   0.789  15.438
  373TIP3    H111942   3.177   0.870  15.488
  373TIP3    H211943   3.107   0.805  15.371
  374TIP3   OH211944   2.459   1.122  14.717
  374TIP3    H111945   2.423   1.095  14.632
  374TIP3    H211946   2.492   1.041  14.755
  375TIP3   OH211947   2.468   1.418  14.875
  375TIP3    H111948   2.442   1.440  14.786
  375TIP3    H211949   2.535   1.351  14.865
  376TIP3   OH211950   2.350   0.962  15.032
  376TIP3    H111951   2.406   0.937  14.958
  376TIP3    H211952   2.398   1.030  15.077
  377TIP3   OH211953   2.986   1.553  15.111
  377TIP3    H111954   2.983   1.613  15.186
  377TIP3    H211955   2.963   1.468  15.147
  378TIP3   OH211956   2.523   1.366  15.507
  378TIP3    H111957   2.456   1.423  15.544
  378TIP3    H211958   2.489   1.342  15.421
  379TIP3   OH211959   3.052   1.072  14.272
  379TIP3    H111960   3.125   1.048  14.329
  379TIP3    H211961   3.092   1.090  14.187
  380TIP3   OH211962   2.196   0.970  15.485
  380TIP3    H111963   2.176   1.043  15.543
  380TIP3    H211964   2.111   0.943  15.449
  381TIP3   OH211965   2.894   1.673  14.608
  381TIP3    H111966   2.910   1.703  14.697
  381TIP3    H211967   2.861   1.750  14.562
  382TIP3   OH211968   2.334   1.554  15.570
  382TIP3    H111969   2.351   1.593  15.484
  382TIP3    H211970   2.239   1.551  15.577
  383TIP3   OH211971   3.393   0.220  14.193
  383TIP3    H111972   3.302   0.191  14.184
  383TIP3    H211973   3.406   0.225  14.288
  384TIP3   OH211974   2.345   1.018  14.495
  384TIP3    H111975   2.311   1.067  14.421
  384TIP3    H211976   2.368   0.932  14.459
  385TIP3   OH211977   1.908   1.175  15.358
  385TIP3    H111978   1.854   1.200  15.283
  385TIP3    H211979   1.909   1.079  15.355
  386TIP3   OH211980   1.947   1.464  15.030
  386TIP3    H111981   2.027   1.433  14.988
  386TIP3    H211982   1.910   1.527  14.968
  387TIP3   OH211983   3.692   1.601  15.571
  387TIP3    H111984   3.686   1.514  15.533
  387TIP3    H211985   3.606   1.615  15.612
  388TIP3   OH211986   2.750   1.516  15.478
  388TIP3    H111987   2.732   1.594  15.531
  388TIP3    H211988   2.669   1.465  15.483
  389TIP3   OH211989   2.813   1.893  14.454
  389TIP3    H111990   2.736   1.863  14.407
  389TIP3    H211991   2.787   1.976  14.494
  390TIP3   OH211992   2.146   1.747  14.680
  390TIP3    H111993   2.188   1.711  14.758
  390TIP3    H211994   2.133   1.672  14.622
  391TIP3   OH211995   3.085   1.989  14.492
  391TIP3    H111996   2.998   1.951  14.480
  391TIP3    H211997   3.138   1.918  14.528
  392TIP3   OH211998   3.373   0.626  15.564
  392TIP3    H111999   3.304   0.679  15.524
  392TIP3    H212000   3.365   0.541  15.521
  393TIP3   OH212001   2.136   1.326  15.371
  393TIP3    H112002   2.157   1.305  15.462
  393TIP3    H212003   2.062   1.269  15.350
  394TIP3   OH212004   2.358   0.186  15.078
  394TIP3    H112005   2.298   0.182  15.004
  394TIP3    H212006   2.323   0.256  15.133
  395TIP3   OH212007   2.869   0.164  15.417
  395TIP3    H112008   2.828   0.181  15.503
  395TIP3    H212009   2.795   0.144  15.360
  396TIP3   OH212010   3.064   0.527  15.496
  396TIP3    H112011   3.040   0.506  15.586
  396TIP3    H212012   3.088   0.620  15.498
  397TIP3   OH212013   2.389   0.716  15.147
  397TIP3    H112014   2.390   0.740  15.239
  397TIP3    H212015   2.377   0.799  15.101
  398TIP3   OH212016   2.340   0.707  14.679
  398TIP3    H112017   2.248   0.683  14.670
  398TIP3    H212018   2.367   0.732  14.590
  399TIP3   OH212019   2.988   0.826  14.497
  399TIP3    H112020   2.924   0.852  14.431
  399TIP3    H212021   3.049   0.769  14.450
  400TIP3   OH212022   2.861   0.807  15.657
  400TIP3    H112023   2.817   0.727  15.628
  400TIP3    H212024   2.940   0.776  15.700
  401TIP3   OH212025   2.969   0.696  14.740
  401TIP3    H112026   2.966   0.759  14.668
  401TIP3    H212027   3.002   0.616  14.700
  402TIP3   OH212028   2.016   0.675  15.258
  402TIP3    H112029   1.992   0.738  15.326
  402TIP3    H212030   2.024   0.592  15.305
  403TIP3   OH212031   2.337   0.325  13.962
  403TIP3    H112032   2.314   0.405  14.009
  403TIP3    H212033   2.258   0.301  13.915
  404TIP3   OH212034   1.880   0.403  14.751
  404TIP3    H112035   1.907   0.402  14.843
  404TIP3    H212036   1.939   0.465  14.709
  405TIP3   OH212037   1.834   0.397  14.173
  405TIP3    H112038   1.904   0.436  14.121
  405TIP3    H212039   1.757   0.451  14.155
  406TIP3   OH212040   2.979   0.809  15.236
  406TIP3    H112041   3.013   0.763  15.159
  406TIP3    H212042   2.907   0.754  15.267
  407TIP3   OH212043   2.662   0.439  14.721
  407TIP3    H112044   2.582   0.431  14.773
  407TIP3    H212045   2.730   0.400  14.775
  408TIP3   OH212046   2.086   0.577  14.643
  408TIP3    H112047   2.024   0.614  14.580
  408TIP3    H212048   2.130   0.506  14.595
  409TIP3   OH212049   2.417   0.750  14.420
  409TIP3    H112050   2.475   0.674  14.424
  409TIP3    H212051   2.415   0.773  14.327
  410TIP3   OH212052   3.057   0.412  15.028
  410TIP3    H112053   3.021   0.406  15.117
  410TIP3    H212054   2.989   0.375  14.972
  411TIP3   OH212055   2.418   0.827  14.158
  411TIP3    H112056   2.388   0.791  14.075
  411TIP3    H212057   2.444   0.917  14.137
  412TIP3   OH212058   3.418   1.908  15.717
  412TIP3    H112059   3.443   1.939  15.630
  412TIP3    H212060   3.492   1.932  15.774
  413TIP3   OH212061   2.155   1.274  15.640
  413TIP3    H112062   2.227   1.261  15.702
  413TIP3    H212063   2.088   1.213  15.668
  414TIP3   OH212064   2.751   0.760  14.902
  414TIP3    H112065   2.814   0.725  14.839
  414TIP3    H212066   2.719   0.683  14.950
  415TIP3   OH212067   2.241   0.353  14.571
  415TIP3    H112068   2.186   0.275  14.576
  415TIP3    H212069   2.307   0.332  14.505
  416TIP3   OH212070   2.630   0.590  15.091
  416TIP3    H112071   2.549   0.639  15.105
  416TIP3    H212072   2.685   0.612  15.166
  417TIP3   OH212073   3.340   1.121  15.135
  417TIP3    H112074   3.398   1.179  15.085
  417TIP3    H212075   3.292   1.072  15.068
  418TIP3   OH212076   2.798   1.218  15.442
  418TIP3    H112077   2.852   1.169  15.505
  418TIP3    H212078   2.791   1.305  15.480
  419TIP3   OH212079   2.199   1.108  14.841
  419TIP3    H112080   2.271   1.119  14.779
  419TIP3    H212081   2.236   1.054  14.911
  420TIP3   OH212082   1.936   0.874  15.436
  420TIP3    H112083   1.941   0.852  15.529
  420TIP3    H212084   1.842   0.879  15.418
  421TIP3   OH212085   2.629   0.962  15.653
  421TIP3    H112086   2.612   0.971  15.559
  421TIP3    H212087   2.706   0.905  15.658
  422TIP3   OH212088   3.026   1.520  15.517
  422TIP3    H112089   2.935   1.522  15.489
  422TIP3    H212090   3.021   1.513  15.613
  423TIP3   OH212091   3.654   1.348  15.470
  423TIP3    H112092   3.564   1.323  15.452
  423TIP3    H212093   3.707   1.291  15.414
  424TIP3   OH212094   3.488   1.552  14.382
  424TIP3    H112095   3.445   1.470  14.359
  424TIP3    H212096   3.579   1.541  14.353
  425TIP3   OH212097   3.201   0.936  14.963
  425TIP3    H112098   3.160   0.859  15.002
  425TIP3    H212099   3.264   0.900  14.900
  426TIP3   OH212100   2.393   1.490  14.619
  426TIP3    H112101   2.415   1.581  14.599
  426TIP3    H212102   2.310   1.475  14.573
  427TIP3   OH212103   2.633   1.336  14.638
  427TIP3    H112104   2.560   1.390  14.608
  427TIP3    H212105   2.595   1.250  14.652
  428TIP3   OH212106   2.658   1.651  15.242
  428TIP3    H112107   2.709   1.731  15.227
  428TIP3    H212108   2.710   1.602  15.306
  429TIP3   OH212109   2.421   1.757  14.566
  429TIP3    H112110   2.330   1.783  14.551
  429TIP3    H212111   2.460   1.832  14.613
  430TIP3   OH212112   2.953   1.302  15.231
  430TIP3    H112113   2.889   1.270  15.295
  430TIP3    H212114   3.038   1.285  15.271
  431TIP3   OH212115   3.223   1.338  14.183
  431TIP3    H112116   3.262   1.305  14.263
  431TIP3    H212117   3.205   1.260  14.130
  432TIP3   OH212118   3.249   1.662  15.428
  432TIP3    H112119   3.163   1.625  15.449
  432TIP3    H212120   3.229   1.736  15.371
  433TIP3   OH212121   3.675   1.913  14.263
  433TIP3    H112122   3.714   1.849  14.204
  433TIP3    H212123   3.667   1.992  14.210
  434TIP3   OH212124   2.040   0.428  15.394
  434TIP3    H112125   2.058   0.414  15.487
  434TIP3    H212126   1.973   0.363  15.373
  435TIP3   OH212127   3.348   1.220  14.408
  435TIP3    H112128   3.313   1.135  14.433
  435TIP3    H212129   3.440   1.203  14.390
  436TIP3   OH212130   2.035   1.564  15.272
  436TIP3    H112131   1.991   1.531  15.193
  436TIP3    H212132   2.080   1.488  15.308
  437TIP3   OH212133   2.258   1.169  14.273
  437TIP3    H112134   2.237   1.117  14.196
  437TIP3    H212135   2.339   1.215  14.250
  438TIP3   OH212136   2.957   0.393  15.285
  438TIP3    H112137   3.002   0.436  15.357
  438TIP3    H212138   2.934   0.306  15.319
  439TIP3   OH212139   2.942   0.307  14.487
  439TIP3    H112140   2.895   0.340  14.411
  439TIP3    H212141   2.986   0.383  14.524
  440TIP3   OH212142   2.597   0.535  14.469
  440TIP3    H112143   2.676   0.581  14.439
  440TIP3    H212144   2.620   0.503  14.556
  441TIP3   OH212145   2.795   0.617  15.310
  441TIP3    H112146   2.769   0.611  15.402
  441TIP3    H212147   2.842   0.536  15.293
  442TIP3   OH212148   2.871   0.054  14.583
  442TIP3    H112149   2.907   0.071  14.670
  442TIP3    H212150   2.883   0.136  14.535
  443TIP3   OH212151   2.573   1.812  14.338
  443TIP3    H112152   2.501   1.847  14.285
  443TIP3    H212153   2.531   1.772  14.413
  444TIP3   OH212154   2.453   0.305  14.391
  444TIP3    H112155   2.496   0.389  14.409
  444TIP3    H212156   2.522   0.250  14.355
  445TIP3   OH212157   3.298   0.391  15.442
  445TIP3    H112158   3.208   0.421  15.455
  445TIP3    H212159   3.294   0.340  15.361
  446TIP3   OH212160   3.343   0.764  14.807
  446TIP3    H112161   3.289   0.692  14.774
  446TIP3    H212162   3.388   0.726  14.883
  447TIP3   OH212163   1.885   0.606  13.985
  447TIP3    H112164   1.795   0.605  14.019
  447TIP3    H212165   1.887   0.536  13.920
  448TIP3   OH212166   3.360   1.745  14.999
  448TIP3    H112167   3.342   1.808  14.929
  448TIP3    H212168   3.453   1.756  15.018
  449TIP3   OH212169   2.144   0.174  14.887
  449TIP3    H112170   2.114   0.181  14.796
  449TIP3    H212171   2.180   0.086  14.894
  450TIP3   OH212172   2.130   1.542  14.490
  450TIP3    H112173   2.089   1.468  14.446
  450TIP3    H212174   2.110   1.617  14.434
  451TIP3   OH212175   1.951   1.801  15.671
  451TIP3    H112176   2.030   1.800  15.725
  451TIP3    H212177   1.896   1.731  15.707
  452TIP3   OH212178   2.396   1.635  15.825
  452TIP3    H112179   2.469   1.585  15.861
  452TIP3    H212180   2.386   1.604  15.735
  453TIP3   OH212181   3.009   1.479  15.791
  453TIP3    H112182   2.992   1.388  15.816
  453TIP3    H212183   3.101   1.493  15.815
  454TIP3   OH212184   1.978   1.083  15.711
  454TIP3    H112185   1.978   0.988  15.713
  454TIP3    H212186   1.894   1.108  15.750
  455TIP3   OH212187   2.626   1.230  15.722
  455TIP3    H112188   2.600   1.269  15.638
  455TIP3    H212189   2.635   1.136  15.702
  456TIP3   OH212190   3.150   1.280  15.438
  456TIP3    H112191   3.242   1.294  15.415
  456TIP3    H212192   3.119   1.366  15.469
  457TIP3   OH212193   1.995   0.805  15.698
  457TIP3    H112194   2.087   0.780  15.713
  457TIP3    H212195   1.946   0.752  15.761
  458TIP3   OH212196   2.410   0.822  15.399
  458TIP3    H112197   2.334   0.870  15.431
  458TIP3    H212198   2.480   0.887  15.396
  459TIP3   OH212199   2.940   1.064  15.619
  459TIP3    H112200   3.032   1.053  15.594
  459TIP3    H212201   2.908   0.974  15.630
  460TIP3   OH212202   2.451   0.569  15.504
  460TIP3    H112203   2.470   0.513  15.429
  460TIP3    H212204   2.431   0.654  15.466
  461TIP3   OH212205   2.516   0.412  15.281
  461TIP3    H112206   2.559   0.449  15.204
  461TIP3    H212207   2.424   0.405  15.255
  462TIP3   OH212208   2.599   1.030  15.384
  462TIP3    H112209   2.672   1.091  15.398
  462TIP3    H212210   2.557   1.060  15.304
  463TIP3   OH212211   3.096   0.707  15.764
  463TIP3    H112212   3.064   0.617  15.773
  463TIP3    H212213   3.183   0.706  15.805
  464TIP3   OH212214   3.210   1.041  15.564
  464TIP3    H112215   3.195   1.122  15.514
  464TIP3    H212216   3.304   1.029  15.563
  465TIP3   OH212217   2.313   0.494  15.732
  465TIP3    H112218   2.230   0.459  15.701
  465TIP3    H212219   2.359   0.521  15.653
  466TIP3   OH212220   2.592   0.156  15.358
  466TIP3    H112221   2.569   0.245  15.332
  466TIP3    H212222   2.530   0.100  15.311
  467TIP3   OH212223   2.717   0.588  15.576
  467TIP3    H112224   2.731   0.518  15.641
  467TIP3    H212225   2.622   0.586  15.561
  468TIP3   OH212226   2.999   0.454  15.754
  468TIP3    H112227   2.906   0.435  15.763
  468TIP3    H212228   3.043   0.381  15.798
  469TIP3   OH212229   3.102   0.237  15.886
  469TIP3    H112230   3.089   0.152  15.845
  469TIP3    H212231   3.073   0.224  15.977
  470TIP3   OH212232   2.062   0.378  15.667
  470TIP3    H112233   2.081   0.285  15.654
  470TIP3    H212234   2.014   0.380  15.750
  471TIP3   OH212235   2.683   0.163  15.623
  471TIP3    H112236   2.657   0.092  15.682
  471TIP3    H212237   2.631   0.148  15.544
  472TIP3   OH212238   2.735   0.389  15.765
  472TIP3    H112239   2.717   0.307  15.719
  472TIP3    H212240   2.662   0.399  15.826
  473TIP3   OH212241   1.755   1.865  14.700
  473TIP3    H112242   1.681   1.828  14.652
  473TIP3    H212243   1.788   1.793  14.753
  474TIP3   OH212244   1.855   1.710  14.916
  474TIP3    H112245   1.788   1.763  14.958
  474TIP3    H212246   1.937   1.737  14.958
  475TIP3   OH212247   3.617   1.788  15.088
  475TIP3    H112248   3.608   1.787  15.183
  475TIP3    H212249   3.695   1.841  15.071
  476TIP3   OH212250   3.573   1.727  15.350
  476TIP3    H112251   3.525   1.652  15.315
  476TIP3    H212252   3.630   1.690  15.417
  477TIP3   OH212253   3.395   1.287  15.918
  477TIP3    H112254   3.322   1.229  15.896
  477TIP3    H212255   3.426   1.256  16.003
  478TIP3   OH212256   3.619   1.140  14.356
  478TIP3    H112257   3.683   1.191  14.306
  478TIP3    H212258   3.668   1.106  14.430
  479TIP3   OH212259   3.720   0.983  14.566
  479TIP3    H112260   3.647   0.924  14.586
  479TIP3    H212261   3.764   0.996  14.650
  480TIP3   OH212262   3.558   1.270  15.064
  480TIP3    H112263   3.631   1.209  15.060
  480TIP3    H212264   3.598   1.356  15.058
  481TIP3   OH212265   3.412   1.531  15.250
  481TIP3    H112266   3.346   1.572  15.306
  481TIP3    H212267   3.367   1.515  15.167
  482TIP3   OH212268   3.580   0.885  14.259
  482TIP3    H112269   3.527   0.850  14.331
  482TIP3    H212270   3.594   0.977  14.283
  483TIP3   OH212271   3.532   0.786  14.610
  483TIP3    H112272   3.476   0.766  14.535
  483TIP3    H212273   3.472   0.788  14.684
  484TIP3   OH212274   1.869   1.026  15.041
  484TIP3    H112275   1.876   1.011  14.947
  484TIP3    H212276   1.951   0.993  15.077
  485TIP3   OH212277   3.482   1.000  15.543
  485TIP3    H112278   3.532   0.921  15.566
  485TIP3    H212279   3.504   1.015  15.451
  486TIP3   OH212280   3.616   0.755  15.556
  486TIP3    H112281   3.530   0.714  15.557
  486TIP3    H212282   3.678   0.683  15.567
  487TIP3   OH212283   3.440   0.634  15.024
  487TIP3    H112284   3.535   0.645  15.022
  487TIP3    H212285   3.416   0.657  15.114
  488TIP3   OH212286   3.403   0.737  15.280
  488TIP3    H112287   3.322   0.756  15.327
  488TIP3    H212288   3.451   0.819  15.280
  489TIP3   OH212289   1.820   0.540  15.584
  489TIP3    H112290   1.913   0.525  15.602
  489TIP3    H212291   1.776   0.465  15.623
  490TIP3   OH212292   3.716   0.210  15.783
  490TIP3    H112293   3.669   0.129  15.802
  490TIP3    H212294   3.660   0.257  15.721
  491TIP3   OH212295   3.433   0.229  14.477
  491TIP3    H112296   3.451   0.241  14.570
  491TIP3    H212297   3.339   0.212  14.472
  492TIP3   OH212298   1.993   0.380  15.002
  492TIP3    H112299   2.040   0.301  14.975
  492TIP3    H212300   2.061   0.448  15.007
  493TIP3   OH212301   1.824   0.683  15.050
  493TIP3    H112302   1.883   0.702  14.977
  493TIP3    H212303   1.883   0.675  15.126
  494TIP3   OH212304   3.548   0.335  15.603
  494TIP3    H112305   3.468   0.336  15.656
  494TIP3    H212306   3.528   0.278  15.529
  495TIP3   OH212307   3.536   0.450  14.124
  495TIP3    H112308   3.494   0.364  14.130
  495TIP3    H212309   3.604   0.448  14.191
  496TIP3   OH212310   1.735   0.215  14.346
  496TIP3    H112311   1.684   0.274  14.400
  496TIP3    H212312   1.782   0.273  14.286
  497TIP3   OH212313   3.277   1.828  14.610
  497TIP3    H112314   3.356   1.825  14.556
  497TIP3    H212315   3.304   1.876  14.689
  498TIP3   OH212316   1.846   0.237  15.353
  498TIP3    H112317   1.772   0.201  15.402
  498TIP3    H212318   1.810   0.258  15.267
  499TIP3   OH212319   2.055   1.528  15.597
  499TIP3    H112320   1.976   1.531  15.652
  499TIP3    H212321   2.087   1.438  15.607
  500TIP3   OH212322   2.395   1.643  15.319
  500TIP3    H112323   2.361   1.732  15.303
  500TIP3    H212324   2.487   1.648  15.292
  501TIP3   OH212325   2.712   1.741  15.633
  501TIP3    H112326   2.729   1.705  15.721
  501TIP3    H212327   2.793   1.787  15.610
  502TIP3   OH212328   2.945   1.856  15.551
  502TIP3    H112329   2.976   1.815  15.470
  502TIP3    H212330   3.020   1.852  15.610
  503TIP3   OH212331   3.504   0.092  15.467
  503TIP3    H112332   3.447   0.029  15.422
  503TIP3    H212333   3.499   0.067  15.560
  504TIP3   OH212334   2.028   1.905  15.363
  504TIP3    H112335   1.952   1.935  15.312
  504TIP3    H212336   2.058   1.983  15.408
  505TIP3   OH212337   2.306   1.899  15.286
  505TIP3    H112338   2.211   1.899  15.296
  505TIP3    H212339   2.321   1.946  15.203
  506TIP3   OH212340   2.778   1.894  15.184
  506TIP3    H112341   2.722   1.920  15.110
  506TIP3    H212342   2.777   1.970  15.242
  507TIP3   OH212343   2.996   1.769  15.291
  507TIP3    H112344   2.924   1.815  15.246
  507TIP3    H212345   3.075   1.809  15.256
  508TIP3   OH212346   3.244   1.858  15.220
  508TIP3    H112347   3.271   1.948  15.200
  508TIP3    H212348   3.279   1.805  15.149
  509TIP3   OH212349   2.075   1.771  15.076
  509TIP3    H112350   2.069   1.714  15.153
  509TIP3    H212351   2.142   1.731  15.021
  510TIP3   OH212352   2.254   1.647  14.918
  510TIP3    H112353   2.240   1.552  14.915
  510TIP3    H212354   2.347   1.657  14.936
  511TIP3   OH212355   2.525   1.663  14.997
  511TIP3    H112356   2.525   1.579  14.952
  511TIP3    H212357   2.573   1.648  15.078
  512TIP3   OH212358   2.849   0.288  14.887
  512TIP3    H112359   2.766   0.245  14.910
  512TIP3    H212360   2.906   0.216  14.858
  513TIP3   OH212361   3.406   0.022  14.830
  513TIP3    H112362   3.460   0.096  14.804
  513TIP3    H212363   3.344   0.011  14.758
  514TIP3   OH212364   3.558   0.231  14.728
  514TIP3    H112365   3.635   0.225  14.671
  514TIP3    H212366   3.581   0.300  14.791
  515TIP3   OH212367   2.086   0.124  14.614
  515TIP3    H112368   2.006   0.088  14.577
  515TIP3    H212369   2.153   0.059  14.595
  516TIP3   OH212370   2.546   0.108  14.625
  516TIP3    H112371   2.597   0.128  14.547
  516TIP3    H212372   2.583   0.163  14.694
  517TIP3   OH212373   3.019   0.076  14.820
  517TIP3    H112374   3.088   0.058  14.755
  517TIP3    H212375   3.046   0.028  14.898
  518TIP3   OH212376   3.170   0.164  14.440
  518TIP3    H112377   3.163   0.145  14.347
  518TIP3    H212378   3.092   0.215  14.461
  519TIP3   OH212379   2.078   1.779  14.349
  519TIP3    H112380   2.095   1.779  14.255
  519TIP3    H212381   2.124   1.856  14.382
  520TIP3   OH212382   3.507   1.813  14.456
  520TIP3    H112383   3.495   1.722  14.429
  520TIP3    H212384   3.556   1.853  14.385
  521TIP3   OH212385   2.116   0.108  15.634
  521TIP3    H112386   2.115   0.065  15.548
  521TIP3    H212387   2.194   0.074  15.676
  522TIP3   OH212388   2.351   5.178  15.736
  522TIP3    H112389   2.434   0.011  15.778
  522TIP3    H212390   2.325   5.097  15.780
  523TIP3   OH212391   2.136   1.833  14.082
  523TIP3    H112392   2.211   1.857  14.138
  523TIP3    H212393   2.147   1.886  14.003
  524TIP3   OH212394   3.074   5.173  15.797
  524TIP3    H112395   3.002   5.129  15.843
  524TIP3    H212396   3.151   5.121  15.818
  525TIP3   OH212397   3.428   1.646  15.637
  525TIP3    H112398   3.371   1.646  15.561
  525TIP3    H212399   3.425   1.736  15.670
  526TIP3   OH212400   4.969   1.094  14.574
  526TIP3    H112401   4.932   1.181  14.588
  526TIP3    H212402   4.901   1.046  14.526
  527TIP3   OH212403   4.648   0.939  15.110
  527TIP3    H112404   4.727   0.902  15.149
  527TIP3    H212405   4.621   0.874  15.045
  528TIP3   OH212406   3.962   0.915  15.140
  528TIP3    H112407   3.950   0.824  15.168
  528TIP3    H212408   4.054   0.921  15.117
  529TIP3   OH212409   4.165   1.375  14.872
  529TIP3    H112410   4.121   1.289  14.871
  529TIP3    H212411   4.255   1.355  14.896
  530TIP3   OH212412   3.767   0.692  14.502
  530TIP3    H112413   3.795   0.781  14.481
  530TIP3    H212414   3.685   0.703  14.549
  531TIP3   OH212415   3.838   0.978  14.820
  531TIP3    H112416   3.872   0.890  14.835
  531TIP3    H212417   3.915   1.035  14.829
  532TIP3   OH212418   4.824   1.755  14.926
  532TIP3    H112419   4.864   1.677  14.963
  532TIP3    H212420   4.774   1.793  14.998
  533TIP3   OH212421   4.614   1.208  15.048
  533TIP3    H112422   4.626   1.113  15.056
  533TIP3    H212423   4.701   1.244  15.067
  534TIP3   OH212424   4.956   0.640  15.036
  534TIP3    H112425   5.026   0.705  15.034
  534TIP3    H212426   4.909   0.654  14.953
  535TIP3   OH212427   4.255   0.454  14.764
  535TIP3    H112428   4.259   0.538  14.717
  535TIP3    H212429   4.209   0.396  14.704
  536TIP3   OH212430   4.996   0.498  14.675
  536TIP3    H112431   5.054   0.432  14.714
  536TIP3    H212432   5.054   0.555  14.626
  537TIP3   OH212433   3.939   0.717  14.859
  537TIP3    H112434   4.000   0.669  14.916
  537TIP3    H212435   3.952   0.680  14.772
  538TIP3   OH212436   4.370   0.838  14.835
  538TIP3    H112437   4.452   0.798  14.864
  538TIP3    H212438   4.337   0.778  14.768
  539TIP3   OH212439   4.125   0.356  15.194
  539TIP3    H112440   4.112   0.421  15.125
  539TIP3    H212441   4.044   0.359  15.246
  540TIP3   OH212442   4.816   1.332  14.568
  540TIP3    H112443   4.755   1.291  14.506
  540TIP3    H212444   4.760   1.384  14.625
  541TIP3   OH212445   4.367   1.151  15.161
  541TIP3    H112446   4.317   1.229  15.186
  541TIP3    H212447   4.446   1.185  15.120
  542TIP3   OH212448   4.126   0.544  14.989
  542TIP3    H112449   4.184   0.597  15.044
  542TIP3    H212450   4.182   0.513  14.917
  543TIP3   OH212451   4.238   1.373  15.254
  543TIP3    H112452   4.253   1.467  15.264
  543TIP3    H212453   4.145   1.361  15.272
  544TIP3   OH212454   4.477   0.083  14.923
  544TIP3    H112455   4.502   5.187  14.954
  544TIP3    H212456   4.400   0.106  14.975
  545TIP3   OH212457   4.992   1.547  14.595
  545TIP3    H112458   4.954   1.462  14.574
  545TIP3    H212459   5.054   1.529  14.666
  546TIP3   OH212460   4.770   0.986  14.416
  546TIP3    H112461   4.710   1.060  14.403
  546TIP3    H212462   4.806   0.969  14.329
  547TIP3   OH212463   4.910   0.945  14.186
  547TIP3    H112464   5.000   0.920  14.206
  547TIP3    H212465   4.918   1.014  14.120
  548TIP3   OH212466   5.190   0.935  14.540
  548TIP3    H112467   5.115   0.992  14.555
  548TIP3    H212468   0.052   0.944  14.620
  549TIP3   OH212469   4.993   0.808  15.459
  549TIP3    H112470   4.924   0.826  15.523
  549TIP3    H212471   4.948   0.809  15.374
  550TIP3   OH212472   4.261   1.035  14.664
  550TIP3    H112473   4.236   0.997  14.580
  550TIP3    H212474   4.307   0.965  14.710
  551TIP3   OH212475   4.446   1.371  14.898
  551TIP3    H112476   4.468   1.353  14.807
  551TIP3    H212477   4.508   1.318  14.949
  552TIP3   OH212478   4.226   0.946  15.042
  552TIP3    H112479   4.281   0.918  14.968
  552TIP3    H212480   4.277   1.016  15.083
  553TIP3   OH212481   4.902   1.539  15.079
  553TIP3    H112482   4.891   1.580  15.164
  553TIP3    H212483   4.882   1.446  15.094
  554TIP3   OH212484   4.377   1.337  15.495
  554TIP3    H112485   4.318   1.399  15.537
  554TIP3    H212486   4.337   1.320  15.409
  555TIP3   OH212487   5.173   0.892  14.263
  555TIP3    H112488   5.182   0.913  14.355
  555TIP3    H212489   0.062   0.926  14.222
  556TIP3   OH212490   4.098   0.979  15.425
  556TIP3    H112491   4.095   1.064  15.470
  556TIP3    H212492   4.006   0.954  15.416
  557TIP3   OH212493   4.737   1.578  14.709
  557TIP3    H112494   4.823   1.589  14.667
  557TIP3    H212495   4.739   1.640  14.782
  558TIP3   OH212496   4.212   1.536  15.578
  558TIP3    H112497   4.220   1.580  15.493
  558TIP3    H212498   4.117   1.534  15.594
  559TIP3   OH212499   4.206   0.924  14.420
  559TIP3    H112500   4.162   0.952  14.340
  559TIP3    H212501   4.253   0.844  14.396
  560TIP3   OH212502   3.797   1.163  15.325
  560TIP3    H112503   3.779   1.132  15.237
  560TIP3    H212504   3.806   1.083  15.377
  561TIP3   OH212505   3.691   1.516  15.064
  561TIP3    H112506   3.762   1.525  15.127
  561TIP3    H212507   3.643   1.598  15.070
  562TIP3   OH212508   4.618   1.464  15.463
  562TIP3    H112509   4.638   1.497  15.550
  562TIP3    H212510   4.533   1.420  15.473
  563TIP3   OH212511   4.701   1.829  14.446
  563TIP3    H112512   4.796   1.818  14.449
  563TIP3    H212513   4.684   1.902  14.506
  564TIP3   OH212514   4.030   1.735  14.678
  564TIP3    H112515   4.043   1.688  14.760
  564TIP3    H212516   3.965   1.683  14.630
  565TIP3   OH212517   4.982   1.779  14.447
  565TIP3    H112518   5.050   1.772  14.380
  565TIP3    H212519   4.983   1.695  14.492
  566TIP3   OH212520   3.985   1.360  15.359
  566TIP3    H112521   4.021   1.327  15.441
  566TIP3    H212522   3.919   1.295  15.334
  567TIP3   OH212523   4.236   0.137  15.064
  567TIP3    H112524   4.177   0.129  14.990
  567TIP3    H212525   4.204   0.214  15.112
  568TIP3   OH212526   4.718   0.207  15.465
  568TIP3    H112527   4.678   0.214  15.551
  568TIP3    H212528   4.647   0.179  15.407
  569TIP3   OH212529   5.083   0.547  15.504
  569TIP3    H112530   5.008   0.500  15.470
  569TIP3    H212531   5.061   0.639  15.492
  570TIP3   OH212532   4.708   0.159  14.200
  570TIP3    H112533   4.651   0.229  14.233
  570TIP3    H212534   4.741   0.194  14.117
  571TIP3   OH212535   4.274   0.702  15.162
  571TIP3    H112536   4.270   0.722  15.255
  571TIP3    H212537   4.256   0.786  15.119
  572TIP3   OH212538   4.253   0.693  14.633
  572TIP3    H112539   4.159   0.682  14.622
  572TIP3    H212540   4.287   0.696  14.543
  573TIP3   OH212541   4.794   0.742  14.533
  573TIP3    H112542   4.776   0.829  14.497
  573TIP3    H212543   4.879   0.718  14.497
  574TIP3   OH212544   4.793   0.837  15.656
  574TIP3    H112545   4.729   0.766  15.647
  574TIP3    H212546   4.854   0.805  15.722
  575TIP3   OH212547   4.816   0.660  14.797
  575TIP3    H112548   4.790   0.709  14.718
  575TIP3    H212549   4.871   0.589  14.764
  576TIP3   OH212550   3.883   0.669  15.242
  576TIP3    H112551   3.861   0.705  15.329
  576TIP3    H212552   3.889   0.574  15.257
  577TIP3   OH212553   3.656   0.416  14.906
  577TIP3    H112554   3.747   0.388  14.908
  577TIP3    H212555   3.658   0.509  14.929
  578TIP3   OH212556   3.705   0.471  14.339
  578TIP3    H112557   3.727   0.397  14.395
  578TIP3    H212558   3.731   0.548  14.389
  579TIP3   OH212559   4.835   0.783  15.237
  579TIP3    H112560   4.879   0.730  15.170
  579TIP3    H212561   4.771   0.723  15.275
  580TIP3   OH212562   4.528   0.489  14.737
  580TIP3    H112563   4.437   0.466  14.757
  580TIP3    H212564   4.580   0.426  14.786
  581TIP3   OH212565   3.997   0.594  14.619
  581TIP3    H112566   3.919   0.615  14.567
  581TIP3    H212567   4.023   0.507  14.588
  582TIP3   OH212568   4.333   0.685  14.368
  582TIP3    H112569   4.420   0.649  14.383
  582TIP3    H212570   4.303   0.642  14.288
  583TIP3   OH212571   4.950   0.369  15.118
  583TIP3    H112572   4.955   0.458  15.084
  583TIP3    H212573   4.932   0.315  15.041
  584TIP3   OH212574   4.062   1.211  15.580
  584TIP3    H112575   4.114   1.165  15.646
  584TIP3    H212576   3.977   1.224  15.622
  585TIP3   OH212577   4.593   0.720  14.951
  585TIP3    H112578   4.664   0.692  14.892
  585TIP3    H212579   4.568   0.639  14.997
  586TIP3   OH212580   4.114   0.346  14.546
  586TIP3    H112581   4.076   0.259  14.544
  586TIP3    H212582   4.166   0.351  14.466
  587TIP3   OH212583   4.499   0.545  15.151
  587TIP3    H112584   4.426   0.606  15.153
  587TIP3    H212585   4.558   0.574  15.221
  588TIP3   OH212586   4.621   1.220  14.394
  588TIP3    H112587   4.588   1.215  14.304
  588TIP3    H212588   4.543   1.214  14.449
  589TIP3   OH212589   5.028   0.401  14.250
  589TIP3    H112590   5.036   0.341  14.176
  589TIP3    H212591   5.089   0.472  14.230
  590TIP3   OH212592   4.781   1.252  15.398
  590TIP3    H112593   4.716   1.184  15.415
  590TIP3    H212594   4.735   1.335  15.414
  591TIP3   OH212595   0.034   0.608  14.248
  591TIP3    H112596   0.114   0.596  14.196
  591TIP3    H212597   0.004   0.696  14.225
  592TIP3   OH212598   4.083   1.108  14.860
  592TIP3    H112599   4.137   1.088  14.783
  592TIP3    H212600   4.117   1.052  14.929
  593TIP3   OH212601   3.822   0.931  15.478
  593TIP3    H112602   3.862   0.946  15.563
  593TIP3    H212603   3.745   0.876  15.496
  594TIP3   OH212604   4.548   0.972  15.610
  594TIP3    H112605   4.530   0.974  15.516
  594TIP3    H212606   4.636   0.936  15.618
  595TIP3   OH212607   5.064   1.520  15.380
  595TIP3    H112608   4.992   1.577  15.354
  595TIP3    H212609   5.058   1.515  15.475
  596TIP3   OH212610   5.104   1.115  15.092
  596TIP3    H112611   5.094   1.023  15.068
  596TIP3    H212612   5.175   1.147  15.037
  597TIP3   OH212613   4.270   1.472  14.629
  597TIP3    H112614   4.263   1.567  14.618
  597TIP3    H212615   4.214   1.453  14.705
  598TIP3   OH212616   4.418   1.247  14.580
  598TIP3    H112617   4.359   1.322  14.588
  598TIP3    H212618   4.365   1.172  14.606
  599TIP3   OH212619   4.544   1.623  15.246
  599TIP3    H112620   4.613   1.684  15.223
  599TIP3    H212621   4.582   1.568  15.314
  600TIP3   OH212622   4.277   1.751  14.577
  600TIP3    H112623   4.187   1.753  14.610
  600TIP3    H212624   4.322   1.820  14.624
  601TIP3   OH212625   4.872   1.271  15.137
  601TIP3    H112626   4.855   1.258  15.230
  601TIP3    H212627   4.950   1.219  15.118
  602TIP3   OH212628   5.129   1.373  14.172
  602TIP3    H112629   5.042   1.391  14.135
  602TIP3    H212630   5.190   1.396  14.102
  603TIP3   OH212631   3.888   0.402  15.327
  603TIP3    H112632   3.854   0.431  15.411
  603TIP3    H212633   3.833   0.327  15.304
  604TIP3   OH212634   3.889   1.597  15.246
  604TIP3    H112635   3.926   1.520  15.288
  604TIP3    H212636   3.911   1.670  15.304
  605TIP3   OH212637   4.869   0.420  15.378
  605TIP3    H112638   4.899   0.398  15.290
  605TIP3    H212639   4.826   0.341  15.410
  606TIP3   OH212640   4.937   0.306  14.486
  606TIP3    H112641   4.957   0.338  14.398
  606TIP3    H212642   4.949   0.382  14.542
  607TIP3   OH212643   4.570   0.585  14.483
  607TIP3    H112644   4.646   0.643  14.492
  607TIP3    H212645   4.551   0.556  14.572
  608TIP3   OH212646   4.669   0.606  15.361
  608TIP3    H112647   4.643   0.623  15.451
  608TIP3    H212648   4.735   0.537  15.367
  609TIP3   OH212649   4.691   0.232  14.577
  609TIP3    H112650   4.690   0.275  14.663
  609TIP3    H212651   4.775   0.256  14.539
  610TIP3   OH212652   4.281   0.353  14.320
  610TIP3    H112653   4.258   0.419  14.255
  610TIP3    H212654   4.377   0.354  14.321
  611TIP3   OH212655   4.041   0.126  14.860
  611TIP3    H112656   4.024   0.110  14.767
  611TIP3    H212657   4.011   0.046  14.904
  612TIP3   OH212658   3.843   1.603  14.533
  612TIP3    H112659   3.771   1.581  14.593
  612TIP3    H212660   3.814   1.572  14.448
  613TIP3   OH212661   3.859   1.845  15.648
  613TIP3    H112662   3.927   1.818  15.709
  613TIP3    H212663   3.804   1.767  15.636
  614TIP3   OH212664   4.269   1.612  15.834
  614TIP3    H112665   4.339   1.554  15.866
  614TIP3    H212666   4.255   1.584  15.744
  615TIP3   OH212667   5.036   1.540  15.658
  615TIP3    H112668   4.982   1.475  15.704
  615TIP3    H212669   5.122   1.533  15.698
  616TIP3   OH212670   3.818   1.281  15.684
  616TIP3    H112671   3.767   1.221  15.738
  616TIP3    H212672   3.759   1.305  15.613
  617TIP3   OH212673   4.439   1.201  15.725
  617TIP3    H112674   4.419   1.243  15.641
  617TIP3    H212675   4.485   1.121  15.700
  618TIP3   OH212676   5.021   1.217  15.529
  618TIP3    H112677   5.092   1.219  15.464
  618TIP3    H212678   4.943   1.243  15.480
  619TIP3   OH212679   3.942   0.957  15.721
  619TIP3    H112680   4.026   0.994  15.746
  619TIP3    H212681   3.928   0.883  15.781
  620TIP3   OH212682   4.299   0.798  15.418
  620TIP3    H112683   4.224   0.857  15.430
  620TIP3    H212684   4.373   0.857  15.401
  621TIP3   OH212685   4.844   1.111  15.711
  621TIP3    H112686   4.909   1.130  15.644
  621TIP3    H212687   4.824   1.018  15.700
  622TIP3   OH212688   4.328   0.567  15.560
  622TIP3    H112689   4.334   0.500  15.492
  622TIP3    H212690   4.309   0.648  15.513
  623TIP3   OH212691   4.352   0.400  15.339
  623TIP3    H112692   4.409   0.433  15.269
  623TIP3    H212693   4.268   0.382  15.296
  624TIP3   OH212694   4.495   0.981  15.338
  624TIP3    H112695   4.555   0.955  15.268
  624TIP3    H212696   4.435   1.044  15.298
  625TIP3   OH212697   4.984   0.730  15.823
  625TIP3    H112698   4.950   0.644  15.799
  625TIP3    H212699   5.040   0.713  15.900
  626TIP3   OH212700   4.101   0.554  15.750
  626TIP3    H112701   4.043   0.480  15.730
  626TIP3    H212702   4.157   0.562  15.672
  627TIP3   OH212703   4.447   0.151  15.407
  627TIP3    H112704   4.411   0.237  15.386
  627TIP3    H212705   4.389   0.089  15.362
  628TIP3   OH212706   4.597   0.642  15.624
  628TIP3    H112707   4.619   0.568  15.681
  628TIP3    H212708   4.504   0.631  15.606
  629TIP3   OH212709   4.880   0.486  15.779
  629TIP3    H112710   4.789   0.457  15.784
  629TIP3    H212711   4.932   0.405  15.789
  630TIP3   OH212712   5.045   0.270  15.839
  630TIP3    H112713   5.035   0.183  15.801
  630TIP3    H212714   5.051   0.255  15.933
  631TIP3   OH212715   3.928   0.354  15.683
  631TIP3    H112716   3.979   0.289  15.634
  631TIP3    H212717   3.865   0.303  15.733
  632TIP3   OH212718   4.533   0.184  15.670
  632TIP3    H112719   4.501   0.123  15.737
  632TIP3    H212720   4.488   0.158  15.590
  633TIP3   OH212721   4.615   0.418  15.785
  633TIP3    H112722   4.588   0.334  15.748
  633TIP3    H212723   4.536   0.452  15.827
  634TIP3   OH212724   3.671   1.883  14.664
  634TIP3    H112725   3.625   1.851  14.586
  634TIP3    H212726   3.690   1.803  14.715
  635TIP3   OH212727   3.743   1.663  14.820
  635TIP3    H112728   3.709   1.585  14.862
  635TIP3    H212729   3.799   1.704  14.886
  636TIP3   OH212730   3.737   1.046  15.075
  636TIP3    H112731   3.733   1.034  14.981
  636TIP3    H212732   3.816   1.000  15.102
  637TIP3   OH212733   3.746   0.511  15.548
  637TIP3    H112734   3.818   0.478  15.603
  637TIP3    H212735   3.674   0.451  15.566
  638TIP3   OH212736   3.920   0.366  14.919
  638TIP3    H112737   3.965   0.284  14.901
  638TIP3    H212738   3.989   0.429  14.938
  639TIP3   OH212739   3.713   0.668  15.014
  639TIP3    H112740   3.780   0.697  14.952
  639TIP3    H212741   3.758   0.666  15.099
  640TIP3   OH212742   3.714   0.218  14.482
  640TIP3    H112743   3.619   0.223  14.472
  640TIP3    H212744   3.745   0.176  14.402
  641TIP3   OH212745   3.697   0.206  15.303
  641TIP3    H112746   3.643   0.156  15.364
  641TIP3    H212747   3.636   0.233  15.234
  642TIP3   OH212748   3.947   1.525  15.644
  642TIP3    H112749   3.863   1.560  15.615
  642TIP3    H212750   3.926   1.439  15.679
  643TIP3   OH212751   4.281   1.636  15.329
  643TIP3    H112752   4.252   1.726  15.319
  643TIP3    H212753   4.374   1.638  15.305
  644TIP3   OH212754   4.658   1.788  15.623
  644TIP3    H112755   4.639   1.703  15.664
  644TIP3    H212756   4.753   1.787  15.608
  645TIP3   OH212757   4.925   1.774  15.568
  645TIP3    H112758   4.965   1.692  15.597
  645TIP3    H212759   4.966   1.842  15.623
  646TIP3   OH212760   3.935   1.840  15.376
  646TIP3    H112761   3.869   1.898  15.338
  646TIP3    H212762   3.917   1.842  15.470
  647TIP3   OH212763   4.196   1.894  15.301
  647TIP3    H112764   4.104   1.881  15.326
  647TIP3    H212765   4.192   1.935  15.215
  648TIP3   OH212766   4.679   1.854  15.145
  648TIP3    H112767   4.601   1.879  15.095
  648TIP3    H212768   4.673   1.904  15.226
  649TIP3   OH212769   4.864   1.700  15.306
  649TIP3    H112770   4.825   1.770  15.254
  649TIP3    H212771   4.879   1.739  15.392
  650TIP3   OH212772   3.914   1.762  15.024
  650TIP3    H112773   3.897   1.711  15.103
  650TIP3    H212774   3.994   1.724  14.988
  651TIP3   OH212775   4.134   1.638  14.922
  651TIP3    H112776   4.128   1.543  14.912
  651TIP3    H212777   4.223   1.654  14.954
  652TIP3   OH212778   4.403   1.632  15.004
  652TIP3    H112779   4.419   1.550  14.958
  652TIP3    H212780   4.446   1.621  15.089
  653TIP3   OH212781   4.663   0.279  14.849
  653TIP3    H112782   4.604   0.215  14.890
  653TIP3    H212783   4.750   0.256  14.881
  654TIP3   OH212784   3.969   0.096  14.578
  654TIP3    H112785   3.890   0.148  14.570
  654TIP3    H212786   3.955   0.021  14.521
  655TIP3   OH212787   3.770   0.100  14.243
  655TIP3    H112788   3.820   0.149  14.178
  655TIP3    H212789   3.697   0.061  14.195
  656TIP3   OH212790   4.443   0.123  14.640
  656TIP3    H112791   4.526   0.159  14.609
  656TIP3    H212792   4.454   0.117  14.735
  657TIP3   OH212793   4.923   0.196  14.894
  657TIP3    H112794   5.000   0.233  14.851
  657TIP3    H212795   4.916   0.107  14.860
  658TIP3   OH212796   3.917   0.233  14.048
  658TIP3    H112797   4.001   0.188  14.048
  658TIP3    H212798   3.939   0.325  14.057
  659TIP3   OH212799   4.558   0.342  14.356
  659TIP3    H112800   4.598   0.293  14.427
  659TIP3    H212801   4.567   0.434  14.382
  660TIP3   OH212802   4.064   0.150  15.568
  660TIP3    H112803   4.038   0.080  15.508
  660TIP3    H212804   4.111   0.104  15.638
  661TIP3   OH212805   4.205   0.007  15.757
  661TIP3    H112806   4.281   0.039  15.806
  661TIP3    H212807   4.187   5.112  15.795
  662TIP3   OH212808   5.011   0.006  15.773
  662TIP3    H112809   4.933   5.145  15.793
  662TIP3    H212810   5.082   5.134  15.768
  663TIP3   OH212811   1.181   2.956  14.528
  663TIP3    H112812   1.147   3.040  14.559
  663TIP3    H212813   1.106   2.914  14.486
  664TIP3   OH212814   1.028   2.883  15.044
  664TIP3    H112815   1.042   2.830  15.122
  664TIP3    H212816   0.987   2.823  14.981
  665TIP3   OH212817   0.274   2.778  15.146
  665TIP3    H112818   0.272   2.684  15.166
  665TIP3    H212819   0.290   2.820  15.231
  666TIP3   OH212820   1.433   3.152  14.882
  666TIP3    H112821   1.380   3.078  14.911
  666TIP3    H212822   1.413   3.222  14.945
  667TIP3   OH212823   0.347   3.237  14.998
  667TIP3    H112824   0.349   3.147  14.967
  667TIP3    H212825   0.380   3.233  15.088
  668TIP3   OH212826   5.144   2.541  14.566
  668TIP3    H112827   5.118   2.630  14.589
  668TIP3    H212828   5.091   2.520  14.489
  669TIP3   OH212829   0.102   2.836  14.785
  669TIP3    H112830   0.121   2.746  14.812
  669TIP3    H212831   0.183   2.868  14.747
  670TIP3   OH212832   1.143   3.622  14.877
  670TIP3    H112833   1.187   3.570  14.809
  670TIP3    H212834   1.132   3.561  14.950
  671TIP3   OH212835   0.853   3.106  15.067
  671TIP3    H112836   0.897   3.025  15.041
  671TIP3    H212837   0.920   3.154  15.117
  672TIP3   OH212838   1.735   2.254  15.135
  672TIP3    H112839   1.750   2.335  15.184
  672TIP3    H212840   1.753   2.276  15.044
  673TIP3   OH212841   1.162   2.552  15.025
  673TIP3    H112842   1.146   2.458  15.040
  673TIP3    H212843   1.156   2.562  14.930
  674TIP3   OH212844   0.537   2.325  14.698
  674TIP3    H112845   0.596   2.371  14.638
  674TIP3    H212846   0.474   2.281  14.640
  675TIP3   OH212847   1.370   2.454  14.672
  675TIP3    H112848   1.394   2.378  14.725
  675TIP3    H212849   1.394   2.430  14.583
  676TIP3   OH212850   0.172   2.578  14.844
  676TIP3    H112851   0.248   2.536  14.885
  676TIP3    H212852   0.172   2.545  14.755
  677TIP3   OH212853   0.682   2.800  14.796
  677TIP3    H112854   0.768   2.765  14.818
  677TIP3    H212855   0.649   2.742  14.728
  678TIP3   OH212856   1.745   2.438  15.351
  678TIP3    H112857   1.682   2.506  15.324
  678TIP3    H212858   1.764   2.459  15.443
  679TIP3   OH212859   0.369   2.254  15.197
  679TIP3    H112860   0.327   2.339  15.206
  679TIP3    H212861   0.303   2.192  15.229
  680TIP3   OH212862   1.123   3.237  14.527
  680TIP3    H112863   1.089   3.195  14.448
  680TIP3    H212864   1.083   3.324  14.528
  681TIP3   OH212865   0.620   3.030  15.203
  681TIP3    H112866   0.555   3.099  15.212
  681TIP3    H212867   0.692   3.071  15.156
  682TIP3   OH212868   1.375   2.303  14.932
  682TIP3    H112869   1.291   2.303  14.977
  682TIP3    H212870   1.416   2.385  14.959
  683TIP3   OH212871   0.385   2.413  14.913
  683TIP3    H112872   0.449   2.446  14.976
  683TIP3    H212873   0.436   2.381  14.840
  684TIP3   OH212874   0.434   3.228  15.266
  684TIP3    H112875   0.420   3.322  15.262
  684TIP3    H212876   0.360   3.195  15.317
  685TIP3   OH212877   0.238   3.127  14.425
  685TIP3    H112878   0.257   3.155  14.335
  685TIP3    H212879   0.245   3.207  14.477
  686TIP3   OH212880   1.388   3.354  15.067
  686TIP3    H112881   1.297   3.381  15.076
  686TIP3    H212882   1.434   3.431  15.035
  687TIP3   OH212883   1.517   2.107  15.062
  687TIP3    H112884   1.465   2.163  15.003
  687TIP3    H212885   1.588   2.164  15.091
  688TIP3   OH212886   0.726   1.927  14.986
  688TIP3    H112887   0.692   1.837  14.986
  688TIP3    H212888   0.649   1.982  14.998
  689TIP3   OH212889   1.307   3.513  14.683
  689TIP3    H112890   1.327   3.423  14.658
  689TIP3    H212891   1.391   3.550  14.710
  690TIP3   OH212892   1.381   3.253  14.627
  690TIP3    H112893   1.293   3.227  14.601
  690TIP3    H212894   1.398   3.205  14.707
  691TIP3   OH212895   1.544   3.125  15.422
  691TIP3    H112896   1.533   3.076  15.340
  691TIP3    H212897   1.545   3.217  15.395
  692TIP3   OH212898   0.972   2.855  14.373
  692TIP3    H112899   0.882   2.880  14.392
  692TIP3    H212900   0.967   2.800  14.295
  693TIP3   OH212901   1.689   2.827  15.230
  693TIP3    H112902   1.621   2.893  15.219
  693TIP3    H212903   1.746   2.838  15.153
  694TIP3   OH212904   1.415   2.910  14.392
  694TIP3    H112905   1.333   2.930  14.436
  694TIP3    H212906   1.457   2.845  14.448
  695TIP3   OH212907   1.315   2.752  15.391
  695TIP3    H112908   1.309   2.844  15.415
  695TIP3    H212909   1.236   2.735  15.340
  696TIP3   OH212910   0.364   2.864  14.698
  696TIP3    H112911   0.425   2.931  14.668
  696TIP3    H212912   0.399   2.782  14.664
  697TIP3   OH212913   0.713   3.322  14.967
  697TIP3    H112914   0.683   3.303  14.878
  697TIP3    H212915   0.763   3.244  14.992
  698TIP3   OH212916   0.613   2.786  15.065
  698TIP3    H112917   0.629   2.798  14.971
  698TIP3    H212918   0.595   2.874  15.098
  699TIP3   OH212919   1.130   3.443  15.099
  699TIP3    H112920   1.108   3.508  15.165
  699TIP3    H212921   1.095   3.361  15.134
  700TIP3   OH212922   0.628   3.272  15.466
  700TIP3    H112923   0.575   3.343  15.502
  700TIP3    H212924   0.580   3.242  15.389
  701TIP3   OH212925   0.294   2.869  15.408
  701TIP3    H112926   0.286   2.964  15.413
  701TIP3    H212927   0.205   2.836  15.422
  702TIP3   OH212928   0.991   3.469  14.454
  702TIP3    H112929   1.004   3.564  14.454
  702TIP3    H212930   0.897   3.458  14.440
  703TIP3   OH212931   0.461   3.466  15.562
  703TIP3    H112932   0.459   3.550  15.517
  703TIP3    H212933   0.368   3.446  15.577
  704TIP3   OH212934   5.166   3.094  15.304
  704TIP3    H112935   5.094   3.152  15.279
  704TIP3    H212936   5.170   3.028  15.235
  705TIP3   OH212937   0.102   3.375  14.963
  705TIP3    H112938   0.172   3.310  14.970
  705TIP3    H212939   0.091   3.409  15.052
  706TIP3   OH212940   1.835   3.476  15.560
  706TIP3    H112941   1.825   3.385  15.532
  706TIP3    H212942   1.752   3.497  15.604
  707TIP3   OH212943   0.887   3.368  15.493
  707TIP3    H112944   0.864   3.459  15.512
  707TIP3    H212945   0.802   3.326  15.475
  708TIP3   OH212946   0.994   3.745  14.432
  708TIP3    H112947   0.961   3.763  14.344
  708TIP3    H212948   0.978   3.825  14.481
  709TIP3   OH212949   0.320   3.597  14.635
  709TIP3    H112950   0.325   3.550  14.718
  709TIP3    H212951   0.299   3.529  14.570
  710TIP3   OH212952   1.255   3.733  14.517
  710TIP3    H112953   1.165   3.733  14.485
  710TIP3    H212954   1.266   3.647  14.558
  711TIP3   OH212955   1.430   2.594  15.585
  711TIP3    H112956   1.387   2.665  15.538
  711TIP3    H212957   1.402   2.515  15.539
  712TIP3   OH212958   0.222   3.138  15.416
  712TIP3    H112959   0.206   3.148  15.509
  712TIP3    H212960   0.135   3.128  15.377
  713TIP3   OH212961   0.495   2.076  15.024
  713TIP3    H112962   0.418   2.050  14.974
  713TIP3    H212963   0.468   2.153  15.074
  714TIP3   OH212964   0.899   2.045  15.382
  714TIP3    H112965   0.936   1.989  15.450
  714TIP3    H212966   0.805   2.042  15.397
  715TIP3   OH212967   1.297   2.398  15.445
  715TIP3    H112968   1.238   2.405  15.520
  715TIP3    H212969   1.244   2.429  15.371
  716TIP3   OH212970   1.294   2.951  14.006
  716TIP3    H112971   1.249   2.901  13.938
  716TIP3    H212972   1.287   2.896  14.084
  717TIP3   OH212973   0.543   2.529  15.112
  717TIP3    H112974   0.468   2.528  15.172
  717TIP3    H212975   0.557   2.622  15.093
  718TIP3   OH212976   0.450   2.626  14.583
  718TIP3    H112977   0.378   2.566  14.604
  718TIP3    H212978   0.514   2.572  14.537
  719TIP3   OH212979   1.009   2.607  14.506
  719TIP3    H112980   1.000   2.695  14.468
  719TIP3    H212981   1.036   2.552  14.433
  720TIP3   OH212982   0.847   2.660  15.752
  720TIP3    H112983   0.843   2.566  15.734
  720TIP3    H212984   0.941   2.679  15.761
  721TIP3   OH212985   1.143   2.580  14.748
  721TIP3    H112986   1.095   2.597  14.668
  721TIP3    H212987   1.217   2.525  14.721
  722TIP3   OH212988   0.329   2.530  15.288
  722TIP3    H112989   0.372   2.580  15.357
  722TIP3    H212990   0.264   2.477  15.335
  723TIP3   OH212991   5.136   2.148  14.820
  723TIP3    H112992   0.020   2.185  14.867
  723TIP3    H212993   5.175   2.088  14.756
  724TIP3   OH212994   0.018   2.379  14.231
  724TIP3    H112995   0.078   2.444  14.195
  724TIP3    H212996   0.023   2.305  14.170
  725TIP3   OH212997   1.090   2.696  15.242
  725TIP3    H112998   1.121   2.647  15.166
  725TIP3    H212999   1.020   2.641  15.278
  726TIP3   OH213000   0.819   2.272  14.767
  726TIP3    H113001   0.724   2.263  14.777
  726TIP3    H213002   0.855   2.240  14.850
  727TIP3   OH213003   0.221   2.471  14.591
  727TIP3    H113004   0.129   2.478  14.567
  727TIP3    H213005   0.244   2.380  14.573
  728TIP3   OH213006   0.589   2.482  14.393
  728TIP3    H113007   0.668   2.478  14.446
  728TIP3    H213008   0.613   2.440  14.310
  729TIP3   OH213009   1.127   2.287  15.076
  729TIP3    H113010   1.105   2.279  15.169
  729TIP3    H213011   1.061   2.234  15.031
  730TIP3   OH213012   1.511   3.792  15.739
  730TIP3    H113013   1.476   3.880  15.753
  730TIP3    H213014   1.598   3.794  15.778
  731TIP3   OH213015   0.180   3.160  15.688
  731TIP3    H113016   0.250   3.108  15.727
  731TIP3    H213017   0.100   3.130  15.732
  732TIP3   OH213018   0.916   2.683  14.885
  732TIP3    H113019   0.987   2.643  14.835
  732TIP3    H213020   0.883   2.612  14.940
  733TIP3   OH213021   0.331   2.214  14.538
  733TIP3    H113022   0.288   2.143  14.585
  733TIP3    H213023   0.300   2.205  14.448
  734TIP3   OH213024   0.815   2.497  15.063
  734TIP3    H113025   0.720   2.506  15.073
  734TIP3    H213026   0.849   2.502  15.152
  735TIP3   OH213027   0.734   2.968  14.439
  735TIP3    H113028   0.739   3.055  14.398
  735TIP3    H213029   0.671   2.980  14.511
  736TIP3   OH213030   1.502   3.020  15.174
  736TIP3    H113031   1.550   3.082  15.119
  736TIP3    H213032   1.429   2.990  15.120
  737TIP3   OH213033   1.053   3.148  15.481
  737TIP3    H113034   1.027   3.088  15.550
  737TIP3    H213035   0.996   3.224  15.492
  738TIP3   OH213036   0.370   2.966  14.958
  738TIP3    H113037   0.368   2.925  14.872
  738TIP3    H213038   0.342   2.898  15.019
  739TIP3   OH213039   1.033   3.120  14.295
  739TIP3    H113040   0.944   3.155  14.304
  739TIP3    H213041   1.022   3.025  14.307
  740TIP3   OH213042   0.044   2.776  15.443
  740TIP3    H113043   0.009   2.788  15.531
  740TIP3    H213044   5.172   2.721  15.398
  741TIP3   OH213045   0.744   2.865  15.609
  741TIP3    H113046   0.726   2.843  15.517
  741TIP3    H213047   0.775   2.783  15.647
  742TIP3   OH213048   1.149   3.468  15.526
  742TIP3    H113049   1.065   3.431  15.498
  742TIP3    H213050   1.154   3.451  15.620
  743TIP3   OH213051   1.805   3.222  15.472
  743TIP3    H113052   1.718   3.183  15.478
  743TIP3    H213053   1.852   3.168  15.410
  744TIP3   OH213054   1.587   3.328  14.460
  744TIP3    H113055   1.517   3.298  14.518
  744TIP3    H213056   1.636   3.249  14.439
  745TIP3   OH213057   1.301   2.939  14.997
  745TIP3    H113058   1.207   2.924  15.005
  745TIP3    H213059   1.333   2.864  14.946
  746TIP3   OH213060   0.583   3.315  14.721
  746TIP3    H113061   0.609   3.392  14.670
  746TIP3    H213062   0.497   3.338  14.756
  747TIP3   OH213063   0.579   3.035  14.661
  747TIP3    H113064   0.586   3.127  14.685
  747TIP3    H213065   0.626   2.988  14.730
  748TIP3   OH213066   0.719   3.628  15.303
  748TIP3    H113067   0.773   3.629  15.382
  748TIP3    H213068   0.637   3.671  15.330
  749TIP3   OH213069   0.596   3.589  14.607
  749TIP3    H113070   0.502   3.603  14.613
  749TIP3    H213071   0.635   3.674  14.627
  750TIP3   OH213072   1.077   3.190  15.207
  750TIP3    H113073   1.068   3.178  15.302
  750TIP3    H213074   1.131   3.115  15.180
  751TIP3   OH213075   1.268   3.240  14.209
  751TIP3    H113076   1.301   3.281  14.288
  751TIP3    H213077   1.188   3.195  14.237
  752TIP3   OH213078   1.390   3.559  15.441
  752TIP3    H113079   1.302   3.532  15.465
  752TIP3    H213080   1.377   3.616  15.364
  753TIP3   OH213081   1.796   3.632  14.098
  753TIP3    H113082   1.834   3.640  14.010
  753TIP3    H213083   1.738   3.709  14.105
  754TIP3   OH213084   0.176   2.356  15.431
  754TIP3    H113085   0.083   2.374  15.443
  754TIP3    H213086   0.188   2.267  15.462
  755TIP3   OH213087   1.546   3.060  14.203
  755TIP3    H113088   1.496   3.001  14.259
  755TIP3    H213089   1.620   3.087  14.258
  756TIP3   OH213090   0.135   3.521  15.200
  756TIP3    H113091   0.227   3.499  15.216
  756TIP3    H213092   0.107   3.565  15.279
  757TIP3   OH213093   0.781   3.218  14.331
  757TIP3    H113094   0.739   3.210  14.245
  757TIP3    H213095   0.751   3.304  14.363
  758TIP3   OH213096   1.051   2.268  15.345
  758TIP3    H113097   1.122   2.244  15.405
  758TIP3    H213098   0.990   2.194  15.350
  759TIP3   OH213099   1.062   2.142  14.396
  759TIP3    H113100   0.977   2.133  14.354
  759TIP3    H213101   1.125   2.145  14.324
  760TIP3   OH213102   0.776   2.481  14.593
  760TIP3    H113103   0.855   2.528  14.568
  760TIP3    H213104   0.806   2.412  14.653
  761TIP3   OH213105   0.907   2.505  15.325
  761TIP3    H113106   0.834   2.503  15.388
  761TIP3    H213107   0.953   2.422  15.338
  762TIP3   OH213108   0.968   2.067  14.641
  762TIP3    H113109   0.926   2.149  14.666
  762TIP3    H213110   1.009   2.085  14.557
  763TIP3   OH213111   0.722   3.483  14.389
  763TIP3    H113112   0.687   3.538  14.319
  763TIP3    H213113   0.678   3.514  14.468
  764TIP3   OH213114   1.535   2.259  15.417
  764TIP3    H113115   1.452   2.307  15.421
  764TIP3    H213116   1.594   2.318  15.370
  765TIP3   OH213117   1.386   2.717  14.852
  765TIP3    H113118   1.311   2.672  14.813
  765TIP3    H213119   1.432   2.650  14.902
  766TIP3   OH213120   1.536   3.574  15.002
  766TIP3    H113121   1.540   3.605  14.911
  766TIP3    H213122   1.623   3.537  15.018
  767TIP3   OH213123   0.238   2.018  14.949
  767TIP3    H113124   0.229   2.010  14.854
  767TIP3    H213125   0.194   1.941  14.984
  768TIP3   OH213126   0.268   3.414  14.432
  768TIP3    H113127   0.174   3.426  14.419
  768TIP3    H213128   0.298   3.372  14.352
  769TIP3   OH213129   0.064   3.722  15.691
  769TIP3    H113130   0.136   3.686  15.743
  769TIP3    H213131   0.085   3.697  15.601
  770TIP3   OH213132   0.573   3.512  15.809
  770TIP3    H113133   0.603   3.602  15.798
  770TIP3    H213134   0.540   3.486  15.723
  771TIP3   OH213135   1.171   3.429  15.800
  771TIP3    H113136   1.132   3.344  15.822
  771TIP3    H213137   1.264   3.419  15.821
  772TIP3   OH213138   5.138   3.069  15.803
  772TIP3    H113139   5.174   2.982  15.783
  772TIP3    H213140   5.043   3.053  15.810
  773TIP3   OH213141   0.646   3.113  15.689
  773TIP3    H113142   0.640   3.165  15.609
  773TIP3    H213143   0.680   3.028  15.660
  774TIP3   OH213144   1.292   3.012  15.478
  774TIP3    H113145   1.367   3.071  15.465
  774TIP3    H213146   1.215   3.069  15.474
  775TIP3   OH213147   0.066   2.833  15.731
  775TIP3    H113148   0.161   2.838  15.728
  775TIP3    H213149   0.048   2.743  15.759
  776TIP3   OH213150   0.460   2.830  14.110
  776TIP3    H113151   0.467   2.920  14.079
  776TIP3    H213152   0.407   2.786  14.044
  777TIP3   OH213153   0.471   2.673  15.480
  777TIP3    H113154   0.403   2.741  15.476
  777TIP3    H213155   0.549   2.715  15.443
  778TIP3   OH213156   0.992   2.966  15.684
  778TIP3    H113157   1.039   2.885  15.701
  778TIP3    H213158   0.903   2.938  15.663
  779TIP3   OH213159   0.675   2.469  15.478
  779TIP3    H113160   0.646   2.401  15.417
  779TIP3    H213161   0.598   2.524  15.492
  780TIP3   OH213162   0.625   2.286  15.279
  780TIP3    H113163   0.673   2.311  15.200
  780TIP3    H213164   0.534   2.280  15.251
  781TIP3   OH213165   0.676   2.805  15.349
  781TIP3    H113166   0.697   2.753  15.272
  781TIP3    H213167   0.651   2.891  15.315
  782TIP3   OH213168   1.119   2.707  15.728
  782TIP3    H113169   1.147   2.617  15.708
  782TIP3    H213170   1.201   2.755  15.737
  783TIP3   OH213171   1.330   2.887  15.720
  783TIP3    H113172   1.303   2.928  15.637
  783TIP3    H213173   1.425   2.896  15.721
  784TIP3   OH213174   0.296   2.562  15.696
  784TIP3    H113175   0.305   2.467  15.697
  784TIP3    H213176   0.365   2.592  15.637
  785TIP3   OH213177   0.627   2.040  15.403
  785TIP3    H113178   0.623   2.128  15.368
  785TIP3    H213179   0.556   1.993  15.358
  786TIP3   OH213180   0.862   2.398  15.665
  786TIP3    H113181   0.833   2.319  15.710
  786TIP3    H213182   0.792   2.416  15.602
  787TIP3   OH213183   1.134   2.415  15.664
  787TIP3    H113184   1.039   2.418  15.659
  787TIP3    H213185   1.153   2.335  15.714
  788TIP3   OH213186   1.144   2.157  15.784
  788TIP3    H113187   1.161   2.064  15.770
  788TIP3    H213188   1.054   2.160  15.817
  789TIP3   OH213189   0.285   2.284  15.740
  789TIP3    H113190   0.313   2.193  15.737
  789TIP3    H213191   0.190   2.280  15.740
  790TIP3   OH213192   0.649   1.953  15.661
  790TIP3    H113193   0.688   1.866  15.655
  790TIP3    H213194   0.640   1.982  15.570
  791TIP3   OH213195   0.766   2.174  15.787
  791TIP3    H113196   0.731   2.092  15.754
  791TIP3    H213197   0.689   2.221  15.819
  792TIP3   OH213198   0.286   3.278  14.187
  792TIP3    H113199   0.357   3.277  14.123
  792TIP3    H213200   0.207   3.261  14.136
  793TIP3   OH213201   5.103   3.778  14.640
  793TIP3    H113202   5.058   3.744  14.562
  793TIP3    H213203   5.126   3.700  14.690
  794TIP3   OH213204   0.023   3.576  14.799
  794TIP3    H113205   0.047   3.495  14.844
  794TIP3    H213206   0.065   3.645  14.850
  795TIP3   OH213207   1.776   3.752  15.108
  795TIP3    H113208   1.758   3.696  15.183
  795TIP3    H213209   1.864   3.728  15.080
  796TIP3   OH213210   1.717   3.594  15.335
  796TIP3    H113211   1.663   3.520  15.308
  796TIP3    H213212   1.766   3.561  15.411
  797TIP3   OH213213   1.520   3.183  15.982
  797TIP3    H113214   1.436   3.146  15.958
  797TIP3    H213215   1.520   3.182  16.078
  798TIP3   OH213216   1.745   3.098  14.392
  798TIP3    H113217   1.831   3.138  14.405
  798TIP3    H213218   1.748   3.017  14.443
  799TIP3   OH213219   1.756   2.856  14.541
  799TIP3    H113220   1.670   2.817  14.558
  799TIP3    H213221   1.801   2.850  14.625
  800TIP3   OH213222   1.685   3.157  15.011
  800TIP3    H113223   1.746   3.084  15.000
  800TIP3    H213224   1.626   3.151  14.937
  801TIP3   OH213225   1.536   3.374  15.304
  801TIP3    H113226   1.479   3.433  15.353
  801TIP3    H213227   1.491   3.358  15.221
  802TIP3   OH213228   1.512   2.730  14.593
  802TIP3    H113229   1.491   2.640  14.568
  802TIP3    H213230   1.473   2.741  14.680
  803TIP3   OH213231   0.037   2.897  15.053
  803TIP3    H113232   0.051   2.894  14.958
  803TIP3    H213233   0.114   2.854  15.090
  804TIP3   OH213234   1.591   2.950  15.639
  804TIP3    H113235   1.634   2.872  15.605
  804TIP3    H213236   1.578   3.005  15.562
  805TIP3   OH213237   1.681   2.704  15.551
  805TIP3    H113238   1.593   2.667  15.558
  805TIP3    H213239   1.739   2.636  15.585
  806TIP3   OH213240   1.453   2.404  14.414
  806TIP3    H113241   1.498   2.320  14.425
  806TIP3    H213242   1.421   2.402  14.324
  807TIP3   OH213243   1.521   2.529  15.016
  807TIP3    H113244   1.616   2.528  15.002
  807TIP3    H213245   1.511   2.552  15.108
  808TIP3   OH213246   1.534   2.610  15.284
  808TIP3    H113247   1.455   2.650  15.319
  808TIP3    H213248   1.593   2.684  15.267
  809TIP3   OH213249   5.187   2.294  15.723
  809TIP3    H113250   5.162   2.317  15.633
  809TIP3    H213251   5.111   2.247  15.758
  810TIP3   OH213252   1.917   2.083  15.701
  810TIP3    H113253   1.908   1.988  15.697
  810TIP3    H213254   1.828   2.116  15.690
  811TIP3   OH213255   1.571   2.163  14.482
  811TIP3    H113256   1.578   2.137  14.574
  811TIP3    H213257   1.506   2.103  14.445
  812TIP3   OH213258   0.147   2.277  14.973
  812TIP3    H113259   0.179   2.188  14.990
  812TIP3    H213260   0.226   2.326  14.950
  813TIP3   OH213261   5.174   2.501  15.044
  813TIP3    H113262   0.022   2.414  15.041
  813TIP3    H213263   0.033   2.552  14.980
  814TIP3   OH213264   1.674   2.210  15.653
  814TIP3    H113265   1.601   2.205  15.714
  814TIP3    H213266   1.633   2.218  15.567
  815TIP3   OH213267   0.032   2.226  14.461
  815TIP3    H113268   5.130   2.222  14.481
  815TIP3    H213269   0.037   2.281  14.382
  816TIP3   OH213270   1.539   3.652  14.738
  816TIP3    H113271   1.587   3.636  14.657
  816TIP3    H213272   1.498   3.738  14.726
  817TIP3   OH213273   5.128   2.184  15.285
  817TIP3    H113274   5.107   2.248  15.352
  817TIP3    H213275   5.055   2.187  15.223
  818TIP3   OH213276   0.196   3.423  15.625
  818TIP3    H113277   0.118   3.441  15.572
  818TIP3    H213278   0.188   3.331  15.650
  819TIP3   OH213279   0.408   3.496  15.223
  819TIP3    H113280   0.414   3.566  15.287
  819TIP3    H213281   0.477   3.515  15.159
  820TIP3   OH213282   0.839   3.639  15.561
  820TIP3    H113283   0.857   3.604  15.648
  820TIP3    H213284   0.914   3.694  15.541
  821TIP3   OH213285   1.072   3.770  15.514
  821TIP3    H113286   1.101   3.720  15.438
  821TIP3    H213287   1.135   3.748  15.583
  822TIP3   OH213288   1.549   1.988  15.410
  822TIP3    H113289   1.533   2.082  15.403
  822TIP3    H213290   1.492   1.950  15.343
  823TIP3   OH213291   0.138   3.694  15.424
  823TIP3    H113292   0.099   3.771  15.383
  823TIP3    H213293   0.232   3.713  15.426
  824TIP3   OH213294   0.430   3.838  15.104
  824TIP3    H113295   0.431   3.824  15.198
  824TIP3    H213296   0.352   3.793  15.073
  825TIP3   OH213297   0.987   3.887  15.135
  825TIP3    H113298   0.905   3.863  15.092
  825TIP3    H213299   0.960   3.922  15.220
  826TIP3   OH213300   1.120   3.673  15.256
  826TIP3    H113301   1.072   3.741  15.207
  826TIP3    H213302   1.211   3.683  15.228
  827TIP3   OH213303   1.386   3.695  15.200
  827TIP3    H113304   1.408   3.788  15.195
  827TIP3    H213305   1.437   3.655  15.129
  828TIP3   OH213306   0.216   3.684  14.989
  828TIP3    H113307   0.174   3.636  15.060
  828TIP3    H213308   0.275   3.620  14.949
  829TIP3   OH213309   0.396   3.489  14.888
  829TIP3    H113310   0.374   3.405  14.928
  829TIP3    H213311   0.476   3.516  14.933
  830TIP3   OH213312   0.624   3.559  15.057
  830TIP3    H113313   0.667   3.479  15.026
  830TIP3    H213314   0.669   3.579  15.140
  831TIP3   OH213315   0.932   2.116  14.974
  831TIP3    H113316   0.858   2.056  14.982
  831TIP3    H213317   1.001   2.064  14.934
  832TIP3   OH213318   1.389   1.927  14.812
  832TIP3    H113319   1.440   2.007  14.802
  832TIP3    H213320   1.300   1.957  14.827
  833TIP3   OH213321   1.603   2.093  14.748
  833TIP3    H113322   1.664   2.020  14.739
  833TIP3    H213323   1.653   2.160  14.796
  834TIP3   OH213324   0.214   1.995  14.676
  834TIP3    H113325   0.129   1.972  14.640
  834TIP3    H213326   0.267   1.916  14.666
  835TIP3   OH213327   0.153   1.998  14.370
  835TIP3    H113328   0.195   2.046  14.298
  835TIP3    H213329   0.101   2.064  14.416
  836TIP3   OH213330   0.736   1.922  14.698
  836TIP3    H113331   0.816   1.963  14.664
  836TIP3    H213332   0.745   1.926  14.793
  837TIP3   OH213333   1.113   1.955  14.847
  837TIP3    H113334   1.071   1.976  14.764
  837TIP3    H213335   1.116   1.859  14.849
  838TIP3   OH213336   1.374   1.982  14.395
  838TIP3    H113337   1.341   2.035  14.322
  838TIP3    H213338   1.301   1.924  14.418
  839TIP3   OH213339   0.009   3.476  14.373
  839TIP3    H113340   5.139   3.453  14.303
  839TIP3    H213341   5.146   3.516  14.440
  840TIP3   OH213342   0.278   2.189  14.215
  840TIP3    H113343   0.198   2.178  14.163
  840TIP3    H213344   0.324   2.261  14.171
  841TIP3   OH213345   1.666   3.588  14.502
  841TIP3    H113346   1.632   3.500  14.486
  841TIP3    H213347   1.729   3.601  14.431
  842TIP3   OH213348   0.183   2.021  15.562
  842TIP3    H113349   0.132   1.953  15.607
  842TIP3    H213350   0.264   2.026  15.611
  843TIP3   OH213351   0.393   2.027  15.738
  843TIP3    H113352   0.484   2.010  15.713
  843TIP3    H213353   0.372   1.959  15.801
  844TIP3   OH213354   0.178   3.670  14.268
  844TIP3    H113355   0.123   3.599  14.300
  844TIP3    H213356   0.264   3.631  14.256
  845TIP3   OH213357   1.216   1.888  15.749
  845TIP3    H113358   1.213   1.813  15.808
  845TIP3    H213359   1.309   1.894  15.724
  846TIP3   OH213360   1.580   3.543  15.638
  846TIP3    H113361   1.515   3.538  15.568
  846TIP3    H213362   1.559   3.624  15.685
  847TIP3   OH213363   3.094   3.011  14.670
  847TIP3    H113364   3.168   3.065  14.645
  847TIP3    H213365   3.017   3.062  14.646
  848TIP3   OH213366   2.769   2.808  15.099
  848TIP3    H113367   2.845   2.775  15.148
  848TIP3    H213368   2.758   2.745  15.028
  849TIP3   OH213369   2.103   2.829  15.079
  849TIP3    H113370   2.075   2.747  15.121
  849TIP3    H213371   2.198   2.823  15.076
  850TIP3   OH213372   3.355   3.147  14.871
  850TIP3    H113373   3.306   3.069  14.896
  850TIP3    H213374   3.328   3.213  14.935
  851TIP3   OH213375   2.304   3.286  14.900
  851TIP3    H113376   2.248   3.208  14.902
  851TIP3    H213377   2.374   3.267  14.963
  852TIP3   OH213378   1.876   2.596  14.480
  852TIP3    H113379   1.832   2.681  14.484
  852TIP3    H213380   1.949   2.609  14.420
  853TIP3   OH213381   1.914   2.831  14.772
  853TIP3    H113382   1.942   2.743  14.799
  853TIP3    H213383   1.996   2.878  14.757
  854TIP3   OH213384   2.988   3.559  14.814
  854TIP3    H113385   3.065   3.528  14.768
  854TIP3    H213386   2.991   3.514  14.899
  855TIP3   OH213387   2.739   3.089  15.055
  855TIP3    H113388   2.756   2.994  15.055
  855TIP3    H213389   2.820   3.127  15.089
  856TIP3   OH213390   3.612   2.195  15.135
  856TIP3    H113391   3.601   2.263  15.201
  856TIP3    H213392   3.681   2.227  15.078
  857TIP3   OH213393   3.035   2.508  15.046
  857TIP3    H113394   3.066   2.418  15.041
  857TIP3    H213395   3.020   2.534  14.955
  858TIP3   OH213396   2.389   2.317  14.756
  858TIP3    H113397   2.371   2.389  14.696
  858TIP3    H213398   2.342   2.242  14.719
  859TIP3   OH213399   3.178   2.385  14.758
  859TIP3    H113400   3.238   2.346  14.822
  859TIP3    H213401   3.185   2.329  14.681
  860TIP3   OH213402   2.019   2.588  14.852
  860TIP3    H113403   2.090   2.557  14.908
  860TIP3    H213404   2.028   2.536  14.772
  861TIP3   OH213405   2.488   2.707  14.813
  861TIP3    H113406   2.578   2.686  14.838
  861TIP3    H213407   2.459   2.631  14.762
  862TIP3   OH213408   3.574   2.366  15.345
  862TIP3    H113409   3.525   2.447  15.329
  862TIP3    H213410   3.631   2.387  15.419
  863TIP3   OH213411   2.239   2.280  15.182
  863TIP3    H113412   2.234   2.343  15.109
  863TIP3    H213413   2.160   2.297  15.233
  864TIP3   OH213414   2.910   3.196  14.568
  864TIP3    H113415   2.868   3.173  14.485
  864TIP3    H213416   2.901   3.291  14.574
  865TIP3   OH213417   2.480   3.060  15.142
  865TIP3    H113418   2.437   3.142  15.166
  865TIP3    H213419   2.566   3.086  15.110
  866TIP3   OH213420   3.394   2.302  14.905
  866TIP3    H113421   3.478   2.294  14.861
  866TIP3    H213422   3.406   2.376  14.965
  867TIP3   OH213423   2.250   2.445  14.960
  867TIP3    H113424   2.309   2.497  15.014
  867TIP3    H213425   2.308   2.403  14.896
  868TIP3   OH213426   2.354   3.289  15.228
  868TIP3    H113427   2.357   3.384  15.245
  868TIP3    H213428   2.266   3.263  15.255
  869TIP3   OH213429   1.993   3.228  14.415
  869TIP3    H113430   2.079   3.197  14.444
  869TIP3    H213431   1.981   3.311  14.462
  870TIP3   OH213432   3.290   3.367  15.039
  870TIP3    H113433   3.196   3.382  15.047
  870TIP3    H213434   3.326   3.451  15.013
  871TIP3   OH213435   3.345   2.092  15.110
  871TIP3    H113436   3.289   2.166  15.086
  871TIP3    H213437   3.433   2.129  15.110
  872TIP3   OH213438   2.592   1.938  14.976
  872TIP3    H113439   2.569   1.846  14.970
  872TIP3    H213440   2.511   1.981  15.006
  873TIP3   OH213441   3.204   3.492  14.658
  873TIP3    H113442   3.249   3.408  14.646
  873TIP3    H213443   3.272   3.552  14.687
  874TIP3   OH213444   3.340   3.253  14.613
  874TIP3    H113445   3.339   3.179  14.552
  874TIP3    H213446   3.360   3.214  14.698
  875TIP3   OH213447   3.395   3.272  15.542
  875TIP3    H113448   3.391   3.327  15.463
  875TIP3    H213449   3.346   3.320  15.608
  876TIP3   OH213450   3.613   2.787  15.291
  876TIP3    H113451   3.560   2.866  15.299
  876TIP3    H213452   3.660   2.798  15.209
  877TIP3   OH213453   3.115   2.742  14.590
  877TIP3    H113454   3.101   2.835  14.607
  877TIP3    H213455   3.210   2.734  14.577
  878TIP3   OH213456   3.177   2.660  15.423
  878TIP3    H113457   3.184   2.734  15.482
  878TIP3    H213458   3.106   2.683  15.364
  879TIP3   OH213459   2.319   2.901  14.717
  879TIP3    H113460   2.290   2.862  14.634
  879TIP3    H213461   2.383   2.839  14.752
  880TIP3   OH213462   2.594   3.306  14.954
  880TIP3    H113463   2.589   3.298  14.859
  880TIP3    H213464   2.655   3.238  14.980
  881TIP3   OH213465   2.374   2.829  15.039
  881TIP3    H113466   2.422   2.808  14.958
  881TIP3    H213467   2.411   2.913  15.067
  882TIP3   OH213468   3.020   3.429  15.072
  882TIP3    H113469   3.007   3.487  15.146
  882TIP3    H213470   2.992   3.343  15.104
  883TIP3   OH213471   2.515   3.256  15.454
  883TIP3    H113472   2.456   3.311  15.506
  883TIP3    H213473   2.472   3.249  15.368
  884TIP3   OH213474   2.197   2.847  15.442
  884TIP3    H113475   2.194   2.934  15.480
  884TIP3    H213476   2.106   2.828  15.418
  885TIP3   OH213477   2.849   3.487  14.577
  885TIP3    H113478   2.892   3.515  14.658
  885TIP3    H213479   2.755   3.496  14.596
  886TIP3   OH213480   2.342   3.427  15.579
  886TIP3    H113481   2.336   3.478  15.498
  886TIP3    H213482   2.252   3.414  15.607
  887TIP3   OH213483   2.265   2.779  14.477
  887TIP3    H113484   2.300   2.835  14.407
  887TIP3    H213485   2.197   2.728  14.435
  888TIP3   OH213486   1.913   3.046  15.286
  888TIP3    H113487   1.882   3.028  15.197
  888TIP3    H213488   1.919   2.960  15.327
  889TIP3   OH213489   1.767   3.422  15.043
  889TIP3    H113490   1.739   3.331  15.041
  889TIP3    H213491   1.837   3.425  15.108
  890TIP3   OH213492   3.736   3.474  15.641
  890TIP3    H113493   3.717   3.387  15.606
  890TIP3    H213494   3.650   3.517  15.645
  891TIP3   OH213495   2.769   3.359  15.474
  891TIP3    H113496   2.754   3.448  15.505
  891TIP3    H213497   2.681   3.326  15.454
  892TIP3   OH213498   2.739   3.761  14.329
  892TIP3    H113499   2.792   3.786  14.253
  892TIP3    H213500   2.759   3.826  14.395
  893TIP3   OH213501   2.206   3.602  14.659
  893TIP3    H113502   2.217   3.580  14.752
  893TIP3    H213503   2.138   3.541  14.628
  894TIP3   OH213504   3.295   3.547  14.243
  894TIP3    H113505   3.256   3.513  14.162
  894TIP3    H213506   3.220   3.566  14.299
  895TIP3   OH213507   3.083   3.588  14.425
  895TIP3    H113508   2.993   3.561  14.442
  895TIP3    H213509   3.131   3.561  14.504
  896TIP3   OH213510   3.303   2.468  15.683
  896TIP3    H113511   3.265   2.437  15.601
  896TIP3    H213512   3.301   2.392  15.741
  897TIP3   OH213513   2.110   3.230  15.339
  897TIP3    H113514   2.136   3.199  15.426
  897TIP3    H213515   2.046   3.165  15.309
  898TIP3   OH213516   2.353   2.054  15.063
  898TIP3    H113517   2.278   2.035  15.007
  898TIP3    H213518   2.332   2.137  15.105
  899TIP3   OH213519   2.807   2.055  15.416
  899TIP3    H113520   2.848   1.993  15.475
  899TIP3    H213521   2.713   2.042  15.429
  900TIP3   OH213522   3.155   2.383  15.460
  900TIP3    H113523   3.084   2.382  15.524
  900TIP3    H213524   3.158   2.474  15.430
  901TIP3   OH213525   2.404   2.581  15.143
  901TIP3    H113526   2.395   2.593  15.238
  901TIP3    H213527   2.396   2.669  15.107
  902TIP3   OH213528   2.327   2.544  14.608
  902TIP3    H113529   2.318   2.630  14.566
  902TIP3    H213530   2.238   2.510  14.614
  903TIP3   OH213531   2.994   2.539  14.438
  903TIP3    H113532   3.031   2.609  14.492
  903TIP3    H213533   3.054   2.531  14.364
  904TIP3   OH213534   2.751   2.653  15.671
  904TIP3    H113535   2.721   2.564  15.655
  904TIP3    H213536   2.844   2.644  15.693
  905TIP3   OH213537   2.982   2.575  14.773
  905TIP3    H113538   3.019   2.643  14.717
  905TIP3    H213539   3.037   2.499  14.758
  906TIP3   OH213540   2.009   2.608  15.222
  906TIP3    H113541   1.981   2.664  15.295
  906TIP3    H213542   2.028   2.523  15.263
  907TIP3   OH213543   1.767   2.287  14.856
  907TIP3    H113544   1.860   2.286  14.878
  907TIP3    H213545   1.764   2.322  14.767
  908TIP3   OH213546   2.954   2.662  15.254
  908TIP3    H113547   2.992   2.614  15.181
  908TIP3    H213548   2.894   2.600  15.295
  909TIP3   OH213549   2.665   2.361  14.804
  909TIP3    H113550   2.573   2.335  14.797
  909TIP3    H213551   2.709   2.284  14.841
  910TIP3   OH213552   2.070   2.448  14.619
  910TIP3    H113553   2.002   2.491  14.567
  910TIP3    H213554   2.045   2.356  14.621
  911TIP3   OH213555   2.506   2.412  14.437
  911TIP3    H113556   2.596   2.405  14.469
  911TIP3    H213557   2.461   2.466  14.504
  912TIP3   OH213558   3.094   2.232  15.054
  912TIP3    H113559   3.040   2.232  15.133
  912TIP3    H213560   3.064   2.155  15.005
  913TIP3   OH213561   3.406   3.828  15.680
  913TIP3    H113562   3.438   3.848  15.592
  913TIP3    H213563   3.477   3.855  15.738
  914TIP3   OH213564   2.164   3.087  15.578
  914TIP3    H113565   2.236   3.068  15.637
  914TIP3    H213566   2.092   3.115  15.636
  915TIP3   OH213567   2.737   2.615  14.895
  915TIP3    H113568   2.823   2.616  14.853
  915TIP3    H213569   2.710   2.523  14.891
  916TIP3   OH213570   2.201   2.159  14.608
  916TIP3    H113571   2.133   2.120  14.663
  916TIP3    H213572   2.214   2.096  14.537
  917TIP3   OH213573   2.622   2.410  15.136
  917TIP3    H113574   2.559   2.480  15.124
  917TIP3    H213575   2.692   2.448  15.189
  918TIP3   OH213576   2.554   3.021  14.294
  918TIP3    H113577   2.527   3.035  14.384
  918TIP3    H213578   2.646   3.048  14.292
  919TIP3   OH213579   3.182   3.016  15.156
  919TIP3    H113580   3.272   3.029  15.188
  919TIP3    H213581   3.192   2.965  15.076
  920TIP3   OH213582   2.867   3.101  15.432
  920TIP3    H113583   2.808   3.034  15.468
  920TIP3    H213584   2.827   3.184  15.457
  921TIP3   OH213585   3.160   2.541  14.200
  921TIP3    H113586   3.235   2.601  14.195
  921TIP3    H213587   3.098   2.575  14.136
  922TIP3   OH213588   2.173   3.043  14.902
  922TIP3    H113589   2.226   2.995  14.838
  922TIP3    H213590   2.148   2.978  14.967
  923TIP3   OH213591   2.793   3.177  14.308
  923TIP3    H113592   2.778   3.271  14.295
  923TIP3    H213593   2.876   3.159  14.264
  924TIP3   OH213594   1.919   2.794  15.410
  924TIP3    H113595   1.934   2.777  15.503
  924TIP3    H213596   1.825   2.785  15.399
  925TIP3   OH213597   2.710   2.888  15.538
  925TIP3    H113598   2.664   2.879  15.455
  925TIP3    H213599   2.718   2.798  15.571
  926TIP3   OH213600   3.049   3.399  15.496
  926TIP3    H113601   2.962   3.394  15.458
  926TIP3    H213602   3.033   3.404  15.591
  927TIP3   OH213603   3.660   3.209  15.574
  927TIP3    H113604   3.571   3.233  15.549
  927TIP3    H213605   3.695   3.164  15.497
  928TIP3   OH213606   3.475   3.380  14.401
  928TIP3    H113607   3.425   3.334  14.469
  928TIP3    H213608   3.411   3.400  14.333
  929TIP3   OH213609   3.213   2.903  14.904
  929TIP3    H113610   3.158   2.927  14.829
  929TIP3    H213611   3.240   2.813  14.885
  930TIP3   OH213612   2.489   3.312  14.690
  930TIP3    H113613   2.486   3.396  14.645
  930TIP3    H213614   2.413   3.314  14.749
  931TIP3   OH213615   2.466   3.075  14.547
  931TIP3    H113616   2.488   3.158  14.589
  931TIP3    H213617   2.420   3.025  14.615
  932TIP3   OH213618   2.631   3.608  15.303
  932TIP3    H113619   2.697   3.661  15.259
  932TIP3    H213620   2.655   3.613  15.396
  933TIP3   OH213621   2.468   3.568  14.584
  933TIP3    H113622   2.376   3.587  14.602
  933TIP3    H213623   2.516   3.643  14.621
  934TIP3   OH213624   2.966   3.178  15.184
  934TIP3    H113625   2.933   3.152  15.270
  934TIP3    H213626   3.044   3.126  15.170
  935TIP3   OH213627   3.276   3.556  15.457
  935TIP3    H113628   3.194   3.506  15.456
  935TIP3    H213629   3.275   3.605  15.375
  936TIP3   OH213630   2.020   2.348  15.338
  936TIP3    H113631   1.925   2.355  15.342
  936TIP3    H213632   2.041   2.276  15.397
  937TIP3   OH213633   3.338   3.063  14.417
  937TIP3    H113634   3.272   3.035  14.353
  937TIP3    H213635   3.421   3.031  14.382
  938TIP3   OH213636   1.983   3.457  15.228
  938TIP3    H113637   2.032   3.380  15.258
  938TIP3    H213638   1.962   3.503  15.309
  939TIP3   OH213639   2.687   3.328  13.973
  939TIP3    H113640   2.606   3.318  13.922
  939TIP3    H213641   2.665   3.291  14.059
  940TIP3   OH213642   2.491   3.284  14.205
  940TIP3    H113643   2.514   3.199  14.242
  940TIP3    H213644   2.553   3.345  14.245
  941TIP3   OH213645   2.963   2.245  15.298
  941TIP3    H113646   3.038   2.262  15.354
  941TIP3    H213647   2.916   2.174  15.342
  942TIP3   OH213648   2.713   3.447  14.278
  942TIP3    H113649   2.746   3.503  14.349
  942TIP3    H213650   2.710   3.504  14.202
  943TIP3   OH213651   2.764   2.408  14.537
  943TIP3    H113652   2.847   2.448  14.512
  943TIP3    H213653   2.760   2.418  14.632
  944TIP3   OH213654   2.797   2.458  15.355
  944TIP3    H113655   2.762   2.428  15.439
  944TIP3    H213656   2.851   2.385  15.324
  945TIP3   OH213657   2.742   2.126  14.586
  945TIP3    H113658   2.772   2.130  14.677
  945TIP3    H213659   2.751   2.216  14.554
  946TIP3   OH213660   2.478   3.676  14.324
  946TIP3    H113661   2.571   3.698  14.322
  946TIP3    H213662   2.468   3.623  14.403
  947TIP3   OH213663   3.366   2.204  15.429
  947TIP3    H113664   3.287   2.258  15.430
  947TIP3    H213665   3.430   2.257  15.382
  948TIP3   OH213666   3.291   2.633  14.843
  948TIP3    H113667   3.243   2.555  14.815
  948TIP3    H213668   3.340   2.605  14.920
  949TIP3   OH213669   2.254   3.212  14.075
  949TIP3    H113670   2.328   3.260  14.113
  949TIP3    H213671   2.279   3.120  14.083
  950TIP3   OH213672   3.384   3.620  14.989
  950TIP3    H113673   3.378   3.641  14.896
  950TIP3    H213674   3.472   3.649  15.014
  951TIP3   OH213675   2.103   2.019  14.961
  951TIP3    H113676   2.070   2.005  14.872
  951TIP3    H213677   2.082   1.939  15.008
  952TIP3   OH213678   1.980   3.464  14.560
  952TIP3    H113679   1.927   3.486  14.637
  952TIP3    H213680   1.948   3.524  14.492
  953TIP3   OH213681   1.981   3.699  15.688
  953TIP3    H113682   2.058   3.673  15.739
  953TIP3    H213683   1.949   3.617  15.650
  954TIP3   OH213684   2.438   3.520  15.821
  954TIP3    H113685   2.534   3.519  15.821
  954TIP3    H213686   2.415   3.480  15.737
  955TIP3   OH213687   2.724   3.595  14.038
  955TIP3    H113688   2.719   3.509  13.997
  955TIP3    H213689   2.811   3.627  14.017
  956TIP3   OH213690   3.021   3.391  15.771
  956TIP3    H113691   3.005   3.300  15.797
  956TIP3    H213692   3.116   3.402  15.780
  957TIP3   OH213693   1.995   3.167  15.784
  957TIP3    H113694   2.027   3.134  15.868
  957TIP3    H213695   1.901   3.150  15.786
  958TIP3   OH213696   2.332   2.955  14.125
  958TIP3    H113697   2.313   2.861  14.133
  958TIP3    H213698   2.415   2.967  14.170
  959TIP3   OH213699   2.602   3.109  15.667
  959TIP3    H113700   2.576   3.160  15.590
  959TIP3    H213701   2.637   3.027  15.631
  960TIP3   OH213702   3.131   3.135  15.486
  960TIP3    H113703   3.123   3.231  15.482
  960TIP3    H213704   3.044   3.103  15.465
  961TIP3   OH213705   1.996   2.741  15.666
  961TIP3    H113706   2.080   2.780  15.687
  961TIP3    H213707   1.988   2.667  15.726
  962TIP3   OH213708   2.405   2.672  15.405
  962TIP3    H113709   2.329   2.727  15.425
  962TIP3    H213710   2.472   2.734  15.377
  963TIP3   OH213711   2.942   2.895  15.705
  963TIP3    H113712   2.960   2.804  15.727
  963TIP3    H213713   2.863   2.892  15.651
  964TIP3   OH213714   2.442   2.431  15.535
  964TIP3    H113715   2.446   2.371  15.461
  964TIP3    H213716   2.425   2.517  15.495
  965TIP3   OH213717   2.474   2.269  15.316
  965TIP3    H113718   2.535   2.305  15.251
  965TIP3    H213719   2.389   2.271  15.272
  966TIP3   OH213720   2.584   2.856  15.299
  966TIP3    H113721   2.649   2.832  15.233
  966TIP3    H213722   2.534   2.927  15.259
  967TIP3   OH213723   3.024   2.622  15.720
  967TIP3    H113724   3.012   2.527  15.711
  967TIP3    H213725   3.119   2.634  15.714
  968TIP3   OH213726   3.202   2.869  15.611
  968TIP3    H113727   3.109   2.891  15.616
  968TIP3    H213728   3.239   2.905  15.692
  969TIP3   OH213729   2.370   2.378  15.797
  969TIP3    H113730   2.281   2.343  15.797
  969TIP3    H213731   2.387   2.400  15.705
  970TIP3   OH213732   2.530   2.019  15.409
  970TIP3    H113733   2.512   2.108  15.379
  970TIP3    H213734   2.458   1.967  15.374
  971TIP3   OH213735   2.691   2.386  15.639
  971TIP3    H113736   2.676   2.348  15.726
  971TIP3    H213737   2.605   2.392  15.600
  972TIP3   OH213738   2.970   2.355  15.661
  972TIP3    H113739   2.875   2.349  15.652
  972TIP3    H213740   2.995   2.272  15.701
  973TIP3   OH213741   3.044   2.108  15.773
  973TIP3    H113742   3.074   2.019  15.760
  973TIP3    H213743   2.950   2.100  15.789
  974TIP3   OH213744   2.108   2.288  15.749
  974TIP3    H113745   2.134   2.274  15.658
  974TIP3    H213746   2.049   2.214  15.768
  975TIP3   OH213747   2.558   1.966  15.674
  975TIP3    H113748   2.594   1.878  15.673
  975TIP3    H213749   2.549   1.988  15.581
  976TIP3   OH213750   2.770   2.107  15.795
  976TIP3    H113751   2.703   2.050  15.756
  976TIP3    H213752   2.720   2.172  15.844
  977TIP3   OH213753   1.988   3.205  14.137
  977TIP3    H113754   2.080   3.223  14.116
  977TIP3    H213755   1.981   3.222  14.230
  978TIP3   OH213756   1.838   3.757  14.646
  978TIP3    H113757   1.789   3.713  14.577
  978TIP3    H213758   1.848   3.690  14.714
  979TIP3   OH213759   1.881   3.547  14.816
  979TIP3    H113760   1.822   3.491  14.868
  979TIP3    H213761   1.941   3.584  14.881
  980TIP3   OH213762   3.628   3.707  15.075
  980TIP3    H113763   3.621   3.681  15.167
  980TIP3    H213764   3.720   3.694  15.053
  981TIP3   OH213765   3.603   3.602  15.329
  981TIP3    H113766   3.550   3.523  15.317
  981TIP3    H213767   3.693   3.570  15.331
  982TIP3   OH213768   3.407   3.228  15.967
  982TIP3    H113769   3.433   3.234  16.059
  982TIP3    H213770   3.479   3.181  15.924
  983TIP3   OH213771   3.598   2.992  14.331
  983TIP3    H113772   3.649   3.066  14.365
  983TIP3    H213773   3.620   2.919  14.389
  984TIP3   OH213774   3.647   2.785  14.510
  984TIP3    H113775   3.561   2.754  14.539
  984TIP3    H213776   3.696   2.799  14.591
  985TIP3   OH213777   3.603   3.100  14.994
  985TIP3    H113778   3.562   3.092  15.080
  985TIP3    H213779   3.530   3.110  14.933
  986TIP3   OH213780   3.453   3.369  15.274
  986TIP3    H113781   3.396   3.381  15.198
  986TIP3    H213782   3.473   3.275  15.275
  987TIP3   OH213783   3.398   2.675  14.590
  987TIP3    H113784   3.404   2.587  14.553
  987TIP3    H213785   3.376   2.662  14.682
  988TIP3   OH213786   1.854   2.928  15.025
  988TIP3    H113787   1.845   2.898  14.934
  988TIP3    H213788   1.942   2.902  15.050
  989TIP3   OH213789   3.511   2.903  15.604
  989TIP3    H113790   3.495   2.809  15.609
  989TIP3    H213791   3.606   2.911  15.598
  990TIP3   OH213792   3.521   2.627  15.632
  990TIP3    H113793   3.442   2.572  15.637
  990TIP3    H213794   3.588   2.568  15.597
  991TIP3   OH213795   3.411   2.414  14.493
  991TIP3    H113796   3.353   2.345  14.525
  991TIP3    H213797   3.474   2.368  14.438
  992TIP3   OH213798   3.438   2.527  15.051
  992TIP3    H113799   3.526   2.561  15.033
  992TIP3    H213800   3.423   2.545  15.144
  993TIP3   OH213801   3.425   2.589  15.320
  993TIP3    H113802   3.342   2.623  15.354
  993TIP3    H213803   3.483   2.665  15.319
  994TIP3   OH213804   1.796   2.462  15.622
  994TIP3    H113805   1.858   2.482  15.693
  994TIP3    H213806   1.758   2.378  15.648
  995TIP3   OH213807   3.665   2.005  15.791
  995TIP3    H113808   3.735   1.963  15.742
  995TIP3    H213809   3.643   2.083  15.740
  996TIP3   OH213810   3.256   2.196  14.567
  996TIP3    H113811   3.333   2.149  14.600
  996TIP3    H213812   3.194   2.127  14.543
  997TIP3   OH213813   2.026   2.282  14.932
  997TIP3    H113814   2.055   2.193  14.952
  997TIP3    H213815   2.105   2.335  14.939
  998TIP3   OH213816   1.803   2.553  15.038
  998TIP3    H113817   1.856   2.551  14.959
  998TIP3    H213818   1.866   2.573  15.108
  999TIP3   OH213819   3.528   2.216  15.662
  999TIP3    H113820   3.455   2.222  15.724
  999TIP3    H213821   3.487   2.191  15.579
 1000TIP3   OH213822   3.702   2.122  14.082
 1000TIP3    H113823   3.783   2.111  14.033
 1000TIP3    H213824   3.633   2.103  14.019
 1001TIP3   OH213825   1.771   2.358  14.589
 1001TIP3    H113826   1.711   2.309  14.533
 1001TIP3    H213827   1.786   2.440  14.542
 1002TIP3   OH213828   3.387   3.688  14.723
 1002TIP3    H113829   3.445   3.667  14.650
 1002TIP3    H213830   3.399   3.782  14.736
 1003TIP3   OH213831   1.794   2.014  15.269
 1003TIP3    H113832   1.718   2.002  15.326
 1003TIP3    H213833   1.780   2.099  15.227
 1004TIP3   OH213834   2.082   3.395  15.655
 1004TIP3    H113835   1.999   3.420  15.614
 1004TIP3    H213836   2.061   3.319  15.708
 1005TIP3   OH213837   2.365   3.548  15.331
 1005TIP3    H113838   2.324   3.633  15.313
 1005TIP3    H213839   2.459   3.565  15.323
 1006TIP3   OH213840   2.713   3.622  15.571
 1006TIP3    H113841   2.722   3.578  15.656
 1006TIP3    H213842   2.793   3.674  15.563
 1007TIP3   OH213843   2.948   3.756  15.530
 1007TIP3    H113844   2.993   3.707  15.461
 1007TIP3    H213845   3.016   3.776  15.594
 1008TIP3   OH213846   3.505   1.968  15.465
 1008TIP3    H113847   3.441   2.025  15.424
 1008TIP3    H213848   3.504   1.888  15.412
 1009TIP3   OH213849   2.017   3.866  15.286
 1009TIP3    H113850   1.933   3.908  15.266
 1009TIP3    H213851   2.032   3.885  15.379
 1010TIP3   OH213852   2.290   3.805  15.275
 1010TIP3    H113853   2.196   3.823  15.280
 1010TIP3    H213854   2.316   3.843  15.191
 1011TIP3   OH213855   2.799   3.787  15.174
 1011TIP3    H113856   2.743   3.814  15.101
 1011TIP3    H213857   2.803   3.863  15.231
 1012TIP3   OH213858   3.007   3.632  15.273
 1012TIP3    H113859   2.942   3.687  15.228
 1012TIP3    H213860   3.091   3.668  15.246
 1013TIP3   OH213861   3.264   3.716  15.220
 1013TIP3    H113862   3.300   3.804  15.221
 1013TIP3    H213863   3.298   3.677  15.139
 1014TIP3   OH213864   2.035   3.644  15.026
 1014TIP3    H113865   2.021   3.586  15.101
 1014TIP3    H213866   2.123   3.621  14.994
 1015TIP3   OH213867   2.273   3.554  14.927
 1015TIP3    H113868   2.275   3.459  14.920
 1015TIP3    H213869   2.358   3.577  14.965
 1016TIP3   OH213870   2.531   3.564  15.040
 1016TIP3    H113871   2.559   3.478  15.009
 1016TIP3    H213872   2.562   3.567  15.131
 1017TIP3   OH213873   2.784   2.111  14.860
 1017TIP3    H113874   2.726   2.052  14.909
 1017TIP3    H213875   2.872   2.077  14.877
 1018TIP3   OH213876   3.313   1.982  14.854
 1018TIP3    H113877   3.372   2.033  14.798
 1018TIP3    H213878   3.325   2.020  14.942
 1019TIP3   OH213879   3.491   2.093  14.678
 1019TIP3    H113880   3.553   2.022  14.664
 1019TIP3    H213881   3.545   2.167  14.706
 1020TIP3   OH213882   2.010   1.981  14.708
 1020TIP3    H113883   1.919   1.957  14.693
 1020TIP3    H213884   2.060   1.903  14.684
 1021TIP3   OH213885   2.532   1.972  14.693
 1021TIP3    H113886   2.597   2.026  14.648
 1021TIP3    H213887   2.562   1.970  14.784
 1022TIP3   OH213888   3.033   1.993  14.909
 1022TIP3    H113889   3.122   1.994  14.875
 1022TIP3    H213890   3.007   1.900  14.906
 1023TIP3   OH213891   1.893   3.632  14.354
 1023TIP3    H113892   1.866   3.620  14.262
 1023TIP3    H213893   1.941   3.714  14.354
 1024TIP3   OH213894   3.530   3.636  14.488
 1024TIP3    H113895   3.502   3.551  14.453
 1024TIP3    H213896   3.475   3.700  14.441
 1025TIP3   OH213897   2.099   2.134  15.506
 1025TIP3    H113898   2.029   2.116  15.569
 1025TIP3    H213899   2.177   2.094  15.545
 1026TIP3   OH213900   2.280   2.007  15.666
 1026TIP3    H113901   2.374   2.001  15.680
 1026TIP3    H213902   2.243   1.939  15.722
 1027TIP3   OH213903   2.357   3.772  14.102
 1027TIP3    H113904   2.291   3.716  14.059
 1027TIP3    H213905   2.384   3.722  14.178
 1028TIP3   OH213906   3.150   1.850  15.738
 1028TIP3    H113907   3.149   1.770  15.791
 1028TIP3    H213908   3.243   1.873  15.732
 1029TIP3   OH213909   3.471   3.563  15.648
 1029TIP3    H113910   3.414   3.556  15.572
 1029TIP3    H213911   3.464   3.654  15.676
 1030TIP3   OH213912   4.826   2.950  14.678
 1030TIP3    H113913   4.803   3.042  14.687
 1030TIP3    H213914   4.785   2.922  14.597
 1031TIP3   OH213915   4.801   2.831  14.934
 1031TIP3    H113916   4.730   2.767  14.935
 1031TIP3    H213917   4.805   2.861  14.843
 1032TIP3   OH213918   4.029   2.930  15.156
 1032TIP3    H113919   4.061   2.864  15.218
 1032TIP3    H213920   4.069   3.012  15.185
 1033TIP3   OH213921   4.023   3.238  14.933
 1033TIP3    H113922   4.012   3.146  14.910
 1033TIP3    H213923   4.108   3.242  14.977
 1034TIP3   OH213924   3.843   2.593  14.440
 1034TIP3    H113925   3.771   2.655  14.450
 1034TIP3    H213926   3.816   2.537  14.367
 1035TIP3   OH213927   3.814   2.808  14.729
 1035TIP3    H113928   3.843   2.728  14.773
 1035TIP3    H213929   3.859   2.878  14.776
 1036TIP3   OH213930   4.904   3.626  14.931
 1036TIP3    H113931   4.906   3.561  14.860
 1036TIP3    H213932   4.913   3.575  15.011
 1037TIP3   OH213933   4.681   3.149  15.032
 1037TIP3    H113934   4.640   3.200  14.962
 1037TIP3    H213935   4.769   3.131  15.000
 1038TIP3   OH213936   4.896   2.486  15.034
 1038TIP3    H113937   4.991   2.496  15.027
 1038TIP3    H213938   4.863   2.513  14.948
 1039TIP3   OH213939   4.258   2.362  14.821
 1039TIP3    H113940   4.260   2.430  14.753
 1039TIP3    H213941   4.224   2.285  14.776
 1040TIP3   OH213942   5.002   2.371  14.736
 1040TIP3    H113943   5.048   2.295  14.772
 1040TIP3    H213944   5.070   2.423  14.693
 1041TIP3   OH213945   3.903   2.569  14.848
 1041TIP3    H113946   3.965   2.538  14.913
 1041TIP3    H213947   3.925   2.521  14.768
 1042TIP3   OH213948   4.371   2.729  14.824
 1042TIP3    H113949   4.454   2.699  14.860
 1042TIP3    H213950   4.343   2.658  14.766
 1043TIP3   OH213951   4.110   2.247  15.209
 1043TIP3    H113952   4.089   2.314  15.144
 1043TIP3    H213953   4.043   2.257  15.277
 1044TIP3   OH213954   4.724   3.218  14.683
 1044TIP3    H113955   4.738   3.302  14.639
 1044TIP3    H213956   4.656   3.236  14.747
 1045TIP3   OH213957   4.463   3.076  15.173
 1045TIP3    H113958   4.408   3.151  15.152
 1045TIP3    H213959   4.545   3.092  15.125
 1046TIP3   OH213960   4.082   2.437  15.013
 1046TIP3    H113961   4.134   2.495  15.068
 1046TIP3    H213962   4.144   2.407  14.946
 1047TIP3   OH213963   4.147   3.152  15.267
 1047TIP3    H113964   4.196   3.206  15.205
 1047TIP3    H213965   4.083   3.212  15.305
 1048TIP3   OH213966   3.723   3.244  14.400
 1048TIP3    H113967   3.637   3.286  14.391
 1048TIP3    H213968   3.774   3.306  14.453
 1049TIP3   OH213969   4.451   1.910  14.987
 1049TIP3    H113970   4.428   1.817  14.984
 1049TIP3    H213971   4.371   1.953  15.017
 1050TIP3   OH213972   4.979   3.459  14.716
 1050TIP3    H113973   4.992   3.364  14.717
 1050TIP3    H213974   5.063   3.495  14.743
 1051TIP3   OH213975   4.705   2.899  14.432
 1051TIP3    H113976   4.660   2.982  14.447
 1051TIP3    H213977   4.661   2.860  14.356
 1052TIP3   OH213978   5.066   2.804  14.627
 1052TIP3    H113979   4.993   2.855  14.661
 1052TIP3    H213980   5.141   2.829  14.682
 1053TIP3   OH213981   5.069   2.605  15.296
 1053TIP3    H113982   4.980   2.635  15.277
 1053TIP3    H213983   5.105   2.581  15.210
 1054TIP3   OH213984   4.193   2.908  14.710
 1054TIP3    H113985   4.158   2.858  14.637
 1054TIP3    H213986   4.263   2.853  14.745
 1055TIP3   OH213987   4.515   3.281  14.848
 1055TIP3    H113988   4.463   3.320  14.778
 1055TIP3    H213989   4.461   3.290  14.926
 1056TIP3   OH213990   4.349   2.827  15.091
 1056TIP3    H113991   4.352   2.812  14.996
 1056TIP3    H213992   4.372   2.919  15.102
 1057TIP3   OH213993   4.931   3.474  15.161
 1057TIP3    H113994   4.980   3.517  15.232
 1057TIP3    H213995   4.937   3.381  15.181
 1058TIP3   OH213996   4.349   3.134  15.462
 1058TIP3    H113997   4.326   3.218  15.502
 1058TIP3    H213998   4.280   3.119  15.397
 1059TIP3   OH213999   4.938   2.748  14.388
 1059TIP3    H114000   4.994   2.778  14.459
 1059TIP3    H214001   4.871   2.815  14.381
 1060TIP3   OH214002   4.116   2.850  15.416
 1060TIP3    H114003   4.105   2.933  15.463
 1060TIP3    H214004   4.033   2.805  15.426
 1061TIP3   OH214005   4.742   3.470  14.572
 1061TIP3    H114006   4.825   3.487  14.616
 1061TIP3    H214007   4.723   3.550  14.524
 1062TIP3   OH214008   4.255   3.366  15.583
 1062TIP3    H114009   4.255   3.413  15.500
 1062TIP3    H214010   4.165   3.372  15.615
 1063TIP3   OH214011   4.084   2.739  14.510
 1063TIP3    H114012   3.991   2.717  14.511
 1063TIP3    H214013   4.110   2.736  14.418
 1064TIP3   OH214014   3.771   3.081  15.352
 1064TIP3    H114015   3.684   3.076  15.314
 1064TIP3    H214016   3.818   3.005  15.317
 1065TIP3   OH214017   3.758   3.307  14.889
 1065TIP3    H114018   3.704   3.237  14.925
 1065TIP3    H214019   3.848   3.280  14.907
 1066TIP3   OH214020   4.705   3.424  15.445
 1066TIP3    H114021   4.672   3.479  15.515
 1066TIP3    H214022   4.688   3.474  15.365
 1067TIP3   OH214023   4.715   3.716  14.428
 1067TIP3    H114024   4.675   3.711  14.341
 1067TIP3    H214025   4.689   3.802  14.461
 1068TIP3   OH214026   4.061   3.603  14.637
 1068TIP3    H114027   4.070   3.570  14.726
 1068TIP3    H214028   3.998   3.542  14.596
 1069TIP3   OH214029   4.984   3.661  14.406
 1069TIP3    H114030   4.891   3.682  14.419
 1069TIP3    H214031   4.984   3.596  14.337
 1070TIP3   OH214032   3.949   3.281  15.411
 1070TIP3    H114033   3.996   3.232  15.479
 1070TIP3    H214034   3.881   3.221  15.381
 1071TIP3   OH214035   4.209   2.033  15.062
 1071TIP3    H114036   4.131   2.025  15.007
 1071TIP3    H214037   4.195   2.113  15.113
 1072TIP3   OH214038   4.654   1.954  15.397
 1072TIP3    H114039   4.663   1.896  15.473
 1072TIP3    H214040   4.565   1.989  15.404
 1073TIP3   OH214041   5.092   2.394  15.472
 1073TIP3    H114042   5.011   2.400  15.523
 1073TIP3    H214043   5.088   2.469  15.412
 1074TIP3   OH214044   4.254   2.582  15.177
 1074TIP3    H114045   4.185   2.587  15.242
 1074TIP3    H214046   4.273   2.674  15.155
 1075TIP3   OH214047   4.253   2.558  14.628
 1075TIP3    H114048   4.199   2.632  14.600
 1075TIP3    H214049   4.288   2.521  14.547
 1076TIP3   OH214050   4.728   2.605  14.514
 1076TIP3    H114051   4.666   2.675  14.495
 1076TIP3    H214052   4.807   2.630  14.466
 1077TIP3   OH214053   4.634   2.670  15.750
 1077TIP3    H114054   4.630   2.579  15.721
 1077TIP3    H214055   4.726   2.683  15.775
 1078TIP3   OH214056   4.794   2.538  14.776
 1078TIP3    H114057   4.765   2.566  14.690
 1078TIP3    H214058   4.861   2.472  14.759
 1079TIP3   OH214059   4.033   2.555  15.334
 1079TIP3    H114060   3.966   2.616  15.365
 1079TIP3    H214061   4.003   2.470  15.365
 1080TIP3   OH214062   3.647   2.298  14.784
 1080TIP3    H114063   3.713   2.288  14.852
 1080TIP3    H214064   3.679   2.368  14.728
 1081TIP3   OH214065   3.773   2.412  14.236
 1081TIP3    H114066   3.837   2.366  14.182
 1081TIP3    H214067   3.720   2.461  14.174
 1082TIP3   OH214068   4.788   2.637  15.242
 1082TIP3    H114069   4.813   2.591  15.162
 1082TIP3    H214070   4.746   2.570  15.296
 1083TIP3   OH214071   4.532   2.329  14.775
 1083TIP3    H114072   4.445   2.341  14.813
 1083TIP3    H214073   4.568   2.253  14.821
 1084TIP3   OH214074   3.983   2.443  14.620
 1084TIP3    H114075   3.935   2.491  14.552
 1084TIP3    H214076   4.075   2.466  14.604
 1085TIP3   OH214077   4.280   2.483  14.369
 1085TIP3    H114078   4.361   2.503  14.322
 1085TIP3    H214079   4.214   2.539  14.328
 1086TIP3   OH214080   4.903   2.220  15.126
 1086TIP3    H114081   4.892   2.308  15.089
 1086TIP3    H214082   4.898   2.161  15.051
 1087TIP3   OH214083   4.137   2.694  14.241
 1087TIP3    H114084   4.065   2.689  14.178
 1087TIP3    H214085   4.211   2.726  14.190
 1088TIP3   OH214086   4.055   3.070  15.590
 1088TIP3    H114087   4.125   3.029  15.640
 1088TIP3    H214088   3.996   3.106  15.655
 1089TIP3   OH214089   4.597   2.627  14.943
 1089TIP3    H114090   4.657   2.581  14.884
 1089TIP3    H214091   4.570   2.561  15.006
 1090TIP3   OH214092   4.166   2.137  14.699
 1090TIP3    H114093   4.084   2.088  14.694
 1090TIP3    H214094   4.234   2.070  14.707
 1091TIP3   OH214095   4.500   2.462  15.147
 1091TIP3    H114096   4.417   2.508  15.161
 1091TIP3    H214097   4.547   2.470  15.230
 1092TIP3   OH214098   4.562   3.125  14.479
 1092TIP3    H114099   4.475   3.119  14.519
 1092TIP3    H214100   4.617   3.164  14.547
 1093TIP3   OH214101   4.710   3.145  15.424
 1093TIP3    H114102   4.794   3.118  15.460
 1093TIP3    H214103   4.707   3.240  15.438
 1094TIP3   OH214104   4.981   2.480  14.340
 1094TIP3    H114105   5.054   2.454  14.284
 1094TIP3    H214106   4.968   2.573  14.322
 1095TIP3   OH214107   3.993   2.968  14.884
 1095TIP3    H114108   4.066   2.947  14.825
 1095TIP3    H214109   4.022   2.938  14.970
 1096TIP3   OH214110   3.854   2.749  15.424
 1096TIP3    H114111   3.830   2.792  15.506
 1096TIP3    H214112   3.772   2.747  15.374
 1097TIP3   OH214113   4.526   2.870  15.586
 1097TIP3    H114114   4.453   2.811  15.564
 1097TIP3    H214115   4.583   2.818  15.643
 1098TIP3   OH214116   4.956   3.331  15.545
 1098TIP3    H114117   4.880   3.381  15.516
 1098TIP3    H214118   4.971   3.361  15.635
 1099TIP3   OH214119   4.968   2.971  15.097
 1099TIP3    H114120   4.907   2.915  15.049
 1099TIP3    H214121   5.055   2.935  15.077
 1100TIP3   OH214122   4.314   3.394  14.690
 1100TIP3    H114123   4.327   3.463  14.625
 1100TIP3    H214124   4.260   3.435  14.757
 1101TIP3   OH214125   4.320   3.131  14.595
 1101TIP3    H114126   4.300   3.216  14.636
 1101TIP3    H214127   4.266   3.068  14.643
 1102TIP3   OH214128   4.689   3.595  15.215
 1102TIP3    H114129   4.717   3.686  15.208
 1102TIP3    H214130   4.763   3.544  15.182
 1103TIP3   OH214131   4.309   3.621  14.519
 1103TIP3    H114132   4.219   3.626  14.550
 1103TIP3    H214133   4.351   3.699  14.555
 1104TIP3   OH214134   4.921   3.205  15.221
 1104TIP3    H114135   4.833   3.196  15.259
 1104TIP3    H214136   4.933   3.124  15.172
 1105TIP3   OH214137   3.932   2.305  15.417
 1105TIP3    H114138   3.849   2.339  15.451
 1105TIP3    H214139   3.952   2.230  15.472
 1106TIP3   OH214140   3.879   3.538  15.296
 1106TIP3    H114141   3.914   3.458  15.334
 1106TIP3    H214142   3.930   3.609  15.335
 1107TIP3   OH214143   4.655   3.251  14.073
 1107TIP3    H114144   4.587   3.260  14.140
 1107TIP3    H214145   4.702   3.334  14.075
 1108TIP3   OH214146   4.462   3.254  14.258
 1108TIP3    H114147   4.493   3.211  14.338
 1108TIP3    H214148   4.444   3.344  14.284
 1109TIP3   OH214149   3.945   3.155  14.257
 1109TIP3    H114150   3.863   3.181  14.300
 1109TIP3    H214151   3.975   3.079  14.307
 1110TIP3   OH214152   4.773   2.208  15.368
 1110TIP3    H114153   4.822   2.205  15.286
 1110TIP3    H214154   4.745   2.117  15.383
 1111TIP3   OH214155   4.951   2.252  14.491
 1111TIP3    H114156   4.942   2.333  14.440
 1111TIP3    H214157   4.934   2.279  14.581
 1112TIP3   OH214158   4.645   2.338  14.526
 1112TIP3    H114159   4.672   2.428  14.508
 1112TIP3    H214160   4.602   2.343  14.612
 1113TIP3   OH214161   4.648   2.448  15.381
 1113TIP3    H114162   4.626   2.453  15.474
 1113TIP3    H214163   4.692   2.363  15.372
 1114TIP3   OH214164   4.628   2.065  14.585
 1114TIP3    H114165   4.648   2.075  14.678
 1114TIP3    H214166   4.639   2.152  14.548
 1115TIP3   OH214167   4.404   3.524  14.278
 1115TIP3    H114168   4.469   3.586  14.247
 1115TIP3    H214169   4.375   3.560  14.362
 1116TIP3   OH214170   3.957   2.024  14.950
 1116TIP3    H114171   3.942   2.017  14.856
 1116TIP3    H214172   3.933   1.938  14.984
 1117TIP3   OH214173   3.843   3.476  14.515
 1117TIP3    H114174   3.797   3.504  14.595
 1117TIP3    H214175   3.819   3.542  14.450
 1118TIP3   OH214176   3.865   3.701  15.753
 1118TIP3    H114177   3.939   3.668  15.803
 1118TIP3    H214178   3.824   3.623  15.716
 1119TIP3   OH214179   4.375   3.498  15.796
 1119TIP3    H114180   4.403   3.582  15.759
 1119TIP3    H214181   4.345   3.447  15.720
 1120TIP3   OH214182   5.025   3.345  15.819
 1120TIP3    H114183   4.958   3.283  15.846
 1120TIP3    H214184   5.107   3.295  15.823
 1121TIP3   OH214185   3.859   3.158  15.758
 1121TIP3    H114186   3.813   3.129  15.838
 1121TIP3    H214187   3.789   3.180  15.697
 1122TIP3   OH214188   4.466   3.104  15.723
 1122TIP3    H114189   4.418   3.134  15.645
 1122TIP3    H214190   4.506   3.021  15.695
 1123TIP3   OH214191   4.967   3.062  15.512
 1123TIP3    H114192   5.038   3.042  15.451
 1123TIP3    H214193   4.976   3.156  15.529
 1124TIP3   OH214194   3.785   2.890  15.648
 1124TIP3    H114195   3.797   2.828  15.720
 1124TIP3    H214196   3.849   2.960  15.667
 1125TIP3   OH214197   4.349   2.702  15.452
 1125TIP3    H114198   4.267   2.749  15.436
 1125TIP3    H214199   4.405   2.727  15.378
 1126TIP3   OH214200   4.880   2.941  15.745
 1126TIP3    H114201   4.906   2.969  15.657
 1126TIP3    H214202   4.896   2.846  15.745
 1127TIP3   OH214203   4.354   2.441  15.542
 1127TIP3    H114204   4.352   2.385  15.465
 1127TIP3    H214205   4.347   2.530  15.508
 1128TIP3   OH214206   4.359   2.280  15.315
 1128TIP3    H114207   4.413   2.317  15.245
 1128TIP3    H214208   4.272   2.273  15.276
 1129TIP3   OH214209   4.558   2.797  15.279
 1129TIP3    H114210   4.642   2.753  15.265
 1129TIP3    H214211   4.514   2.792  15.194
 1130TIP3   OH214212   4.933   2.664  15.755
 1130TIP3    H114213   4.917   2.581  15.710
 1130TIP3    H214214   5.021   2.656  15.791
 1131TIP3   OH214215   4.219   2.445  15.779
 1131TIP3    H114216   4.126   2.426  15.766
 1131TIP3    H214217   4.258   2.438  15.692
 1132TIP3   OH214218   4.396   2.034  15.431
 1132TIP3    H114219   4.383   2.122  15.398
 1132TIP3    H214220   4.324   1.983  15.395
 1133TIP3   OH214221   4.603   2.409  15.656
 1133TIP3    H114222   4.610   2.330  15.709
 1133TIP3    H214223   4.510   2.413  15.630
 1134TIP3   OH214224   4.881   2.414  15.648
 1134TIP3    H114225   4.787   2.413  15.633
 1134TIP3    H214226   4.899   2.333  15.696
 1135TIP3   OH214227   4.921   2.175  15.776
 1135TIP3    H114228   4.954   2.085  15.770
 1135TIP3    H214229   4.828   2.165  15.798
 1136TIP3   OH214230   3.940   2.340  15.752
 1136TIP3    H114231   3.955   2.263  15.698
 1136TIP3    H214232   3.933   2.306  15.841
 1137TIP3   OH214233   4.471   1.983  15.690
 1137TIP3    H114234   4.530   1.908  15.679
 1137TIP3    H214235   4.442   2.005  15.602
 1138TIP3   OH214236   4.631   2.178  15.810
 1138TIP3    H114237   4.580   2.105  15.774
 1138TIP3    H214238   4.569   2.223  15.868
 1139TIP3   OH214239   4.375   3.888  14.085
 1139TIP3    H114240   4.449   3.829  14.101
 1139TIP3    H214241   4.401   3.938  14.007
 1140TIP3   OH214242   3.683   3.786  14.663
 1140TIP3    H114243   3.639   3.752  14.585
 1140TIP3    H214244   3.707   3.708  14.713
 1141TIP3   OH214245   3.769   3.556  14.783
 1141TIP3    H114246   3.749   3.465  14.806
 1141TIP3    H214247   3.807   3.593  14.863
 1142TIP3   OH214248   3.760   2.883  15.079
 1142TIP3    H114249   3.719   2.957  15.033
 1142TIP3    H214250   3.852   2.907  15.085
 1143TIP3   OH214251   3.714   2.404  15.584
 1143TIP3    H114252   3.788   2.410  15.645
 1143TIP3    H214253   3.656   2.338  15.622
 1144TIP3   OH214254   3.838   2.271  14.985
 1144TIP3    H114255   3.884   2.187  14.980
 1144TIP3    H214256   3.908   2.336  14.997
 1145TIP3   OH214257   3.683   2.629  15.003
 1145TIP3    H114258   3.753   2.598  14.946
 1145TIP3    H214259   3.706   2.720  15.021
 1146TIP3   OH214260   3.549   2.263  14.301
 1146TIP3    H114261   3.560   2.180  14.254
 1146TIP3    H214262   3.630   2.310  14.284
 1147TIP3   OH214263   3.730   2.001  15.296
 1147TIP3    H114264   3.663   1.996  15.364
 1147TIP3    H214265   3.696   2.065  15.233
 1148TIP3   OH214266   3.998   3.388  15.696
 1148TIP3    H114267   3.921   3.428  15.655
 1148TIP3    H214268   3.965   3.308  15.736
 1149TIP3   OH214269   4.256   3.483  15.341
 1149TIP3    H114270   4.263   3.576  15.320
 1149TIP3    H214271   4.276   3.439  15.258
 1150TIP3   OH214272   4.664   3.610  15.647
 1150TIP3    H114273   4.704   3.574  15.726
 1150TIP3    H214274   4.731   3.669  15.611
 1151TIP3   OH214275   4.866   3.768  15.557
 1151TIP3    H114276   4.925   3.731  15.492
 1151TIP3    H214277   4.922   3.787  15.632
 1152TIP3   OH214278   3.989   3.787  15.375
 1152TIP3    H114279   3.914   3.834  15.339
 1152TIP3    H214280   4.002   3.827  15.461
 1153TIP3   OH214281   4.247   3.753  15.280
 1153TIP3    H114282   4.156   3.766  15.309
 1153TIP3    H214283   4.251   3.794  15.194
 1154TIP3   OH214284   4.829   3.842  15.205
 1154TIP3    H114285   4.886   3.905  15.160
 1154TIP3    H214286   4.781   3.895  15.269
 1155TIP3   OH214287   5.014   3.687  15.336
 1155TIP3    H114288   4.947   3.729  15.282
 1155TIP3    H214289   5.089   3.747  15.330
 1156TIP3   OH214290   3.899   3.631  15.028
 1156TIP3    H114291   3.892   3.593  15.115
 1156TIP3    H214292   3.975   3.589  14.989
 1157TIP3   OH214293   4.104   3.496  14.889
 1157TIP3    H114294   4.060   3.411  14.890
 1157TIP3    H214295   4.178   3.484  14.950
 1158TIP3   OH214296   4.466   3.600  15.044
 1158TIP3    H114297   4.420   3.516  15.051
 1158TIP3    H214298   4.537   3.593  15.107
 1159TIP3   OH214299   4.634   2.085  14.862
 1159TIP3    H114300   4.586   2.026  14.920
 1159TIP3    H214301   4.726   2.074  14.887
 1160TIP3   OH214302   3.927   1.984  14.680
 1160TIP3    H114303   3.833   1.970  14.667
 1160TIP3    H214304   3.965   1.896  14.674
 1161TIP3   OH214305   4.388   1.968  14.704
 1161TIP3    H114306   4.463   2.002  14.656
 1161TIP3    H214307   4.420   1.956  14.794
 1162TIP3   OH214308   4.899   2.037  14.915
 1162TIP3    H114309   4.981   2.068  14.876
 1162TIP3    H214310   4.903   1.942  14.904
 1163TIP3   OH214311   3.750   3.662  14.323
 1163TIP3    H114312   3.673   3.643  14.376
 1163TIP3    H214313   3.723   3.735  14.266
 1164TIP3   OH214314   4.628   3.694  14.157
 1164TIP3    H114315   4.679   3.763  14.114
 1164TIP3    H214316   4.670   3.613  14.129
 1165TIP3   OH214317   3.969   2.106  15.607
 1165TIP3    H114318   3.919   2.024  15.608
 1165TIP3    H214319   4.055   2.082  15.640
 1166TIP3   OH214320   4.190   2.008  15.728
 1166TIP3    H114321   4.285   1.999  15.732
 1166TIP3    H214322   4.157   1.929  15.772
 1167TIP3   OH214323   5.039   1.921  15.778
 1167TIP3    H114324   5.021   1.882  15.863
 1167TIP3    H214325   5.131   1.899  15.760
 1168TIP3   OH214326   1.168   4.832  14.768
 1168TIP3    H114327   1.130   4.896  14.708
 1168TIP3    H214328   1.093   4.784  14.803
 1169TIP3   OH214329   1.003   4.661  14.905
 1169TIP3    H114330   1.006   4.705  14.990
 1169TIP3    H214331   0.915   4.623  14.900
 1170TIP3   OH214332   0.184   4.574  15.138
 1170TIP3    H114333   0.204   4.521  15.215
 1170TIP3    H214334   0.267   4.613  15.113
 1171TIP3   OH214335   1.340   5.054  14.964
 1171TIP3    H114336   1.299   4.969  14.982
 1171TIP3    H214337   1.431   5.032  14.941
 1172TIP3   OH214338   0.348   5.079  15.019
 1172TIP3    H114339   0.321   5.003  14.967
 1172TIP3    H214340   0.439   5.094  14.994
 1173TIP3   OH214341   5.101   4.627  14.643
 1173TIP3    H114342   5.164   4.652  14.710
 1173TIP3    H214343   5.103   4.699  14.580
 1174TIP3   OH214344   0.128   4.733  14.799
 1174TIP3    H114345   0.174   4.651  14.782
 1174TIP3    H214346   0.196   4.800  14.791
 1175TIP3   OH214347   0.790   4.907  14.975
 1175TIP3    H114348   0.815   4.922  14.884
 1175TIP3    H214349   0.873   4.889  15.020
 1176TIP3   OH214350   1.758   4.133  15.006
 1176TIP3    H114351   1.724   4.222  15.014
 1176TIP3    H214352   1.844   4.144  14.965
 1177TIP3   OH214353   1.208   4.349  15.005
 1177TIP3    H114354   1.214   4.256  15.029
 1177TIP3    H214355   1.167   4.348  14.919
 1178TIP3   OH214356   0.473   4.164  14.764
 1178TIP3    H114357   0.509   4.246  14.729
 1178TIP3    H214358   0.432   4.121  14.689
 1179TIP3   OH214359   1.323   4.301  14.622
 1179TIP3    H114360   1.385   4.272  14.689
 1179TIP3    H214361   1.243   4.322  14.670
 1180TIP3   OH214362   0.251   4.492  14.748
 1180TIP3    H114363   0.254   4.436  14.826
 1180TIP3    H214364   0.213   4.436  14.680
 1181TIP3   OH214365   0.550   4.664  14.810
 1181TIP3    H114366   0.637   4.646  14.844
 1181TIP3    H214367   0.525   4.585  14.763
 1182TIP3   OH214368   1.698   4.244  15.394
 1182TIP3    H114369   1.666   4.327  15.358
 1182TIP3    H214370   1.763   4.270  15.459
 1183TIP3   OH214371   0.290   4.119  15.211
 1183TIP3    H114372   0.225   4.124  15.141
 1183TIP3    H214373   0.239   4.129  15.292
 1184TIP3   OH214374   1.032   4.993  14.583
 1184TIP3    H114375   1.005   5.022  14.496
 1184TIP3    H214376   0.951   4.991  14.634
 1185TIP3   OH214377   0.595   4.874  15.174
 1185TIP3    H114378   0.561   4.957  15.207
 1185TIP3    H214379   0.660   4.900  15.109
 1186TIP3   OH214380   1.480   4.245  14.842
 1186TIP3    H114381   1.487   4.152  14.864
 1186TIP3    H214382   1.536   4.289  14.905
 1187TIP3   OH214383   0.305   4.298  14.936
 1187TIP3    H114384   0.360   4.328  15.008
 1187TIP3    H214385   0.362   4.243  14.882
 1188TIP3   OH214386   0.454   5.108  15.278
 1188TIP3    H114387   0.413   5.113  15.192
 1188TIP3    H214388   0.381   5.097  15.339
 1189TIP3   OH214389   0.049   5.096  14.480
 1189TIP3    H114390   0.073   5.077  14.390
 1189TIP3    H214391   0.019   5.187  14.478
 1190TIP3   OH214392   1.452   0.062  15.123
 1190TIP3    H114393   1.385   0.003  15.090
 1190TIP3    H214394   1.511   0.075  15.049
 1191TIP3   OH214395   1.440   3.964  15.190
 1191TIP3    H114396   1.364   4.007  15.151
 1191TIP3    H214397   1.447   4.002  15.278
 1192TIP3   OH214398   0.749   3.817  14.996
 1192TIP3    H114399   0.699   3.737  15.017
 1192TIP3    H214400   0.687   3.888  15.009
 1193TIP3   OH214401   1.259   5.156  14.572
 1193TIP3    H114402   1.327   5.104  14.530
 1193TIP3    H214403   1.182   5.100  14.572
 1194TIP3   OH214404   1.524   5.107  15.342
 1194TIP3    H114405   1.522   5.023  15.296
 1194TIP3    H214406   1.502   5.171  15.274
 1195TIP3   OH214407   0.928   4.800  14.287
 1195TIP3    H114408   0.834   4.797  14.268
 1195TIP3    H214409   0.945   4.892  14.306
 1196TIP3   OH214410   1.045   4.581  14.147
 1196TIP3    H114411   1.009   4.669  14.157
 1196TIP3    H214412   1.064   4.553  14.236
 1197TIP3   OH214413   1.695   4.710  15.259
 1197TIP3    H114414   1.623   4.772  15.247
 1197TIP3    H214415   1.758   4.732  15.191
 1198TIP3   OH214416   1.265   4.627  14.617
 1198TIP3    H114417   1.247   4.707  14.665
 1198TIP3    H214418   1.356   4.607  14.636
 1199TIP3   OH214419   1.330   4.530  15.411
 1199TIP3    H114420   1.321   4.613  15.459
 1199TIP3    H214421   1.269   4.538  15.338
 1200TIP3   OH214422   0.592   4.839  14.594
 1200TIP3    H114423   0.553   4.806  14.513
 1200TIP3    H214424   0.578   4.769  14.658
 1201TIP3   OH214425   0.603   5.105  14.933
 1201TIP3    H114426   0.573   5.108  14.843
 1201TIP3    H214427   0.668   5.034  14.935
 1202TIP3   OH214428   0.437   4.671  15.071
 1202TIP3    H114429   0.463   4.677  14.979
 1202TIP3    H214430   0.480   4.745  15.113
 1203TIP3   OH214431   0.602   5.054  15.517
 1203TIP3    H114432   0.546   5.104  15.576
 1203TIP3    H214433   0.565   5.071  15.430
 1204TIP3   OH214434   0.303   4.674  15.571
 1204TIP3    H114435   0.296   4.761  15.609
 1204TIP3    H214436   0.223   4.662  15.520
 1205TIP3   OH214437   1.632   3.852  14.165
 1205TIP3    H114438   1.539   3.831  14.170
 1205TIP3    H214439   1.652   3.890  14.251
 1206TIP3   OH214440   0.076   4.885  15.315
 1206TIP3    H114441   0.060   4.872  15.222
 1206TIP3    H214442   0.078   4.796  15.352
 1207TIP3   OH214443   1.493   4.436  15.628
 1207TIP3    H114444   1.446   4.481  15.558
 1207TIP3    H214445   1.458   4.347  15.627
 1208TIP3   OH214446   0.242   5.064  15.447
 1208TIP3    H114447   0.248   5.017  15.530
 1208TIP3    H214448   0.181   5.013  15.394
 1209TIP3   OH214449   0.573   4.036  14.986
 1209TIP3    H114450   0.525   4.074  14.913
 1209TIP3    H214451   0.511   3.977  15.028
 1210TIP3   OH214452   0.942   3.978  15.392
 1210TIP3    H114453   0.984   3.912  15.447
 1210TIP3    H214454   0.849   3.969  15.411
 1211TIP3   OH214455   1.278   4.274  15.502
 1211TIP3    H114456   1.221   4.275  15.578
 1211TIP3    H214457   1.279   4.365  15.471
 1212TIP3   OH214458   0.462   4.407  15.136
 1212TIP3    H114459   0.400   4.390  15.207
 1212TIP3    H214460   0.456   4.501  15.121
 1213TIP3   OH214461   0.507   4.427  14.666
 1213TIP3    H114462   0.416   4.450  14.685
 1213TIP3    H214463   0.512   4.424  14.570
 1214TIP3   OH214464   1.074   4.591  14.417
 1214TIP3    H114465   1.020   4.668  14.399
 1214TIP3    H214466   1.128   4.618  14.492
 1215TIP3   OH214467   0.919   4.486  15.588
 1215TIP3    H114468   0.900   4.402  15.629
 1215TIP3    H214469   0.996   4.519  15.635
 1216TIP3   OH214470   1.104   4.441  14.752
 1216TIP3    H114471   1.062   4.504  14.812
 1216TIP3    H214472   1.158   4.495  14.695
 1217TIP3   OH214473   0.264   4.399  15.333
 1217TIP3    H114474   0.328   4.424  15.399
 1217TIP3    H214475   0.216   4.327  15.373
 1218TIP3   OH214476   0.537   4.194  13.947
 1218TIP3    H114477   0.531   4.166  14.038
 1218TIP3    H214478   0.452   4.174  13.909
 1219TIP3   OH214479   5.177   4.146  14.667
 1219TIP3    H114480   5.173   4.067  14.720
 1219TIP3    H214481   5.156   4.117  14.578
 1220TIP3   OH214482   0.029   4.368  14.348
 1220TIP3    H114483   0.091   4.369  14.421
 1220TIP3    H214484   5.185   4.279  14.347
 1221TIP3   OH214485   1.149   4.530  15.209
 1221TIP3    H114486   1.166   4.470  15.137
 1221TIP3    H214487   1.059   4.512  15.235
 1222TIP3   OH214488   0.776   4.209  14.898
 1222TIP3    H114489   0.713   4.139  14.917
 1222TIP3    H214490   0.776   4.263  14.977
 1223TIP3   OH214491   0.191   4.296  14.567
 1223TIP3    H114492   0.118   4.252  14.609
 1223TIP3    H214493   0.253   4.226  14.547
 1224TIP3   OH214494   0.467   4.419  14.392
 1224TIP3    H114495   0.510   4.481  14.333
 1224TIP3    H214496   0.377   4.450  14.398
 1225TIP3   OH214497   1.192   4.084  15.112
 1225TIP3    H114498   1.150   4.132  15.182
 1225TIP3    H214499   1.133   4.011  15.093
 1226TIP3   OH214500   0.249   4.924  15.689
 1226TIP3    H114501   0.318   4.949  15.751
 1226TIP3    H214502   0.168   4.943  15.736
 1227TIP3   OH214503   0.773   4.516  14.881
 1227TIP3    H114504   0.757   4.446  14.818
 1227TIP3    H214505   0.760   4.475  14.967
 1228TIP3   OH214506   0.339   4.061  14.544
 1228TIP3    H114507   0.284   3.988  14.573
 1228TIP3    H214508   0.376   4.031  14.461
 1229TIP3   OH214509   0.735   4.376  15.111
 1229TIP3    H114510   0.643   4.376  15.137
 1229TIP3    H214511   0.784   4.392  15.192
 1230TIP3   OH214512   1.505   4.888  15.175
 1230TIP3    H114513   1.548   4.929  15.100
 1230TIP3    H214514   1.424   4.851  15.139
 1231TIP3   OH214515   0.940   4.988  15.347
 1231TIP3    H114516   0.910   4.959  15.434
 1231TIP3    H214517   0.941   5.083  15.353
 1232TIP3   OH214518   0.369   4.888  14.803
 1232TIP3    H114519   0.405   4.951  14.740
 1232TIP3    H214520   0.430   4.815  14.802
 1233TIP3   OH214521   0.929   5.081  14.343
 1233TIP3    H114522   0.988   5.096  14.269
 1233TIP3    H214523   0.859   5.146  14.332
 1234TIP3   OH214524   0.053   4.645  15.453
 1234TIP3    H114525   0.026   4.648  15.544
 1234TIP3    H214526   5.175   4.595  15.409
 1235TIP3   OH214527   0.722   4.675  15.603
 1235TIP3    H114528   0.694   4.675  15.512
 1235TIP3    H214529   0.786   4.603  15.609
 1236TIP3   OH214530   1.156   0.001  15.528
 1236TIP3    H114531   1.077   0.036  15.486
 1236TIP3    H214532   1.148   0.027  15.620
 1237TIP3   OH214533   1.834   4.494  14.317
 1237TIP3    H114534   1.793   4.547  14.249
 1237TIP3    H214535   1.927   4.495  14.295
 1238TIP3   OH214536   1.732   4.978  15.480
 1238TIP3    H114537   1.665   5.038  15.448
 1238TIP3    H214538   1.805   4.988  15.418
 1239TIP3   OH214539   1.296   4.784  15.012
 1239TIP3    H114540   1.251   4.793  14.928
 1239TIP3    H214541   1.334   4.696  15.009
 1240TIP3   OH214542   0.491   5.143  14.684
 1240TIP3    H114543   0.566  -0.001  14.649
 1240TIP3    H214544   0.415   5.189  14.649
 1241TIP3   OH214545   0.163   4.776  14.174
 1241TIP3    H114546   0.258   4.771  14.166
 1241TIP3    H214547   0.145   4.868  14.193
 1242TIP3   OH214548   0.789   4.993  14.709
 1242TIP3    H114549   0.772   5.085  14.688
 1242TIP3    H214550   0.721   4.944  14.662
 1243TIP3   OH214551   1.013   4.834  15.128
 1243TIP3    H114552   0.987   4.886  15.204
 1243TIP3    H214553   1.106   4.816  15.142
 1244TIP3   OH214554   1.088   5.112  14.124
 1244TIP3    H114555   1.172   5.153  14.100
 1244TIP3    H214556   1.023   5.156  14.070
 1245TIP3   OH214557   0.122   4.162  15.422
 1245TIP3    H114558   0.036   4.201  15.439
 1245TIP3    H214559   0.138   4.107  15.498
 1246TIP3   OH214560   1.465   5.027  14.435
 1246TIP3    H114561   1.555   4.993  14.440
 1246TIP3    H214562   1.471   5.101  14.375
 1247TIP3   OH214563   0.725   0.102  14.282
 1247TIP3    H114564   0.729   0.193  14.313
 1247TIP3    H214565   0.704   0.109  14.189
 1248TIP3   OH214566   1.068   4.209  15.327
 1248TIP3    H114567   1.141   4.215  15.389
 1248TIP3    H214568   1.019   4.132  15.356
 1249TIP3   OH214569   0.923   4.229  14.671
 1249TIP3    H114570   0.983   4.301  14.691
 1249TIP3    H214571   0.871   4.218  14.750
 1250TIP3   OH214572   0.908   4.435  15.317
 1250TIP3    H114573   0.902   4.460  15.410
 1250TIP3    H214574   0.956   4.352  15.318
 1251TIP3   OH214575   0.994   3.973  14.590
 1251TIP3    H114576   0.992   3.919  14.669
 1251TIP3    H214577   0.980   4.062  14.621
 1252TIP3   OH214578   0.610   4.209  14.278
 1252TIP3    H114579   0.553   4.278  14.313
 1252TIP3    H214580   0.634   4.156  14.355
 1253TIP3   OH214581   1.468   4.093  15.425
 1253TIP3    H114582   1.399   4.151  15.456
 1253TIP3    H214583   1.546   4.148  15.423
 1254TIP3   OH214584   1.410   4.535  14.963
 1254TIP3    H114585   1.339   4.472  14.977
 1254TIP3    H214586   1.489   4.491  14.995
 1255TIP3   OH214587   0.498   5.127  14.308
 1255TIP3    H114588   0.575   5.183  14.309
 1255TIP3    H214589   0.524   5.049  14.356
 1256TIP3   OH214590   0.071   4.520  14.111
 1256TIP3    H114591   0.062   4.474  14.195
 1256TIP3    H214592   0.102   4.607  14.135
 1257TIP3   OH214593   0.141   3.931  14.882
 1257TIP3    H114594   0.165   3.910  14.792
 1257TIP3    H214595   0.164   3.853  14.932
 1258TIP3   OH214596   5.164   4.937  15.773
 1258TIP3    H114597   5.084   4.915  15.821
 1258TIP3    H214598   5.137   4.935  15.681
 1259TIP3   OH214599   0.824   4.926  15.603
 1259TIP3    H114600   0.750   4.975  15.567
 1259TIP3    H214601   0.791   4.836  15.610
 1260TIP3   OH214602   0.907   0.063  13.981
 1260TIP3    H114603   0.955   0.128  13.931
 1260TIP3    H214604   0.821   0.103  13.996
 1261TIP3   OH214605   1.315   4.979  15.478
 1261TIP3    H114606   1.388   5.027  15.439
 1261TIP3    H214607   1.249   5.046  15.495
 1262TIP3   OH214608   0.004   4.655  15.725
 1262TIP3    H114609   0.055   4.605  15.788
 1262TIP3    H214610   0.018   4.746  15.749
 1263TIP3   OH214611   0.489   4.512  15.451
 1263TIP3    H114612   0.435   4.575  15.498
 1263TIP3    H214613   0.551   4.565  15.402
 1264TIP3   OH214614   1.060   4.863  15.753
 1264TIP3    H114615   1.073   4.769  15.742
 1264TIP3    H214616   0.992   4.886  15.689
 1265TIP3   OH214617   0.628   4.280  15.493
 1265TIP3    H114618   0.609   4.229  15.414
 1265TIP3    H214619   0.582   4.363  15.480
 1266TIP3   OH214620   0.559   4.141  15.258
 1266TIP3    H114621   0.590   4.125  15.169
 1266TIP3    H214622   0.463   4.134  15.252
 1267TIP3   OH214623   0.682   4.665  15.331
 1267TIP3    H114624   0.762   4.636  15.286
 1267TIP3    H214625   0.652   4.741  15.280
 1268TIP3   OH214626   1.142   4.595  15.712
 1268TIP3    H114627   1.183   4.529  15.769
 1268TIP3    H214628   1.216   4.641  15.672
 1269TIP3   OH214629   1.343   4.736  15.589
 1269TIP3    H114630   1.320   4.821  15.553
 1269TIP3    H214631   1.439   4.738  15.597
 1270TIP3   OH214632   0.380   4.493  15.770
 1270TIP3    H114633   0.300   4.482  15.822
 1270TIP3    H214634   0.353   4.548  15.696
 1271TIP3   OH214635   0.674   3.948  15.414
 1271TIP3    H114636   0.637   4.022  15.366
 1271TIP3    H214637   0.603   3.885  15.420
 1272TIP3   OH214638   0.846   4.228  15.657
 1272TIP3    H114639   0.810   4.157  15.710
 1272TIP3    H214640   0.778   4.244  15.591
 1273TIP3   OH214641   1.114   4.244  15.714
 1273TIP3    H114642   1.020   4.240  15.698
 1273TIP3    H214643   1.136   4.157  15.748
 1274TIP3   OH214644   1.168   3.983  15.804
 1274TIP3    H114645   1.184   3.895  15.770
 1274TIP3    H214646   1.091   3.973  15.860
 1275TIP3   OH214647   0.234   4.177  15.798
 1275TIP3    H114648   0.213   4.103  15.741
 1275TIP3    H214649   0.329   4.186  15.792
 1276TIP3   OH214650   0.615   3.769  15.672
 1276TIP3    H114651   0.699   3.739  15.637
 1276TIP3    H214652   0.555   3.767  15.598
 1277TIP3   OH214653   0.700   4.031  15.778
 1277TIP3    H114654   0.669   3.946  15.747
 1277TIP3    H214655   0.620   4.083  15.787
 1278TIP3   OH214656   0.098   5.043  14.208
 1278TIP3    H114657   0.162   5.105  14.173
 1278TIP3    H214658   0.013   5.079  14.180
 1279TIP3   OH214659   1.692   5.069  15.843
 1279TIP3    H114660   1.608   5.113  15.830
 1279TIP3    H214661   1.758   5.136  15.826
 1280TIP3   OH214662   1.732   4.946  14.408
 1280TIP3    H114663   1.733   4.915  14.318
 1280TIP3    H214664   1.758   4.869  14.460
 1281TIP3   OH214665   1.750   4.720  14.612
 1281TIP3    H114666   1.672   4.684  14.653
 1281TIP3    H214667   1.806   4.748  14.684
 1282TIP3   OH214668   1.622   5.014  14.960
 1282TIP3    H114669   1.713   4.988  14.944
 1282TIP3    H214670   1.617   5.103  14.926
 1283TIP3   OH214671   1.524   4.565  14.709
 1283TIP3    H114672   1.550   4.473  14.699
 1283TIP3    H214673   1.489   4.570  14.798
 1284TIP3   OH214674   0.029   4.785  15.056
 1284TIP3    H114675   0.047   4.786  14.962
 1284TIP3    H214676   0.074   4.707  15.088
 1285TIP3   OH214677   1.619   4.749  15.587
 1285TIP3    H114678   1.680   4.677  15.575
 1285TIP3    H214679   1.660   4.823  15.543
 1286TIP3   OH214680   1.757   4.502  15.565
 1286TIP3    H114681   1.669   4.474  15.591
 1286TIP3    H214682   1.816   4.438  15.605
 1287TIP3   OH214683   1.383   4.178  14.122
 1287TIP3    H114684   1.477   4.167  14.106
 1287TIP3    H214685   1.346   4.092  14.101
 1288TIP3   OH214686   1.632   4.383  15.037
 1288TIP3    H114687   1.718   4.422  15.026
 1288TIP3    H214688   1.610   4.397  15.129
 1289TIP3   OH214689   1.574   4.467  15.291
 1289TIP3    H114690   1.487   4.489  15.327
 1289TIP3    H214691   1.621   4.550  15.289
 1290TIP3   OH214692   5.184   4.274  15.876
 1290TIP3    H114693   0.076   4.233  15.850
 1290TIP3    H214694   5.120   4.202  15.871
 1291TIP3   OH214695   1.770   3.831  15.809
 1291TIP3    H114696   1.847   3.786  15.776
 1291TIP3    H214697   1.776   3.920  15.772
 1292TIP3   OH214698   1.602   3.989  14.404
 1292TIP3    H114699   1.600   3.977  14.499
 1292TIP3    H214700   1.514   3.963  14.375
 1293TIP3   OH214701   0.083   4.160  15.015
 1293TIP3    H114702   0.095   4.078  14.969
 1293TIP3    H214703   0.151   4.218  14.980
 1294TIP3   OH214704   5.156   4.413  15.076
 1294TIP3    H114705   5.189   4.323  15.065
 1294TIP3    H214706   0.043   4.465  15.092
 1295TIP3   OH214707   1.685   4.053  15.653
 1295TIP3    H114708   1.597   4.065  15.690
 1295TIP3    H214709   1.672   3.987  15.584
 1296TIP3   OH214710   1.650   4.126  14.084
 1296TIP3    H114711   1.660   4.031  14.084
 1296TIP3    H214712   1.734   4.159  14.117
 1297TIP3   OH214713   5.121   4.112  14.397
 1297TIP3    H114714   5.027   4.109  14.413
 1297TIP3    H214715   5.142   4.025  14.362
 1298TIP3   OH214716   0.003   3.905  15.305
 1298TIP3    H114717   0.039   3.986  15.339
 1298TIP3    H214718   5.143   3.932  15.229
 1299TIP3   OH214719   1.649   3.827  15.481
 1299TIP3    H114720   1.580   3.802  15.543
 1299TIP3    H214721   1.667   3.748  15.431
 1300TIP3   OH214722   0.949   3.806  14.803
 1300TIP3    H114723   0.891   3.810  14.880
 1300TIP3    H214724   1.014   3.740  14.827
 1301TIP3   OH214725   1.511   3.966  14.897
 1301TIP3    H114726   1.564   3.965  14.817
 1301TIP3    H214727   1.429   3.925  14.872
 1302TIP3   OH214728   1.659   3.961  14.673
 1302TIP3    H114729   1.727   3.894  14.667
 1302TIP3    H214730   1.708   4.043  14.683
 1303TIP3   OH214731   0.189   3.843  14.625
 1303TIP3    H114732   0.098   3.824  14.605
 1303TIP3    H214733   0.234   3.759  14.621
 1304TIP3   OH214734   0.702   3.843  14.675
 1304TIP3    H114735   0.793   3.823  14.695
 1304TIP3    H214736   0.663   3.864  14.760
 1305TIP3   OH214737   1.307   3.830  14.777
 1305TIP3    H114738   1.282   3.821  14.685
 1305TIP3    H214739   1.248   3.772  14.824
 1306TIP3   OH214740   1.368   3.860  14.291
 1306TIP3    H114741   1.300   3.844  14.225
 1306TIP3    H214742   1.338   3.812  14.369
 1307TIP3   OH214743   0.708   4.080  14.504
 1307TIP3    H114744   0.698   3.994  14.545
 1307TIP3    H214745   0.768   4.127  14.562
 1308TIP3   OH214746   0.166   3.975  15.619
 1308TIP3    H114747   0.104   3.906  15.641
 1308TIP3    H214748   0.251   3.942  15.648
 1309TIP3   OH214749   0.369   3.864  15.762
 1309TIP3    H114750   0.461   3.845  15.743
 1309TIP3    H214751   0.334   3.781  15.794
 1310TIP3   OH214752   1.237   3.718  15.734
 1310TIP3    H114753   1.217   3.631  15.768
 1310TIP3    H214754   1.333   3.724  15.738
 1311TIP3   OH214755   2.918   4.716  14.663
 1311TIP3    H114756   2.905   4.809  14.645
 1311TIP3    H214757   2.931   4.712  14.758
 1312TIP3   OH214758   2.909   4.717  14.967
 1312TIP3    H114759   2.943   4.688  15.052
 1312TIP3    H214760   2.847   4.649  14.941
 1313TIP3   OH214761   2.091   4.613  15.161
 1313TIP3    H114762   2.103   4.559  15.239
 1313TIP3    H214763   2.179   4.646  15.141
 1314TIP3   OH214764   3.191   5.111  14.982
 1314TIP3    H114765   3.190   5.016  14.969
 1314TIP3    H214766   3.271   5.141  14.939
 1315TIP3   OH214767   2.283   5.130  14.897
 1315TIP3    H114768   2.238   5.048  14.917
 1315TIP3    H214769   2.376   5.110  14.908
 1316TIP3   OH214770   1.921   4.491  14.572
 1316TIP3    H114771   1.883   4.571  14.607
 1316TIP3    H214772   1.878   4.479  14.487
 1317TIP3   OH214773   1.939   4.746  14.817
 1317TIP3    H114774   1.984   4.662  14.818
 1317TIP3    H214775   2.008   4.810  14.834
 1318TIP3   OH214776   2.740   4.942  15.031
 1318TIP3    H114777   2.796   4.870  15.001
 1318TIP3    H214778   2.797   4.995  15.087
 1319TIP3   OH214779   3.635   4.107  15.143
 1319TIP3    H114780   3.632   4.185  15.198
 1319TIP3    H214781   3.699   4.127  15.075
 1320TIP3   OH214782   3.068   4.417  14.973
 1320TIP3    H114783   3.091   4.331  15.007
 1320TIP3    H214784   3.017   4.399  14.894
 1321TIP3   OH214785   2.382   4.191  14.800
 1321TIP3    H114786   2.394   4.279  14.765
 1321TIP3    H214787   2.324   4.148  14.737
 1322TIP3   OH214788   3.158   4.217  14.662
 1322TIP3    H114789   3.214   4.216  14.739
 1322TIP3    H214790   3.210   4.262  14.595
 1323TIP3   OH214791   2.079   4.506  14.833
 1323TIP3    H114792   2.136   4.453  14.888
 1323TIP3    H214793   2.093   4.472  14.744
 1324TIP3   OH214794   2.506   4.638  14.834
 1324TIP3    H114795   2.595   4.609  14.854
 1324TIP3    H214796   2.467   4.565  14.786
 1325TIP3   OH214797   3.647   4.307  15.335
 1325TIP3    H114798   3.578   4.369  15.313
 1325TIP3    H214799   3.660   4.318  15.429
 1326TIP3   OH214800   2.244   4.149  15.207
 1326TIP3    H114801   2.207   4.212  15.145
 1326TIP3    H214802   2.182   4.148  15.280
 1327TIP3   OH214803   2.847   4.974  14.613
 1327TIP3    H114804   2.754   4.977  14.633
 1327TIP3    H214805   2.872   5.065  14.597
 1328TIP3   OH214806   2.498   4.919  15.170
 1328TIP3    H114807   2.467   5.007  15.193
 1328TIP3    H214808   2.579   4.935  15.121
 1329TIP3   OH214809   3.322   4.237  14.880
 1329TIP3    H114810   3.270   4.214  14.956
 1329TIP3    H214811   3.392   4.293  14.914
 1330TIP3   OH214812   2.226   4.320  14.986
 1330TIP3    H114813   2.280   4.374  15.044
 1330TIP3    H214814   2.289   4.270  14.934
 1331TIP3   OH214815   2.387   5.168  15.261
 1331TIP3    H114816   2.371   0.038  15.189
 1331TIP3    H214817   2.301   5.156  15.301
 1332TIP3   OH214818   1.843   0.020  14.510
 1332TIP3    H114819   1.811   0.081  14.443
 1332TIP3    H214820   1.812   5.126  14.481
 1333TIP3   OH214821   3.146   0.020  15.232
 1333TIP3    H114822   3.157   5.178  15.143
 1333TIP3    H214823   3.175   0.111  15.228
 1334TIP3   OH214824   3.397   3.974  15.201
 1334TIP3    H114825   3.348   3.968  15.119
 1334TIP3    H214826   3.480   4.016  15.175
 1335TIP3   OH214827   2.600   3.828  14.975
 1335TIP3    H114828   2.576   3.736  14.987
 1335TIP3    H214829   2.521   3.877  14.999
 1336TIP3   OH214830   3.212   5.178  14.639
 1336TIP3    H114831   3.199   0.049  14.568
 1336TIP3    H214832   3.212   5.092  14.596
 1337TIP3   OH214833   3.348   5.073  15.356
 1337TIP3    H114834   3.365   5.011  15.286
 1337TIP3    H214835   3.277   5.128  15.324
 1338TIP3   OH214836   3.574   4.730  15.261
 1338TIP3    H114837   3.502   4.787  15.234
 1338TIP3    H214838   3.647   4.755  15.205
 1339TIP3   OH214839   3.190   4.565  15.396
 1339TIP3    H114840   3.183   4.650  15.439
 1339TIP3    H214841   3.132   4.571  15.321
 1340TIP3   OH214842   2.332   4.839  14.719
 1340TIP3    H114843   2.316   4.852  14.625
 1340TIP3    H214844   2.411   4.784  14.722
 1341TIP3   OH214845   2.559   5.086  14.884
 1341TIP3    H114846   2.574   5.063  14.792
 1341TIP3    H214847   2.625   5.036  14.932
 1342TIP3   OH214848   2.349   4.721  15.051
 1342TIP3    H114849   2.399   4.706  14.971
 1342TIP3    H214850   2.397   4.790  15.097
 1343TIP3   OH214851   2.500   5.091  15.509
 1343TIP3    H114852   2.438   5.127  15.572
 1343TIP3    H214853   2.463   5.112  15.423
 1344TIP3   OH214854   2.193   4.736  15.436
 1344TIP3    H114855   2.190   4.811  15.495
 1344TIP3    H214856   2.102   4.713  15.420
 1345TIP3   OH214857   3.425   3.866  14.384
 1345TIP3    H114858   3.333   3.877  14.357
 1345TIP3    H214859   3.474   3.871  14.302
 1346TIP3   OH214860   1.950   4.951  15.312
 1346TIP3    H114861   1.935   4.924  15.221
 1346TIP3    H214862   1.956   4.869  15.360
 1347TIP3   OH214863   3.369   4.403  15.567
 1347TIP3    H114864   3.308   4.451  15.511
 1347TIP3    H214865   3.369   4.314  15.531
 1348TIP3   OH214866   2.156   5.116  15.413
 1348TIP3    H114867   2.165   5.054  15.485
 1348TIP3    H214868   2.082   5.082  15.362
 1349TIP3   OH214869   2.358   3.946  15.050
 1349TIP3    H114870   2.284   3.931  14.991
 1349TIP3    H214871   2.333   4.024  15.101
 1350TIP3   OH214872   2.805   3.954  15.396
 1350TIP3    H114873   2.849   3.894  15.455
 1350TIP3    H214874   2.712   3.944  15.416
 1351TIP3   OH214875   3.099   4.298  15.464
 1351TIP3    H114876   3.089   4.295  15.560
 1351TIP3    H214877   3.115   4.391  15.445
 1352TIP3   OH214878   2.386   4.470  15.150
 1352TIP3    H114879   2.385   4.488  15.244
 1352TIP3    H214880   2.377   4.556  15.109
 1353TIP3   OH214881   2.410   4.434  14.679
 1353TIP3    H114882   2.323   4.421  14.640
 1353TIP3    H214883   2.472   4.408  14.610
 1354TIP3   OH214884   2.848   4.496  14.512
 1354TIP3    H114885   2.873   4.578  14.555
 1354TIP3    H214886   2.925   4.471  14.461
 1355TIP3   OH214887   2.820   4.461  15.579
 1355TIP3    H114888   2.811   4.385  15.636
 1355TIP3    H214889   2.897   4.507  15.612
 1356TIP3   OH214890   2.930   4.358  14.741
 1356TIP3    H114891   2.901   4.400  14.660
 1356TIP3    H214892   2.999   4.298  14.714
 1357TIP3   OH214893   2.113   4.443  15.379
 1357TIP3    H114894   2.096   4.479  15.466
 1357TIP3    H214895   2.110   4.348  15.391
 1358TIP3   OH214896   1.825   4.173  14.690
 1358TIP3    H114897   1.900   4.180  14.750
 1358TIP3    H214898   1.864   4.165  14.603
 1359TIP3   OH214899   1.876   4.254  14.192
 1359TIP3    H114900   1.947   4.300  14.145
 1359TIP3    H214901   1.834   4.323  14.244
 1360TIP3   OH214902   3.003   4.569  15.190
 1360TIP3    H114903   3.031   4.514  15.117
 1360TIP3    H214904   2.928   4.523  15.228
 1361TIP3   OH214905   2.637   4.152  14.689
 1361TIP3    H114906   2.556   4.153  14.740
 1361TIP3    H214907   2.702   4.116  14.750
 1362TIP3   OH214908   2.163   4.367  14.593
 1362TIP3    H114909   2.075   4.395  14.571
 1362TIP3    H214910   2.161   4.271  14.582
 1363TIP3   OH214911   3.128   4.170  15.074
 1363TIP3    H114912   3.061   4.158  15.141
 1363TIP3    H214913   3.152   4.081  15.049
 1364TIP3   OH214914   2.149   4.934  15.620
 1364TIP3    H114915   2.206   4.928  15.696
 1364TIP3    H214916   2.060   4.932  15.656
 1365TIP3   OH214917   2.745   4.501  14.897
 1365TIP3    H114918   2.803   4.447  14.843
 1365TIP3    H214919   2.708   4.441  14.961
 1366TIP3   OH214920   2.228   4.093  14.590
 1366TIP3    H114921   2.178   4.014  14.610
 1366TIP3    H214922   2.289   4.067  14.522
 1367TIP3   OH214923   2.630   4.354  15.102
 1367TIP3    H114924   2.548   4.400  15.119
 1367TIP3    H214925   2.688   4.381  15.173
 1368TIP3   OH214926   2.696   4.794  14.400
 1368TIP3    H114927   2.681   4.881  14.362
 1368TIP3    H214928   2.724   4.812  14.490
 1369TIP3   OH214929   3.377   4.892  15.154
 1369TIP3    H114930   3.436   4.940  15.096
 1369TIP3    H214931   3.305   4.864  15.098
 1370TIP3   OH214932   2.760   5.001  15.446
 1370TIP3    H114933   2.833   5.039  15.496
 1370TIP3    H214934   2.684   5.053  15.472
 1371TIP3   OH214935   3.071   4.397  14.387
 1371TIP3    H114936   3.161   4.385  14.418
 1371TIP3    H214937   3.058   4.327  14.324
 1372TIP3   OH214938   2.161   4.879  14.918
 1372TIP3    H114939   2.214   4.869  14.839
 1372TIP3    H214940   2.203   4.823  14.983
 1373TIP3   OH214941   1.914   4.698  15.427
 1373TIP3    H114942   1.897   4.627  15.489
 1373TIP3    H214943   1.837   4.698  15.369
 1374TIP3   OH214944   2.617   4.646  15.630
 1374TIP3    H114945   2.609   4.684  15.542
 1374TIP3    H214946   2.683   4.577  15.620
 1375TIP3   OH214947   2.990   5.127  15.534
 1375TIP3    H114948   2.978   0.017  15.485
 1375TIP3    H214949   3.022   5.155  15.620
 1376TIP3   OH214950   3.446   4.492  14.279
 1376TIP3    H114951   3.431   4.495  14.184
 1376TIP3    H214952   3.516   4.555  14.294
 1377TIP3   OH214953   3.570   4.980  15.507
 1377TIP3    H114954   3.500   5.017  15.453
 1377TIP3    H214955   3.648   4.986  15.453
 1378TIP3   OH214956   3.182   4.828  14.962
 1378TIP3    H114957   3.089   4.806  14.959
 1378TIP3    H214958   3.226   4.750  14.929
 1379TIP3   OH214959   2.315   5.155  14.622
 1379TIP3    H114960   2.391   0.021  14.611
 1379TIP3    H214961   2.302   5.151  14.717
 1380TIP3   OH214962   2.572   4.988  14.618
 1380TIP3    H114963   2.592   5.030  14.534
 1380TIP3    H214964   2.477   4.995  14.626
 1381TIP3   OH214965   2.896   5.076  15.209
 1381TIP3    H114966   2.861   5.050  15.294
 1381TIP3    H214967   2.976   5.125  15.229
 1382TIP3   OH214968   2.073   4.169  15.429
 1382TIP3    H114969   2.000   4.204  15.480
 1382TIP3    H214970   2.088   4.082  15.465
 1383TIP3   OH214971   2.585   5.108  13.896
 1383TIP3    H114972   2.532   5.032  13.870
 1383TIP3    H214973   2.573   5.114  13.991
 1384TIP3   OH214974   2.664   5.072  14.370
 1384TIP3    H114975   2.737   5.130  14.391
 1384TIP3    H214976   2.616   5.117  14.300
 1385TIP3   OH214977   2.268   4.934  14.468
 1385TIP3    H114978   2.275   5.020  14.510
 1385TIP3    H214979   2.225   4.951  14.385
 1386TIP3   OH214980   2.945   4.163  15.285
 1386TIP3    H114981   3.001   4.196  15.355
 1386TIP3    H214982   2.897   4.090  15.325
 1387TIP3   OH214983   3.037   3.976  14.587
 1387TIP3    H114984   3.086   3.948  14.509
 1387TIP3    H214985   3.076   4.059  14.612
 1388TIP3   OH214986   2.613   4.360  14.507
 1388TIP3    H114987   2.698   4.404  14.506
 1388TIP3    H214988   2.626   4.285  14.565
 1389TIP3   OH214989   2.808   4.407  15.304
 1389TIP3    H114990   2.804   4.427  15.398
 1389TIP3    H214991   2.850   4.321  15.299
 1390TIP3   OH214992   2.764   3.957  14.529
 1390TIP3    H114993   2.728   4.032  14.578
 1390TIP3    H214994   2.858   3.961  14.545
 1391TIP3   OH214995   3.343   4.162  15.420
 1391TIP3    H114996   3.251   4.188  15.419
 1391TIP3    H214997   3.354   4.107  15.343
 1392TIP3   OH214998   3.284   4.576  14.893
 1392TIP3    H114999   3.209   4.521  14.915
 1392TIP3    H215000   3.358   4.531  14.934
 1393TIP3   OH215001   2.325   0.079  14.277
 1393TIP3    H115002   2.347   0.162  14.319
 1393TIP3    H215003   2.405   0.053  14.231
 1394TIP3   OH215004   2.015   4.483  14.105
 1394TIP3    H115005   2.089   4.529  14.065
 1394TIP3    H215006   1.940   4.540  14.090
 1395TIP3   OH215007   2.116   3.905  14.925
 1395TIP3    H115008   2.111   3.885  14.832
 1395TIP3    H215009   2.077   3.828  14.968
 1396TIP3   OH215010   1.890   4.923  15.703
 1396TIP3    H115011   1.838   4.959  15.775
 1396TIP3    H215012   1.837   4.940  15.625
 1397TIP3   OH215013   2.366   4.987  14.059
 1397TIP3    H115014   2.439   5.024  14.109
 1397TIP3    H215015   2.395   4.898  14.037
 1398TIP3   OH215016   2.580   4.910  15.707
 1398TIP3    H115017   2.560   4.943  15.619
 1398TIP3    H215018   2.604   4.818  15.692
 1399TIP3   OH215019   2.842   4.945  14.034
 1399TIP3    H115020   2.884   5.017  14.081
 1399TIP3    H215021   2.793   4.987  13.963
 1400TIP3   OH215022   3.167   4.909  15.497
 1400TIP3    H115023   3.235   4.957  15.449
 1400TIP3    H215024   3.094   4.971  15.502
 1401TIP3   OH215025   2.056   4.541  15.645
 1401TIP3    H115026   2.068   4.635  15.653
 1401TIP3    H215027   1.992   4.520  15.714
 1402TIP3   OH215028   2.412   4.577  15.399
 1402TIP3    H115029   2.331   4.626  15.416
 1402TIP3    H215030   2.480   4.644  15.396
 1403TIP3   OH215031   2.974   4.821  15.822
 1403TIP3    H115032   3.068   4.817  15.803
 1403TIP3    H215033   2.939   4.739  15.788
 1404TIP3   OH215034   2.442   4.330  15.516
 1404TIP3    H115035   2.469   4.272  15.446
 1404TIP3    H215036   2.439   4.417  15.476
 1405TIP3   OH215037   2.503   4.176  15.290
 1405TIP3    H115038   2.555   4.212  15.219
 1405TIP3    H215039   2.414   4.173  15.256
 1406TIP3   OH215040   2.599   4.784  15.390
 1406TIP3    H115041   2.671   4.844  15.408
 1406TIP3    H215042   2.554   4.822  15.314
 1407TIP3   OH215043   3.046   4.566  15.700
 1407TIP3    H115044   3.072   4.478  15.728
 1407TIP3    H215045   3.124   4.619  15.717
 1408TIP3   OH215046   3.236   4.781  15.724
 1408TIP3    H115047   3.210   4.822  15.642
 1408TIP3    H215048   3.328   4.759  15.713
 1409TIP3   OH215049   2.267   4.386  15.723
 1409TIP3    H115050   2.193   4.439  15.695
 1409TIP3    H215051   2.315   4.367  15.643
 1410TIP3   OH215052   2.522   3.922  15.397
 1410TIP3    H115053   2.517   4.012  15.363
 1410TIP3    H215054   2.446   3.878  15.358
 1411TIP3   OH215055   2.791   4.256  15.765
 1411TIP3    H115056   2.784   4.160  15.772
 1411TIP3    H215057   2.703   4.287  15.787
 1412TIP3   OH215058   3.061   4.292  15.738
 1412TIP3    H115059   2.968   4.281  15.758
 1412TIP3    H215060   3.103   4.217  15.778
 1413TIP3   OH215061   3.144   4.054  15.851
 1413TIP3    H115062   3.135   3.972  15.801
 1413TIP3    H215063   3.116   4.031  15.939
 1414TIP3   OH215064   2.102   4.162  15.759
 1414TIP3    H115065   2.157   4.084  15.767
 1414TIP3    H215066   2.165   4.235  15.763
 1415TIP3   OH215067   2.520   3.826  15.651
 1415TIP3    H115068   2.569   3.744  15.641
 1415TIP3    H215069   2.518   3.864  15.563
 1416TIP3   OH215070   2.662   4.015  15.798
 1416TIP3    H115071   2.615   3.941  15.759
 1416TIP3    H215072   2.596   4.085  15.802
 1417TIP3   OH215073   2.164   5.055  14.233
 1417TIP3    H115074   2.209   5.136  14.256
 1417TIP3    H215075   2.218   5.017  14.163
 1418TIP3   OH215076   3.460   0.054  15.741
 1418TIP3    H115077   3.395   5.183  15.774
 1418TIP3    H215078   3.427   0.140  15.768
 1419TIP3   OH215079   3.698   4.891  14.403
 1419TIP3    H115080   3.763   4.961  14.411
 1419TIP3    H215081   3.698   4.848  14.489
 1420TIP3   OH215082   3.683   4.702  14.611
 1420TIP3    H115083   3.596   4.664  14.627
 1420TIP3    H215084   3.721   4.712  14.699
 1421TIP3   OH215085   3.539   5.039  14.997
 1421TIP3    H115086   3.632   5.059  14.993
 1421TIP3    H215087   3.499   5.102  14.936
 1422TIP3   OH215088   3.644   4.683  14.240
 1422TIP3    H115089   3.609   4.714  14.156
 1422TIP3    H215090   3.658   4.762  14.291
 1423TIP3   OH215091   3.433   4.578  14.651
 1423TIP3    H115092   3.401   4.500  14.608
 1423TIP3    H215093   3.381   4.585  14.731
 1424TIP3   OH215094   1.893   4.790  15.089
 1424TIP3    H115095   1.891   4.782  14.993
 1424TIP3    H215096   1.964   4.732  15.116
 1425TIP3   OH215097   3.502   4.764  15.658
 1425TIP3    H115098   3.548   4.685  15.630
 1425TIP3    H215099   3.526   4.830  15.593
 1426TIP3   OH215100   3.608   4.530  15.558
 1426TIP3    H115101   3.525   4.483  15.554
 1426TIP3    H215102   3.671   4.464  15.587
 1427TIP3   OH215103   3.332   4.346  14.481
 1427TIP3    H115104   3.386   4.267  14.490
 1427TIP3    H215105   3.375   4.395  14.410
 1428TIP3   OH215106   3.477   4.422  15.020
 1428TIP3    H115107   3.572   4.435  15.014
 1428TIP3    H215108   3.457   4.436  15.113
 1429TIP3   OH215109   3.443   4.492  15.283
 1429TIP3    H115110   3.357   4.519  15.316
 1429TIP3    H215111   3.495   4.573  15.282
 1430TIP3   OH215112   1.878   4.243  15.614
 1430TIP3    H115113   1.950   4.226  15.675
 1430TIP3    H215114   1.812   4.178  15.636
 1431TIP3   OH215115   3.648   3.870  15.797
 1431TIP3    H115116   3.727   3.817  15.793
 1431TIP3    H215117   3.669   3.949  15.747
 1432TIP3   OH215118   3.464   4.103  14.526
 1432TIP3    H115119   3.459   4.073  14.616
 1432TIP3    H215120   3.450   4.025  14.473
 1433TIP3   OH215121   2.013   4.161  14.897
 1433TIP3    H115122   2.052   4.075  14.911
 1433TIP3    H215123   2.078   4.223  14.930
 1434TIP3   OH215124   1.884   4.476  15.026
 1434TIP3    H115125   1.934   4.477  14.944
 1434TIP3    H215126   1.944   4.513  15.091
 1435TIP3   OH215127   3.599   4.084  15.612
 1435TIP3    H115128   3.529   4.104  15.673
 1435TIP3    H215129   3.555   4.045  15.537
 1436TIP3   OH215130   1.860   4.098  14.420
 1436TIP3    H115131   1.771   4.064  14.413
 1436TIP3    H215132   1.874   4.147  14.339
 1437TIP3   OH215133   1.755   3.994  15.292
 1437TIP3    H115134   1.719   3.942  15.364
 1437TIP3    H215135   1.747   4.085  15.321
 1438TIP3   OH215136   3.518   3.853  15.424
 1438TIP3    H115137   3.467   3.887  15.350
 1438TIP3    H215138   3.539   3.763  15.399
 1439TIP3   OH215139   2.790   3.990  14.848
 1439TIP3    H115140   2.734   3.937  14.905
 1439TIP3    H215141   2.876   3.950  14.855
 1440TIP3   OH215142   3.253   3.942  14.967
 1440TIP3    H115143   3.320   3.951  14.899
 1440TIP3    H215144   3.180   3.899  14.923
 1441TIP3   OH215145   3.482   3.948  14.774
 1441TIP3    H115146   3.557   3.896  14.746
 1441TIP3    H215147   3.520   4.031  14.804
 1442TIP3   OH215148   2.099   3.857  14.656
 1442TIP3    H115149   2.009   3.838  14.631
 1442TIP3    H215150   2.146   3.776  14.639
 1443TIP3   OH215151   2.014   3.877  14.351
 1443TIP3    H115152   2.089   3.915  14.306
 1443TIP3    H215153   1.966   3.952  14.386
 1444TIP3   OH215154   2.601   3.784  14.684
 1444TIP3    H115155   2.666   3.836  14.637
 1444TIP3    H215156   2.611   3.810  14.775
 1445TIP3   OH215157   3.030   3.840  14.830
 1445TIP3    H115158   3.034   3.872  14.740
 1445TIP3    H215159   3.013   3.746  14.822
 1446TIP3   OH215160   3.153   3.888  14.350
 1446TIP3    H115161   3.108   3.947  14.290
 1446TIP3    H215162   3.111   3.803  14.336
 1447TIP3   OH215163   2.239   3.990  14.231
 1447TIP3    H115164   2.274   3.916  14.181
 1447TIP3    H215165   2.309   4.013  14.293
 1448TIP3   OH215166   2.448   4.042  14.414
 1448TIP3    H115167   2.499   3.966  14.441
 1448TIP3    H215168   2.506   4.116  14.426
 1449TIP3   OH215169   2.077   3.917  15.548
 1449TIP3    H115170   2.028   3.846  15.589
 1449TIP3    H215171   2.152   3.931  15.606
 1450TIP3   OH215172   2.270   3.920  15.745
 1450TIP3    H115173   2.360   3.899  15.718
 1450TIP3    H215174   2.241   3.842  15.793
 1451TIP3   OH215175   3.141   3.798  15.731
 1451TIP3    H115176   3.142   3.716  15.781
 1451TIP3    H215177   3.233   3.811  15.707
 1452TIP3   OH215178   4.817   4.921  14.589
 1452TIP3    H115179   4.826   5.006  14.632
 1452TIP3    H215180   4.746   4.933  14.527
 1453TIP3   OH215181   4.516   4.728  15.003
 1453TIP3    H115182   4.573   4.712  15.078
 1453TIP3    H215183   4.522   4.648  14.951
 1454TIP3   OH215184   3.971   4.621  15.153
 1454TIP3    H115185   3.985   4.562  15.227
 1454TIP3    H215186   4.058   4.652  15.129
 1455TIP3   OH215187   4.005   5.080  14.994
 1455TIP3    H115188   3.964   4.997  15.016
 1455TIP3    H215189   4.096   5.058  14.974
 1456TIP3   OH215190   3.830   4.574  14.416
 1456TIP3    H115191   3.790   4.622  14.489
 1456TIP3    H215192   3.779   4.601  14.339
 1457TIP3   OH215193   3.834   4.713  14.842
 1457TIP3    H115194   3.856   4.620  14.846
 1457TIP3    H215195   3.919   4.758  14.840
 1458TIP3   OH215196   4.524   5.005  15.012
 1458TIP3    H115197   4.524   4.915  14.982
 1458TIP3    H215198   4.599   5.012  15.071
 1459TIP3   OH215199   4.915   4.534  15.094
 1459TIP3    H115200   5.000   4.490  15.088
 1459TIP3    H215201   4.868   4.506  15.015
 1460TIP3   OH215202   4.316   4.222  14.803
 1460TIP3    H115203   4.278   4.279  14.736
 1460TIP3    H215204   4.283   4.135  14.780
 1461TIP3   OH215205   4.989   4.355  14.658
 1461TIP3    H115206   5.059   4.292  14.675
 1461TIP3    H215207   5.034   4.438  14.646
 1462TIP3   OH215208   3.920   4.448  14.837
 1462TIP3    H115209   3.994   4.402  14.878
 1462TIP3    H215210   3.917   4.413  14.748
 1463TIP3   OH215211   4.304   4.556  14.807
 1463TIP3    H115212   4.384   4.515  14.840
 1463TIP3    H215213   4.267   4.491  14.748
 1464TIP3   OH215214   4.132   4.131  15.202
 1464TIP3    H115215   4.120   4.191  15.128
 1464TIP3    H215216   4.054   4.142  15.255
 1465TIP3   OH215217   4.847   0.003  14.632
 1465TIP3    H115218   4.874   5.190  14.541
 1465TIP3    H215219   4.781   0.072  14.634
 1466TIP3   OH215220   4.352   4.916  15.218
 1466TIP3    H115221   4.312   4.997  15.251
 1466TIP3    H215222   4.414   4.946  15.152
 1467TIP3   OH215223   4.114   4.299  14.978
 1467TIP3    H115224   4.155   4.360  15.039
 1467TIP3    H215225   4.186   4.267  14.924
 1468TIP3   OH215226   4.254   5.166  15.293
 1468TIP3    H115227   4.242   0.022  15.211
 1468TIP3    H215228   4.165   5.153  15.327
 1469TIP3   OH215229   3.896   5.096  14.389
 1469TIP3    H115230   3.954   5.056  14.324
 1469TIP3    H215231   3.846   5.161  14.339
 1470TIP3   OH215232   4.457   3.839  14.909
 1470TIP3    H115233   4.469   3.753  14.949
 1470TIP3    H215234   4.384   3.878  14.956
 1471TIP3   OH215235   4.773   4.737  14.328
 1471TIP3    H115236   4.717   4.813  14.342
 1471TIP3    H215237   4.857   4.773  14.300
 1472TIP3   OH215238   4.679   4.535  14.102
 1472TIP3    H115239   4.739   4.580  14.043
 1472TIP3    H215240   4.597   4.530  14.054
 1473TIP3   OH215241   5.077   4.867  14.501
 1473TIP3    H115242   4.993   4.895  14.536
 1473TIP3    H215243   5.134   4.943  14.510
 1474TIP3   OH215244   5.004   4.529  15.368
 1474TIP3    H115245   4.938   4.582  15.413
 1474TIP3    H215246   4.974   4.527  15.277
 1475TIP3   OH215247   4.230   4.748  14.625
 1475TIP3    H115248   4.156   4.782  14.675
 1475TIP3    H215249   4.271   4.684  14.683
 1476TIP3   OH215250   4.258   5.019  14.896
 1476TIP3    H115251   4.255   5.065  14.812
 1476TIP3    H215252   4.350   5.024  14.923
 1477TIP3   OH215253   4.238   4.701  15.086
 1477TIP3    H115254   4.311   4.689  15.026
 1477TIP3    H215255   4.264   4.775  15.142
 1478TIP3   OH215256   4.351   5.079  15.549
 1478TIP3    H115257   4.285   5.126  15.600
 1478TIP3    H215258   4.329   5.098  15.458
 1479TIP3   OH215259   5.059   4.775  14.243
 1479TIP3    H115260   5.070   4.812  14.331
 1479TIP3    H215261   5.144   4.786  14.202
 1480TIP3   OH215262   4.091   4.721  15.456
 1480TIP3    H115263   4.091   4.793  15.519
 1480TIP3    H215264   3.999   4.711  15.432
 1481TIP3   OH215265   3.797   4.954  15.343
 1481TIP3    H115266   3.789   4.936  15.250
 1481TIP3    H215267   3.810   4.868  15.383
 1482TIP3   OH215268   4.020   5.103  15.428
 1482TIP3    H115269   4.033   5.042  15.500
 1482TIP3    H215270   3.938   5.074  15.386
 1483TIP3   OH215271   4.228   3.916  15.055
 1483TIP3    H115272   4.147   3.903  15.005
 1483TIP3    H215273   4.210   3.992  15.111
 1484TIP3   OH215274   4.708   3.952  15.427
 1484TIP3    H115275   4.755   3.891  15.484
 1484TIP3    H215276   4.616   3.927  15.435
 1485TIP3   OH215277   5.066   4.273  15.462
 1485TIP3    H115278   5.015   4.272  15.542
 1485TIP3    H215279   5.051   4.360  15.424
 1486TIP3   OH215280   4.601   4.139  14.127
 1486TIP3    H115281   4.531   4.148  14.191
 1486TIP3    H215282   4.556   4.125  14.044
 1487TIP3   OH215283   4.233   4.443  15.182
 1487TIP3    H115284   4.175   4.441  15.258
 1487TIP3    H215285   4.239   4.536  15.158
 1488TIP3   OH215286   4.188   4.379  14.621
 1488TIP3    H115287   4.093   4.374  14.615
 1488TIP3    H215288   4.219   4.337  14.541
 1489TIP3   OH215289   4.821   4.643  14.642
 1489TIP3    H115290   4.805   4.736  14.628
 1489TIP3    H215291   4.917   4.635  14.639
 1490TIP3   OH215292   4.675   4.486  15.644
 1490TIP3    H115293   4.658   4.397  15.676
 1490TIP3    H215294   4.768   4.499  15.660
 1491TIP3   OH215295   4.808   4.462  14.849
 1491TIP3    H115296   4.802   4.538  14.791
 1491TIP3    H215297   4.862   4.399  14.801
 1492TIP3   OH215298   4.014   4.436  15.356
 1492TIP3    H115299   3.971   4.478  15.430
 1492TIP3    H215300   3.980   4.346  15.357
 1493TIP3   OH215301   4.286   4.295  14.026
 1493TIP3    H115302   4.250   4.227  14.082
 1493TIP3    H215303   4.216   4.360  14.019
 1494TIP3   OH215304   3.667   4.151  14.782
 1494TIP3    H115305   3.736   4.159  14.848
 1494TIP3    H215306   3.712   4.164  14.698
 1495TIP3   OH215307   3.847   4.310  14.239
 1495TIP3    H115308   3.831   4.216  14.237
 1495TIP3    H215309   3.782   4.345  14.299
 1496TIP3   OH215310   4.675   4.629  15.207
 1496TIP3    H115311   4.760   4.612  15.167
 1496TIP3    H215312   4.659   4.552  15.263
 1497TIP3   OH215313   4.587   4.238  14.711
 1497TIP3    H115314   4.502   4.244  14.754
 1497TIP3    H215315   4.628   4.161  14.750
 1498TIP3   OH215316   3.917   4.363  14.572
 1498TIP3    H115317   3.877   4.435  14.524
 1498TIP3    H215318   3.863   4.287  14.549
 1499TIP3   OH215319   4.251   4.271  14.376
 1499TIP3    H115320   4.344   4.255  14.390
 1499TIP3    H215321   4.223   4.201  14.317
 1500TIP3   OH215322   5.042   3.996  15.088
 1500TIP3    H115323   5.097   4.071  15.066
 1500TIP3    H215324   5.011   3.963  15.004
 1501TIP3   OH215325   4.047   4.928  15.640
 1501TIP3    H115326   4.121   4.927  15.700
 1501TIP3    H215327   3.970   4.920  15.697
 1502TIP3   OH215328   4.538   4.463  14.920
 1502TIP3    H115329   4.628   4.446  14.892
 1502TIP3    H215330   4.524   4.405  14.995
 1503TIP3   OH215331   4.193   4.004  14.699
 1503TIP3    H115332   4.109   3.960  14.686
 1503TIP3    H215333   4.258   3.942  14.665
 1504TIP3   OH215334   4.483   4.333  15.159
 1504TIP3    H115335   4.397   4.374  15.170
 1504TIP3    H215336   4.535   4.367  15.233
 1505TIP3   OH215337   4.626   4.970  14.387
 1505TIP3    H115338   4.597   5.006  14.303
 1505TIP3    H215339   4.546   4.963  14.439
 1506TIP3   OH215340   4.796   4.283  14.248
 1506TIP3    H115341   4.727   4.231  14.206
 1506TIP3    H215342   4.865   4.289  14.182
 1507TIP3   OH215343   4.803   4.926  15.459
 1507TIP3    H115344   4.795   4.882  15.543
 1507TIP3    H215345   4.818   5.018  15.481
 1508TIP3   OH215346   4.986   4.514  14.305
 1508TIP3    H115347   5.066   4.466  14.328
 1508TIP3    H215348   5.017   4.601  14.281
 1509TIP3   OH215349   4.090   4.806  14.865
 1509TIP3    H115350   4.146   4.884  14.868
 1509TIP3    H215351   4.132   4.744  14.924
 1510TIP3   OH215352   4.836   5.167  14.354
 1510TIP3    H115353   4.794   0.047  14.306
 1510TIP3    H215354   4.767   5.101  14.363
 1511TIP3   OH215355   3.816   4.695  15.440
 1511TIP3    H115356   3.820   4.684  15.535
 1511TIP3    H215357   3.729   4.664  15.415
 1512TIP3   OH215358   4.524   4.710  15.651
 1512TIP3    H115359   4.503   4.727  15.559
 1512TIP3    H215360   4.562   4.623  15.651
 1513TIP3   OH215361   4.875   5.179  15.523
 1513TIP3    H115362   4.831   0.067  15.495
 1513TIP3    H215363   4.931   0.015  15.596
 1514TIP3   OH215364   4.949   4.811  15.110
 1514TIP3    H115365   4.935   4.716  15.099
 1514TIP3    H215366   5.042   4.823  15.091
 1515TIP3   OH215367   4.228   5.145  14.654
 1515TIP3    H115368   4.297   0.020  14.643
 1515TIP3    H215369   4.152   5.183  14.610
 1516TIP3   OH215370   4.393   4.948  14.527
 1516TIP3    H115371   4.339   5.023  14.554
 1516TIP3    H215372   4.343   4.871  14.553
 1517TIP3   OH215373   4.729   4.958  15.190
 1517TIP3    H115374   4.741   4.950  15.284
 1517TIP3    H215375   4.804   4.913  15.152
 1518TIP3   OH215376   5.036   5.146  14.163
 1518TIP3    H115377   5.041   0.040  14.120
 1518TIP3    H215378   4.977   5.160  14.237
 1519TIP3   OH215379   3.895   4.184  15.335
 1519TIP3    H115380   3.813   4.231  15.321
 1519TIP3    H215381   3.869   4.093  15.348
 1520TIP3   OH215382   4.590   5.081  14.134
 1520TIP3    H115383   4.674   5.038  14.114
 1520TIP3    H215384   4.603   5.172  14.110
 1521TIP3   OH215385   4.315   0.084  14.385
 1521TIP3    H115386   4.368   0.100  14.463
 1521TIP3    H215387   4.295   0.171  14.352
 1522TIP3   OH215388   4.799   4.206  15.376
 1522TIP3    H115389   4.894   4.199  15.387
 1522TIP3    H215390   4.766   4.118  15.395
 1523TIP3   OH215391   4.861   4.163  14.486
 1523TIP3    H115392   4.834   4.212  14.408
 1523TIP3    H215393   4.885   4.229  14.549
 1524TIP3   OH215394   4.679   4.429  14.530
 1524TIP3    H115395   4.719   4.502  14.577
 1524TIP3    H215396   4.651   4.368  14.599
 1525TIP3   OH215397   4.636   4.419  15.374
 1525TIP3    H115398   4.636   4.445  15.466
 1525TIP3    H215399   4.693   4.343  15.370
 1526TIP3   OH215400   4.661   3.975  14.535
 1526TIP3    H115401   4.667   3.977  14.630
 1526TIP3    H215402   4.733   4.029  14.504
 1527TIP3   OH215403   4.202   4.080  14.185
 1527TIP3    H115404   4.114   4.040  14.181
 1527TIP3    H215405   4.261   4.009  14.159
 1528TIP3   OH215406   4.312   5.082  14.184
 1528TIP3    H115407   4.305   5.145  14.256
 1528TIP3    H215408   4.405   5.079  14.164
 1529TIP3   OH215409   3.972   3.893  14.953
 1529TIP3    H115410   3.968   3.884  14.857
 1529TIP3    H215411   3.939   3.809  14.986
 1530TIP3   OH215412   3.855   4.910  15.846
 1530TIP3    H115413   3.886   4.944  15.930
 1530TIP3    H215414   3.764   4.939  15.842
 1531TIP3   OH215415   4.514   4.974  15.739
 1531TIP3    H115416   4.472   5.010  15.661
 1531TIP3    H215417   4.525   4.881  15.720
 1532TIP3   OH215418   4.838   4.956  14.095
 1532TIP3    H115419   4.910   5.017  14.111
 1532TIP3    H215420   4.879   4.870  14.092
 1533TIP3   OH215421   5.081   4.922  15.518
 1533TIP3    H115422   5.141   4.921  15.443
 1533TIP3    H215423   4.993   4.926  15.479
 1534TIP3   OH215424   3.837   4.669  15.709
 1534TIP3    H115425   3.850   4.745  15.766
 1534TIP3    H215426   3.800   4.603  15.767
 1535TIP3   OH215427   4.297   4.543  15.473
 1535TIP3    H115428   4.221   4.599  15.463
 1535TIP3    H215429   4.370   4.594  15.438
 1536TIP3   OH215430   4.444   4.529  13.962
 1536TIP3    H115431   4.374   4.592  13.946
 1536TIP3    H215432   4.398   4.445  13.975
 1537TIP3   OH215433   4.798   4.778  15.700
 1537TIP3    H115434   4.853   4.700  15.700
 1537TIP3    H215435   4.708   4.744  15.696
 1538TIP3   OH215436   4.401   4.287  15.541
 1538TIP3    H115437   4.395   4.230  15.464
 1538TIP3    H215438   4.372   4.373  15.510
 1539TIP3   OH215439   4.380   4.128  15.318
 1539TIP3    H115440   4.431   4.173  15.251
 1539TIP3    H215441   4.291   4.126  15.282
 1540TIP3   OH215442   4.480   4.730  15.380
 1540TIP3    H115443   4.554   4.712  15.323
 1540TIP3    H215444   4.431   4.799  15.335
 1541TIP3   OH215445   4.944   4.541  15.691
 1541TIP3    H115446   4.952   4.447  15.700
 1541TIP3    H215447   5.033   4.575  15.702
 1542TIP3   OH215448   4.157   4.447  15.696
 1542TIP3    H115449   4.092   4.380  15.672
 1542TIP3    H215450   4.198   4.471  15.613
 1543TIP3   OH215451   4.437   3.884  15.432
 1543TIP3    H115452   4.418   3.972  15.400
 1543TIP3    H215453   4.382   3.827  15.380
 1544TIP3   OH215454   4.629   4.218  15.686
 1544TIP3    H115455   4.600   4.143  15.738
 1544TIP3    H215456   4.556   4.236  15.627
 1545TIP3   OH215457   4.904   4.265  15.685
 1545TIP3    H115458   4.812   4.242  15.676
 1545TIP3    H215459   4.940   4.200  15.744
 1546TIP3   OH215460   4.992   4.066  15.856
 1546TIP3    H115461   5.005   3.977  15.823
 1546TIP3    H215462   4.937   4.055  15.934
 1547TIP3   OH215463   4.017   4.192  15.655
 1547TIP3    H115464   3.992   4.104  15.628
 1547TIP3    H215465   4.100   4.181  15.702
 1548TIP3   OH215466   4.439   3.756  15.675
 1548TIP3    H115467   4.520   3.707  15.668
 1548TIP3    H215468   4.431   3.802  15.591
 1549TIP3   OH215469   4.489   4.012  15.800
 1549TIP3    H115470   4.470   3.921  15.775
 1549TIP3    H215471   4.402   4.052  15.808
 1550TIP3   OH215472   4.046   5.002  14.178
 1550TIP3    H115473   4.137   5.029  14.172
 1550TIP3    H215474   4.044   4.913  14.144
 1551TIP3   OH215475   3.788   4.817  15.098
 1551TIP3    H115476   3.773   4.798  15.006
 1551TIP3    H215477   3.854   4.753  15.126
 1552TIP3   OH215478   3.763   4.300  15.614
 1552TIP3    H115479   3.853   4.269  15.618
 1552TIP3    H215480   3.709   4.221  15.615
 1553TIP3   OH215481   3.865   4.147  14.977
 1553TIP3    H115482   3.903   4.059  14.976
 1553TIP3    H215483   3.941   4.205  14.980
 1554TIP3   OH215484   3.746   4.472  15.048
 1554TIP3    H115485   3.795   4.450  14.968
 1554TIP3    H215486   3.807   4.525  15.100
 1555TIP3   OH215487   3.734   4.169  14.495
 1555TIP3    H115488   3.640   4.156  14.505
 1555TIP3    H215489   3.757   4.119  14.417
 1556TIP3   OH215490   3.766   3.936  15.319
 1556TIP3    H115491   3.693   3.907  15.374
 1556TIP3    H215492   3.723   3.979  15.244
 1557TIP3   OH215493   4.675   3.986  14.807
 1557TIP3    H115494   4.611   3.938  14.859
 1557TIP3    H215495   4.760   3.956  14.839
 1558TIP3   OH215496   3.957   3.855  14.681
 1558TIP3    H115497   3.864   3.853  14.659
 1558TIP3    H215498   3.990   3.770  14.653
 1559TIP3   OH215499   4.416   3.847  14.634
 1559TIP3    H115500   4.492   3.890  14.595
 1559TIP3    H215501   4.436   3.841  14.727
 1560TIP3   OH215502   4.940   3.884  14.854
 1560TIP3    H115503   4.991   3.865  14.775
 1560TIP3    H215504   4.920   3.797  14.890
 1561TIP3   OH215505   4.516   4.205  14.409
 1561TIP3    H115506   4.545   4.124  14.452
 1561TIP3    H215507   4.568   4.274  14.450
 1562TIP3   OH215508   3.984   3.916  15.623
 1562TIP3    H115509   3.924   3.852  15.661
 1562TIP3    H215510   4.066   3.903  15.670
 1563TIP3   OH215511   4.192   3.830  15.771
 1563TIP3    H115512   4.280   3.805  15.740
 1563TIP3    H215513   4.160   3.752  15.815
 1564TIP3   OH215514   5.013   3.796  15.790
 1564TIP3    H115515   4.981   3.722  15.842
 1564TIP3    H215516   5.101   3.769  15.763
 1565TIP3   OH215517   1.302   1.170  15.920
 1565TIP3    H115518   1.312   1.109  15.848
 1565TIP3    H215519   1.209   1.191  15.922
 1566TIP3   OH215520   0.495   0.276  15.839
 1566TIP3    H115521   0.469   0.302  15.927
 1566TIP3    H215522   0.429   0.314  15.781
 1567TIP3   OH215523   0.699   1.424  15.888
 1567TIP3    H115524   0.703   1.358  15.819
 1567TIP3    H215525   0.647   1.383  15.957
 1568TIP3   OH215526   0.148   0.701  15.812
 1568TIP3    H115527   0.241   0.689  15.793
 1568TIP3    H215528   0.108   0.617  15.789
 1569TIP3   OH215529   0.894   1.620  15.849
 1569TIP3    H115530   0.832   1.553  15.877
 1569TIP3    H215531   0.979   1.574  15.847
 1570TIP3   OH215532   1.404   1.511  15.808
 1570TIP3    H115533   1.459   1.444  15.849
 1570TIP3    H215534   1.464   1.560  15.751
 1571TIP3   OH215535   0.432   1.188  15.791
 1571TIP3    H115536   0.433   1.093  15.805
 1571TIP3    H215537   0.522   1.208  15.765
 1572TIP3   OH215538   1.035   1.227  15.860
 1572TIP3    H115539   0.948   1.223  15.900
 1572TIP3    H215540   1.027   1.176  15.779
 1573TIP3   OH215541   0.486   0.917  15.790
 1573TIP3    H115542   0.569   0.919  15.743
 1573TIP3    H215543   0.457   0.826  15.784
 1574TIP3   OH215544   1.726   1.135  15.810
 1574TIP3    H115545   1.672   1.100  15.739
 1574TIP3    H215546   1.671   1.203  15.850
 1575TIP3   OH215547   1.602   0.585  15.835
 1575TIP3    H115548   1.548   0.625  15.768
 1575TIP3    H215549   1.562   0.499  15.850
 1576TIP3   OH215550   1.473   0.338  15.838
 1576TIP3    H115551   1.469   0.284  15.917
 1576TIP3    H215552   1.383   0.340  15.806
 1577TIP3   OH215553   0.332   1.814  15.903
 1577TIP3    H115554   0.353   1.820  15.996
 1577TIP3    H215555   0.385   1.741  15.871
 1578TIP3   OH215556   3.192   1.127  15.842
 1578TIP3    H115557   3.192   1.081  15.758
 1578TIP3    H215558   3.100   1.152  15.856
 1579TIP3   OH215559   2.505   0.413  15.910
 1579TIP3    H115560   2.456   0.389  15.988
 1579TIP3    H215561   2.438   0.443  15.848
 1580TIP3   OH215562   2.579   1.429  15.906
 1580TIP3    H115563   2.604   1.363  15.842
 1580TIP3    H215564   2.509   1.387  15.957
 1581TIP3   OH215565   1.864   0.651  15.883
 1581TIP3    H115566   1.858   0.671  15.976
 1581TIP3    H215567   1.775   0.626  15.858
 1582TIP3   OH215568   2.780   1.618  15.863
 1582TIP3    H115569   2.718   1.553  15.896
 1582TIP3    H215570   2.861   1.570  15.850
 1583TIP3   OH215571   3.275   1.521  15.830
 1583TIP3    H115572   3.322   1.446  15.868
 1583TIP3    H215573   3.336   1.557  15.766
 1584TIP3   OH215574   2.361   1.210  15.812
 1584TIP3    H115575   2.360   1.119  15.841
 1584TIP3    H215576   2.450   1.223  15.778
 1585TIP3   OH215577   2.925   1.220  15.841
 1585TIP3    H115578   2.837   1.217  15.877
 1585TIP3    H215579   2.920   1.168  15.760
 1586TIP3   OH215580   2.433   0.946  15.848
 1586TIP3    H115581   2.499   0.946  15.779
 1586TIP3    H215582   2.434   0.856  15.881
 1587TIP3   OH215583   3.587   1.151  15.761
 1587TIP3    H115584   3.543   1.105  15.690
 1587TIP3    H215585   3.518   1.204  15.802
 1588TIP3   OH215586   3.370   0.587  15.833
 1588TIP3    H115587   3.447   0.632  15.869
 1588TIP3    H215588   3.375   0.601  15.739
 1589TIP3   OH215589   3.355   0.308  15.804
 1589TIP3    H115590   3.364   0.400  15.829
 1589TIP3    H215591   3.266   0.285  15.831
 1590TIP3   OH215592   2.180   1.802  15.832
 1590TIP3    H115593   2.169   1.817  15.926
 1590TIP3    H215594   2.254   1.742  15.825
 1591TIP3   OH215595   4.376   0.549  15.830
 1591TIP3    H115596   4.291   0.550  15.873
 1591TIP3    H215597   4.357   0.545  15.737
 1592TIP3   OH215598   4.464   1.416  15.892
 1592TIP3    H115599   4.453   1.339  15.836
 1592TIP3    H215600   4.461   1.381  15.981
 1593TIP3   OH215601   3.933   0.730  15.876
 1593TIP3    H115602   3.997   0.676  15.830
 1593TIP3    H215603   3.906   0.678  15.951
 1594TIP3   OH215604   4.658   1.531  15.729
 1594TIP3    H115605   4.588   1.503  15.789
 1594TIP3    H215606   4.735   1.482  15.758
 1595TIP3   OH215607   4.201   1.060  15.768
 1595TIP3    H115608   4.240   0.973  15.778
 1595TIP3    H215609   4.275   1.121  15.772
 1596TIP3   OH215610   4.871   1.367  15.808
 1596TIP3    H115611   4.915   1.346  15.890
 1596TIP3    H215612   4.849   1.282  15.770
 1597TIP3   OH215613   4.366   0.842  15.783
 1597TIP3    H115614   4.436   0.874  15.726
 1597TIP3    H215615   4.395   0.754  15.808
 1598TIP3   OH215616   4.057   1.786  15.839
 1598TIP3    H115617   4.019   1.771  15.926
 1598TIP3    H215618   4.129   1.723  15.833
 1599TIP3   OH215619   1.277   3.084  15.915
 1599TIP3    H115620   1.281   3.009  15.855
 1599TIP3    H215621   1.189   3.120  15.903
 1600TIP3   OH215622   0.542   2.328  15.846
 1600TIP3    H115623   0.529   2.406  15.899
 1600TIP3    H215624   0.456   2.310  15.809
 1601TIP3   OH215625   0.761   3.304  15.853
 1601TIP3    H115626   0.719   3.231  15.808
 1601TIP3    H215627   0.691   3.369  15.864
 1602TIP3   OH215628   0.035   2.566  15.784
 1602TIP3    H115629   0.128   2.568  15.761
 1602TIP3    H215630   0.012   2.473  15.781
 1603TIP3   OH215631   0.913   3.529  15.794
 1603TIP3    H115632   0.862   3.454  15.824
 1603TIP3    H215633   1.004   3.505  15.811
 1604TIP3   OH215634   1.438   3.405  15.836
 1604TIP3    H115635   1.480   3.335  15.885
 1604TIP3    H215636   1.505   3.435  15.774
 1605TIP3   OH215637   0.395   3.011  15.776
 1605TIP3    H115638   0.431   2.931  15.814
 1605TIP3    H215639   0.472   3.064  15.754
 1606TIP3   OH215640   1.025   3.194  15.842
 1606TIP3    H115641   0.938   3.228  15.863
 1606TIP3    H215642   1.008   3.115  15.789
 1607TIP3   OH215643   0.576   2.805  15.831
 1607TIP3    H115644   0.622   2.833  15.752
 1607TIP3    H215645   0.637   2.745  15.874
 1608TIP3   OH215646   1.733   3.104  15.822
 1608TIP3    H115647   1.687   3.046  15.761
 1608TIP3    H215648   1.664   3.135  15.881
 1609TIP3   OH215649   1.485   2.458  15.820
 1609TIP3    H115650   1.502   2.523  15.888
 1609TIP3    H215651   1.468   2.510  15.741
 1610TIP3   OH215652   1.427   2.193  15.781
 1610TIP3    H115653   1.445   2.284  15.805
 1610TIP3    H215654   1.332   2.184  15.791
 1611TIP3   OH215655   0.291   3.602  15.811
 1611TIP3    H115656   0.370   3.565  15.853
 1611TIP3    H215657   0.259   3.532  15.754
 1612TIP3   OH215658   3.247   3.057  15.807
 1612TIP3    H115659   3.157   3.086  15.822
 1612TIP3    H215660   3.300   3.112  15.865
 1613TIP3   OH215661   2.612   2.309  15.898
 1613TIP3    H115662   2.609   2.320  15.993
 1613TIP3    H215663   2.522   2.327  15.870
 1614TIP3   OH215664   2.666   3.238  15.898
 1614TIP3    H115665   2.645   3.190  15.818
 1614TIP3    H215666   2.585   3.236  15.949
 1615TIP3   OH215667   1.979   2.516  15.827
 1615TIP3    H115668   2.034   2.440  15.803
 1615TIP3    H215669   1.978   2.515  15.922
 1616TIP3   OH215670   2.756   3.476  15.796
 1616TIP3    H115671   2.724   3.397  15.841
 1616TIP3    H215672   2.851   3.465  15.793
 1617TIP3   OH215673   3.295   3.398  15.780
 1617TIP3    H115674   3.334   3.347  15.851
 1617TIP3    H215675   3.363   3.460  15.754
 1618TIP3   OH215676   2.360   3.014  15.757
 1618TIP3    H115677   2.394   2.926  15.776
 1618TIP3    H215678   2.437   3.065  15.734
 1619TIP3   OH215679   2.972   3.129  15.846
 1619TIP3    H115680   2.890   3.143  15.893
 1619TIP3    H215681   2.958   3.049  15.796
 1620TIP3   OH215682   2.512   2.782  15.786
 1620TIP3    H115683   2.592   2.764  15.737
 1620TIP3    H215684   2.497   2.703  15.837
 1621TIP3   OH215685   3.580   3.088  15.814
 1621TIP3    H115686   3.552   3.001  15.787
 1621TIP3    H215687   3.597   3.134  15.732
 1622TIP3   OH215688   3.569   2.618  15.904
 1622TIP3    H115689   3.550   2.628  15.810
 1622TIP3    H215690   3.485   2.592  15.942
 1623TIP3   OH215691   3.293   2.227  15.820
 1623TIP3    H115692   3.313   2.190  15.906
 1623TIP3    H215693   3.208   2.189  15.797
 1624TIP3   OH215694   2.208   3.670  15.856
 1624TIP3    H115695   2.184   3.650  15.946
 1624TIP3    H215696   2.287   3.619  15.840
 1625TIP3   OH215697   4.432   2.334  15.923
 1625TIP3    H115698   4.426   2.381  16.006
 1625TIP3    H215699   4.354   2.361  15.874
 1626TIP3   OH215700   4.579   3.313  15.863
 1626TIP3    H115701   4.537   3.238  15.821
 1626TIP3    H215702   4.513   3.382  15.861
 1627TIP3   OH215703   3.819   2.715  15.852
 1627TIP3    H115704   3.886   2.659  15.891
 1627TIP3    H215705   3.736   2.680  15.884
 1628TIP3   OH215706   4.798   3.501  15.856
 1628TIP3    H115707   4.734   3.434  15.880
 1628TIP3    H215708   4.882   3.456  15.857
 1629TIP3   OH215709   4.231   2.950  15.758
 1629TIP3    H115710   4.261   2.861  15.778
 1629TIP3    H215711   4.307   3.005  15.779
 1630TIP3   OH215712   4.825   3.177  15.878
 1630TIP3    H115713   4.733   3.206  15.882
 1630TIP3    H215714   4.820   3.089  15.842
 1631TIP3   OH215715   4.349   2.705  15.806
 1631TIP3    H115716   4.309   2.618  15.803
 1631TIP3    H215717   4.443   2.688  15.799
 1632TIP3   OH215718   4.110   3.579  15.854
 1632TIP3    H115719   4.199   3.552  15.873
 1632TIP3    H215720   4.073   3.507  15.803
 1633TIP3   OH215721   1.308   4.990  15.823
 1633TIP3    H115722   1.237   4.938  15.786
 1633TIP3    H215723   1.381   4.929  15.833
 1634TIP3   OH215724   0.502   4.239  15.742
 1634TIP3    H115725   0.472   4.328  15.760
 1634TIP3    H215726   0.546   4.246  15.657
 1635TIP3   OH215727   0.745   5.073  15.829
 1635TIP3    H115728   0.774   5.014  15.759
 1635TIP3    H215729   0.821   5.080  15.887
 1636TIP3   OH215730   0.136   4.501  15.911
 1636TIP3    H115731   0.152   4.501  16.006
 1636TIP3    H215732   0.083   4.424  15.895
 1637TIP3   OH215733   0.482   4.982  15.847
 1637TIP3    H115734   0.493   4.887  15.843
 1637TIP3    H215735   0.570   5.016  15.859
 1638TIP3   OH215736   0.997   5.051  15.945
 1638TIP3    H115737   1.027   5.021  16.030
 1638TIP3    H215738   1.024   4.982  15.884
 1639TIP3   OH215739   0.543   4.718  15.811
 1639TIP3    H115740   0.495   4.636  15.817
 1639TIP3    H215741   0.607   4.704  15.742
 1640TIP3   OH215742   1.544   4.830  15.838
 1640TIP3    H115743   1.573   4.806  15.750
 1640TIP3    H215744   1.603   4.900  15.865
 1641TIP3   OH215745   1.611   4.551  15.858
 1641TIP3    H115746   1.579   4.640  15.871
 1641TIP3    H215747   1.559   4.517  15.785
 1642TIP3   OH215748   1.437   4.057  15.789
 1642TIP3    H115749   1.451   4.108  15.869
 1642TIP3    H215750   1.342   4.043  15.786
 1643TIP3   OH215751   3.306   5.026  15.847
 1643TIP3    H115752   3.277   4.941  15.815
 1643TIP3    H215753   3.396   5.012  15.877
 1644TIP3   OH215754   2.512   4.252  15.773
 1644TIP3    H115755   2.434   4.288  15.814
 1644TIP3    H215756   2.501   4.270  15.680
 1645TIP3   OH215757   2.632   5.156  15.809
 1645TIP3    H115758   2.614   5.067  15.777
 1645TIP3    H215759   2.713   5.147  15.859
 1646TIP3   OH215760   1.877   4.482  15.845
 1646TIP3    H115761   1.891   4.432  15.925
 1646TIP3    H215762   1.787   4.512  15.850
 1647TIP3   OH215763   2.333   4.909  15.824
 1647TIP3    H115764   2.322   4.816  15.842
 1647TIP3    H215765   2.424   4.917  15.796
 1648TIP3   OH215766   2.865   5.046  15.929
 1648TIP3    H115767   2.846   5.019  16.019
 1648TIP3    H215768   2.892   4.965  15.885
 1649TIP3   OH215769   2.383   4.637  15.792
 1649TIP3    H115770   2.348   4.548  15.786
 1649TIP3    H215771   2.464   4.635  15.741
 1650TIP3   OH215772   3.587   4.978  15.814
 1650TIP3    H115773   3.563   4.896  15.770
 1650TIP3    H215774   3.581   5.044  15.746
 1651TIP3   OH215775   3.439   4.416  15.837
 1651TIP3    H115776   3.528   4.451  15.843
 1651TIP3    H215777   3.415   4.426  15.745
 1652TIP3   OH215778   3.403   4.147  15.788
 1652TIP3    H115779   3.407   4.236  15.822
 1652TIP3    H215780   3.315   4.116  15.813
 1653TIP3   OH215781   4.274   4.195  15.767
 1653TIP3    H115782   4.257   4.279  15.809
 1653TIP3    H215783   4.323   4.217  15.688
 1654TIP3   OH215784   4.457   0.014  15.876
 1654TIP3    H115785   4.483   5.121  15.840
 1654TIP3    H215786   4.490   0.014  15.966
 1655TIP3   OH215787   3.730   4.449  15.846
 1655TIP3    H115788   3.770   4.405  15.921
 1655TIP3    H215789   3.747   4.391  15.772
 1656TIP3   OH215790   4.246   4.933  15.833
 1656TIP3    H115791   4.241   4.838  15.846
 1656TIP3    H215792   4.338   4.950  15.813
 1657TIP3   OH215793   4.797   5.028  15.809
 1657TIP3    H115794   4.705   5.046  15.790
 1657TIP3    H215795   4.810   4.937  15.780
 1658TIP3   OH215796   4.283   4.666  15.810
 1658TIP3    H115797   4.231   4.591  15.783
 1658TIP3    H215798   4.361   4.663  15.755
 1659TIP3   OH215799   1.114   0.961   8.633
 1659TIP3    H115800   1.105   1.052   8.661
 1659TIP3    H215801   1.057   0.953   8.556
 1660TIP3   OH215802   0.979   0.990   9.019
 1660TIP3    H115803   1.009   0.944   9.098
 1660TIP3    H215804   0.931   0.923   8.970
 1661TIP3   OH215805   0.207   0.899   9.150
 1661TIP3    H115806   0.217   0.824   9.208
 1661TIP3    H215807   0.296   0.918   9.120
 1662TIP3   OH215808   1.362   1.317   8.846
 1662TIP3    H115809   1.315   1.248   8.894
 1662TIP3    H215810   1.373   1.387   8.911
 1663TIP3   OH215811   0.467   1.381   8.876
 1663TIP3    H115812   0.427   1.297   8.899
 1663TIP3    H215813   0.560   1.369   8.890
 1664TIP3   OH215814   5.066   0.638   8.550
 1664TIP3    H115815   5.085   0.730   8.570
 1664TIP3    H215816   5.134   0.613   8.487
 1665TIP3   OH215817   0.090   0.991   8.756
 1665TIP3    H115818   0.095   0.905   8.798
 1665TIP3    H215819   0.157   1.043   8.801
 1666TIP3   OH215820   1.096   1.747   8.929
 1666TIP3    H115821   1.124   1.703   8.849
 1666TIP3    H215822   1.095   1.679   8.996
 1667TIP3   OH215823   0.862   1.233   9.081
 1667TIP3    H115824   0.896   1.149   9.049
 1667TIP3    H215825   0.934   1.269   9.132
 1668TIP3   OH215826   1.701   0.374   9.126
 1668TIP3    H115827   1.703   0.413   9.213
 1668TIP3    H215828   1.751   0.434   9.071
 1669TIP3   OH215829   1.178   0.665   9.025
 1669TIP3    H115830   1.206   0.574   9.036
 1669TIP3    H215831   1.144   0.670   8.936
 1670TIP3   OH215832   0.483   0.504   8.877
 1670TIP3    H115833   0.514   0.569   8.813
 1670TIP3    H215834   0.442   0.436   8.824
 1671TIP3   OH215835   1.265   0.556   8.645
 1671TIP3    H115836   1.318   0.545   8.724
 1671TIP3    H215837   1.328   0.577   8.577
 1672TIP3   OH215838   0.078   0.724   8.836
 1672TIP3    H115839   0.128   0.688   8.908
 1672TIP3    H215840   0.119   0.688   8.757
 1673TIP3   OH215841   0.605   0.865   8.833
 1673TIP3    H115842   0.694   0.836   8.853
 1673TIP3    H215843   0.572   0.799   8.773
 1674TIP3   OH215844   1.695   0.499   9.366
 1674TIP3    H115845   1.651   0.584   9.365
 1674TIP3    H215846   1.747   0.499   9.446
 1675TIP3   OH215847   0.391   0.448   9.254
 1675TIP3    H115848   0.337   0.526   9.266
 1675TIP3    H215849   0.339   0.377   9.291
 1676TIP3   OH215850   1.066   1.228   8.651
 1676TIP3    H115851   1.082   1.268   8.565
 1676TIP3    H215852   1.027   1.298   8.703
 1677TIP3   OH215853   0.610   1.164   9.176
 1677TIP3    H115854   0.580   1.231   9.237
 1677TIP3    H215855   0.695   1.196   9.145
 1678TIP3   OH215856   1.456   0.549   8.839
 1678TIP3    H115857   1.444   0.455   8.852
 1678TIP3    H215858   1.500   0.579   8.918
 1679TIP3   OH215859   0.264   0.614   9.006
 1679TIP3    H115860   0.296   0.648   9.090
 1679TIP3    H215861   0.343   0.590   8.958
 1680TIP3   OH215862   0.515   1.357   9.359
 1680TIP3    H115863   0.518   1.452   9.348
 1680TIP3    H215864   0.424   1.339   9.384
 1681TIP3   OH215865   0.038   1.293   8.362
 1681TIP3    H115866   0.070   1.359   8.300
 1681TIP3    H215867   0.048   1.335   8.448
 1682TIP3   OH215868   1.376   1.539   9.016
 1682TIP3    H115869   1.285   1.546   9.044
 1682TIP3    H215870   1.406   1.629   9.008
 1683TIP3   OH215871   1.448   0.262   9.194
 1683TIP3    H115872   1.383   0.324   9.161
 1683TIP3    H215873   1.532   0.296   9.162
 1684TIP3   OH215874   0.756   0.120   8.936
 1684TIP3    H115875   0.736   0.026   8.933
 1684TIP3    H215876   0.693   0.156   8.998
 1685TIP3   OH215877   1.205   1.601   8.710
 1685TIP3    H115878   1.250   1.530   8.665
 1685TIP3    H215879   1.267   1.674   8.707
 1686TIP3   OH215880   1.367   1.395   8.589
 1686TIP3    H115881   1.392   1.316   8.541
 1686TIP3    H215882   1.369   1.370   8.681
 1687TIP3   OH215883   1.531   1.283   9.359
 1687TIP3    H115884   1.510   1.225   9.286
 1687TIP3    H215885   1.552   1.367   9.317
 1688TIP3   OH215886   0.962   0.956   8.404
 1688TIP3    H115887   0.919   1.042   8.403
 1688TIP3    H215888   0.973   0.933   8.312
 1689TIP3   OH215889   1.016   0.841   8.158
 1689TIP3    H115890   1.106   0.865   8.177
 1689TIP3    H215891   1.021   0.750   8.129
 1690TIP3   OH215892   1.648   0.960   9.246
 1690TIP3    H115893   1.583   1.018   9.207
 1690TIP3    H215894   1.730   0.983   9.204
 1691TIP3   OH215895   1.362   0.929   8.518
 1691TIP3    H115896   1.279   0.938   8.564
 1691TIP3    H215897   1.420   0.885   8.580
 1692TIP3   OH215898   1.274   0.764   9.392
 1692TIP3    H115899   1.300   0.831   9.456
 1692TIP3    H215900   1.206   0.806   9.340
 1693TIP3   OH215901   0.478   1.061   8.683
 1693TIP3    H115902   0.460   1.020   8.598
 1693TIP3    H215903   0.533   0.998   8.729
 1694TIP3   OH215904   0.745   1.407   8.903
 1694TIP3    H115905   0.812   1.428   8.838
 1694TIP3    H215906   0.787   1.344   8.961
 1695TIP3   OH215907   0.468   0.962   9.052
 1695TIP3    H115908   0.522   0.936   8.977
 1695TIP3    H215909   0.518   1.029   9.097
 1696TIP3   OH215910   1.122   1.558   9.129
 1696TIP3    H115911   1.144   1.610   9.207
 1696TIP3    H215912   1.108   1.470   9.163
 1697TIP3   OH215913   0.681   1.367   9.588
 1697TIP3    H115914   0.633   1.395   9.666
 1697TIP3    H215915   0.616   1.369   9.518
 1698TIP3   OH215916   1.274   0.868   8.259
 1698TIP3    H115917   1.309   0.888   8.346
 1698TIP3    H215918   1.305   0.939   8.203
 1699TIP3   OH215919   0.285   0.989   9.493
 1699TIP3    H115920   0.294   1.058   9.559
 1699TIP3    H215921   0.217   1.021   9.434
 1700TIP3   OH215922   0.955   1.474   8.731
 1700TIP3    H115923   1.040   1.517   8.742
 1700TIP3    H215924   0.923   1.506   8.647
 1701TIP3   OH215925   1.549   0.033   8.236
 1701TIP3    H115926   1.499   0.074   8.307
 1701TIP3    H215927   1.626   0.089   8.226
 1702TIP3   OH215928   0.415   0.947   8.433
 1702TIP3    H115929   0.354   1.009   8.391
 1702TIP3    H215930   0.363   0.867   8.445
 1703TIP3   OH215931   1.685   1.467   8.219
 1703TIP3    H115932   1.695   1.560   8.200
 1703TIP3    H215933   1.774   1.433   8.222
 1704TIP3   OH215934   0.037   1.194   9.361
 1704TIP3    H115935   0.032   1.177   9.267
 1704TIP3    H215936   5.184   1.119   9.401
 1705TIP3   OH215937   5.116   1.440   8.994
 1705TIP3    H115938   5.120   1.349   9.021
 1705TIP3    H215939   5.026   1.467   9.011
 1706TIP3   OH215940   0.936   1.447   9.658
 1706TIP3    H115941   0.918   1.462   9.751
 1706TIP3    H215942   0.853   1.419   9.621
 1707TIP3   OH215943   0.979   1.844   8.477
 1707TIP3    H115944   0.961   1.853   8.383
 1707TIP3    H215945   0.955   1.929   8.514
 1708TIP3   OH215946   0.266   1.697   8.689
 1708TIP3    H115947   0.308   1.683   8.774
 1708TIP3    H215948   0.301   1.627   8.634
 1709TIP3   OH215949   1.228   1.804   8.190
 1709TIP3    H115950   1.274   1.723   8.166
 1709TIP3    H215951   1.252   1.818   8.281
 1710TIP3   OH215952   1.251   1.872   8.459
 1710TIP3    H115953   1.158   1.852   8.475
 1710TIP3    H215954   1.296   1.847   8.539
 1711TIP3   OH215955   1.374   0.666   9.683
 1711TIP3    H115956   1.394   0.751   9.643
 1711TIP3    H215957   1.408   0.602   9.621
 1712TIP3   OH215958   0.255   1.336   9.448
 1712TIP3    H115959   0.260   1.300   9.536
 1712TIP3    H215960   0.180   1.293   9.408
 1713TIP3   OH215961   0.551   0.254   9.075
 1713TIP3    H115962   0.477   0.226   9.021
 1713TIP3    H215963   0.546   0.199   9.153
 1714TIP3   OH215964   1.016   0.188   9.462
 1714TIP3    H115965   1.025   0.268   9.514
 1714TIP3    H215966   0.922   0.175   9.454
 1715TIP3   OH215967   1.192   0.498   9.387
 1715TIP3    H115968   1.152   0.483   9.473
 1715TIP3    H215969   1.224   0.588   9.391
 1716TIP3   OH215970   1.353   1.090   8.123
 1716TIP3    H115971   1.309   1.171   8.150
 1716TIP3    H215972   1.445   1.114   8.115
 1717TIP3   OH215973   0.872   0.377   8.145
 1717TIP3    H115974   0.859   0.328   8.227
 1717TIP3    H215975   0.783   0.387   8.110
 1718TIP3   OH215976   0.508   0.701   9.156
 1718TIP3    H115977   0.500   0.718   9.250
 1718TIP3    H215978   0.513   0.788   9.116
 1719TIP3   OH215979   0.490   0.681   8.663
 1719TIP3    H115980   0.395   0.674   8.656
 1719TIP3    H215981   0.523   0.640   8.583
 1720TIP3   OH215982   1.006   0.679   8.453
 1720TIP3    H115983   0.995   0.773   8.437
 1720TIP3    H215984   1.087   0.657   8.408
 1721TIP3   OH215985   0.939   0.787   9.603
 1721TIP3    H115986   0.883   0.721   9.645
 1721TIP3    H215987   1.013   0.798   9.662
 1722TIP3   OH215988   1.089   0.725   8.770
 1722TIP3    H115989   1.101   0.809   8.726
 1722TIP3    H215990   1.134   0.662   8.714
 1723TIP3   OH215991   0.228   0.673   9.309
 1723TIP3    H115992   0.284   0.699   9.382
 1723TIP3    H215993   0.143   0.655   9.349
 1724TIP3   OH215994   0.603   0.412   8.100
 1724TIP3    H115995   0.519   0.365   8.096
 1724TIP3    H215996   0.578   0.502   8.123
 1725TIP3   OH215997   5.114   0.293   8.843
 1725TIP3    H115998   0.000   0.318   8.895
 1725TIP3    H215999   5.149   0.274   8.756
 1726TIP3   OH216000   0.089   0.598   8.383
 1726TIP3    H116001   0.064   0.641   8.301
 1726TIP3    H216002   0.122   0.513   8.355
 1727TIP3   OH216003   1.065   0.821   9.216
 1727TIP3    H116004   1.105   0.762   9.153
 1727TIP3    H216005   1.003   0.766   9.264
 1728TIP3   OH216006   0.804   0.475   8.829
 1728TIP3    H116007   0.744   0.410   8.791
 1728TIP3    H216008   0.880   0.424   8.855
 1729TIP3   OH216009   0.222   0.615   8.626
 1729TIP3    H116010   0.178   0.611   8.541
 1729TIP3    H216011   0.252   0.525   8.641
 1730TIP3   OH216012   0.560   0.553   8.425
 1730TIP3    H116013   0.651   0.543   8.451
 1730TIP3    H216014   0.564   0.595   8.339
 1731TIP3   OH216015   1.245   0.399   9.051
 1731TIP3    H116016   1.163   0.356   9.074
 1731TIP3    H216017   1.276   0.352   8.974
 1732TIP3   OH216018   0.551   0.676   8.174
 1732TIP3    H116019   0.477   0.727   8.141
 1732TIP3    H216020   0.628   0.724   8.147
 1733TIP3   OH216021   0.259   1.190   9.687
 1733TIP3    H116022   0.324   1.199   9.757
 1733TIP3    H216023   0.177   1.173   9.733
 1734TIP3   OH216024   0.848   0.748   8.891
 1734TIP3    H116025   0.933   0.750   8.847
 1734TIP3    H216026   0.823   0.656   8.890
 1735TIP3   OH216027   0.345   0.368   8.672
 1735TIP3    H116028   0.297   0.289   8.695
 1735TIP3    H216029   0.383   0.350   8.586
 1736TIP3   OH216030   0.773   0.479   9.211
 1736TIP3    H116031   0.812   0.554   9.255
 1736TIP3    H216032   0.846   0.419   9.196
 1737TIP3   OH216033   0.808   1.201   8.390
 1737TIP3    H116034   0.751   1.142   8.341
 1737TIP3    H216035   0.757   1.228   8.466
 1738TIP3   OH216036   1.479   1.143   9.132
 1738TIP3    H116037   1.547   1.186   9.080
 1738TIP3    H216038   1.405   1.134   9.072
 1739TIP3   OH216039   1.052   0.579   8.106
 1739TIP3    H116040   0.991   0.505   8.108
 1739TIP3    H216041   1.121   0.555   8.168
 1740TIP3   OH216042   0.974   1.234   9.469
 1740TIP3    H116043   0.912   1.166   9.495
 1740TIP3    H216044   0.983   1.289   9.546
 1741TIP3   OH216045   1.242   0.599   8.315
 1741TIP3    H116046   1.325   0.578   8.357
 1741TIP3    H216047   1.254   0.688   8.281
 1742TIP3   OH216048   0.304   1.119   8.890
 1742TIP3    H116049   0.353   1.112   8.808
 1742TIP3    H216050   0.352   1.065   8.952
 1743TIP3   OH216051   1.042   1.351   8.399
 1743TIP3    H116052   1.006   1.437   8.421
 1743TIP3    H216053   0.965   1.296   8.388
 1744TIP3   OH216054   5.134   0.982   9.510
 1744TIP3    H116055   0.001   0.922   9.558
 1744TIP3    H216056   5.054   0.931   9.497
 1745TIP3   OH216057   1.208   1.473   9.584
 1745TIP3    H116058   1.117   1.466   9.612
 1745TIP3    H216059   1.247   1.536   9.644
 1746TIP3   OH216060   1.687   0.703   8.356
 1746TIP3    H116061   1.636   0.680   8.279
 1746TIP3    H216062   1.710   0.795   8.343
 1747TIP3   OH216063   1.739   1.209   9.521
 1747TIP3    H116064   1.670   1.251   9.470
 1747TIP3    H216065   1.820   1.229   9.475
 1748TIP3   OH216066   1.541   1.561   8.446
 1748TIP3    H116067   1.480   1.504   8.492
 1748TIP3    H216068   1.584   1.504   8.382
 1749TIP3   OH216069   1.248   1.095   8.982
 1749TIP3    H116070   1.155   1.075   8.979
 1749TIP3    H216071   1.292   1.011   8.972
 1750TIP3   OH216072   0.458   1.494   8.624
 1750TIP3    H116073   0.509   1.575   8.628
 1750TIP3    H216074   0.459   1.461   8.713
 1751TIP3   OH216075   0.131   0.954   8.116
 1751TIP3    H116076   0.182   1.005   8.179
 1751TIP3    H216077   0.130   1.007   8.037
 1752TIP3   OH216078   0.610   1.273   8.559
 1752TIP3    H116079   0.556   1.351   8.569
 1752TIP3    H216080   0.565   1.206   8.609
 1753TIP3   OH216081   0.787   1.598   9.272
 1753TIP3    H116082   0.851   1.667   9.254
 1753TIP3    H216083   0.841   1.520   9.291
 1754TIP3   OH216084   0.562   1.749   8.612
 1754TIP3    H116085   0.489   1.810   8.614
 1754TIP3    H216086   0.635   1.797   8.651
 1755TIP3   OH216087   1.083   1.306   9.232
 1755TIP3    H116088   1.049   1.281   9.318
 1755TIP3    H216089   1.157   1.247   9.217
 1756TIP3   OH216090   1.284   1.319   8.270
 1756TIP3    H116091   1.338   1.277   8.338
 1756TIP3    H216092   1.200   1.335   8.313
 1757TIP3   OH216093   1.375   1.588   9.389
 1757TIP3    H116094   1.331   1.537   9.457
 1757TIP3    H216095   1.311   1.654   9.363
 1758TIP3   OH216096   1.739   1.736   8.182
 1758TIP3    H116097   1.802   1.786   8.131
 1758TIP3    H216098   1.678   1.802   8.216
 1759TIP3   OH216099   0.220   0.291   9.392
 1759TIP3    H116100   0.133   0.263   9.364
 1759TIP3    H216101   0.230   0.255   9.480
 1760TIP3   OH216102   1.460   1.177   8.442
 1760TIP3    H116103   1.419   1.093   8.462
 1760TIP3    H216104   1.549   1.168   8.476
 1761TIP3   OH216105   0.260   1.586   9.308
 1761TIP3    H116106   0.240   1.506   9.357
 1761TIP3    H216107   0.351   1.606   9.330
 1762TIP3   OH216108   0.699   1.421   8.239
 1762TIP3    H116109   0.738   1.365   8.306
 1762TIP3    H216110   0.680   1.504   8.284
 1763TIP3   OH216111   0.247   1.122   8.300
 1763TIP3    H116112   0.170   1.167   8.335
 1763TIP3    H216113   0.305   1.193   8.272
 1764TIP3   OH216114   1.023   0.347   9.227
 1764TIP3    H116115   1.088   0.405   9.266
 1764TIP3    H216116   1.025   0.268   9.281
 1765TIP3   OH216117   1.182   0.356   8.475
 1765TIP3    H116118   1.176   0.413   8.399
 1765TIP3    H216119   1.207   0.414   8.547
 1766TIP3   OH216120   0.903   1.579   8.480
 1766TIP3    H116121   0.819   1.599   8.439
 1766TIP3    H216122   0.947   1.663   8.490
 1767TIP3   OH216123   0.807   0.518   8.536
 1767TIP3    H116124   0.878   0.573   8.504
 1767TIP3    H216125   0.816   0.520   8.631
 1768TIP3   OH216126   0.918   0.644   9.372
 1768TIP3    H116127   0.912   0.709   9.442
 1768TIP3    H216128   0.972   0.575   9.409
 1769TIP3   OH216129   0.975   0.220   8.601
 1769TIP3    H116130   0.988   0.244   8.693
 1769TIP3    H216131   1.050   0.259   8.556
 1770TIP3   OH216132   0.662   1.661   8.370
 1770TIP3    H116133   0.672   1.745   8.326
 1770TIP3    H216134   0.618   1.682   8.452
 1771TIP3   OH216135   0.432   0.302   8.418
 1771TIP3    H116136   0.489   0.379   8.410
 1771TIP3    H216137   0.487   0.230   8.389
 1772TIP3   OH216138   1.450   0.464   9.509
 1772TIP3    H116139   1.377   0.443   9.450
 1772TIP3    H216140   1.528   0.448   9.457
 1773TIP3   OH216141   1.378   0.849   8.979
 1773TIP3    H116142   1.305   0.790   8.999
 1773TIP3    H216143   1.456   0.803   9.010
 1774TIP3   OH216144   0.398   1.336   8.212
 1774TIP3    H116145   0.459   1.390   8.262
 1774TIP3    H216146   0.451   1.298   8.142
 1775TIP3   OH216147   0.021   0.700   8.133
 1775TIP3    H116148   0.063   0.785   8.120
 1775TIP3    H216149   0.043   0.650   8.055
 1776TIP3   OH216150   1.471   1.800   9.046
 1776TIP3    H116151   1.481   1.875   8.986
 1776TIP3    H216152   1.559   1.788   9.083
 1777TIP3   OH216153   0.334   0.155   8.940
 1777TIP3    H116154   0.288   0.132   8.859
 1777TIP3    H216155   0.361   0.071   8.977
 1778TIP3   OH216156   0.045   1.485   8.560
 1778TIP3    H116157   5.146   1.490   8.589
 1778TIP3    H216158   0.051   1.549   8.489
 1779TIP3   OH216159   0.082   1.858   9.808
 1779TIP3    H116160   0.143   1.853   9.881
 1779TIP3    H216161   0.080   1.770   9.772
 1780TIP3   OH216162   0.896   1.583   8.116
 1780TIP3    H116163   0.825   1.523   8.141
 1780TIP3    H216164   0.965   1.525   8.082
 1781TIP3   OH216165   1.364   1.563   8.159
 1781TIP3    H116166   1.329   1.480   8.191
 1781TIP3    H216167   1.459   1.554   8.165
 1782TIP3   OH216168   5.165   1.146   9.749
 1782TIP3    H116169   5.154   1.079   9.682
 1782TIP3    H216170   5.155   1.229   9.703
 1783TIP3   OH216171   0.601   1.218   8.072
 1783TIP3    H116172   0.616   1.148   8.136
 1783TIP3    H216173   0.652   1.292   8.106
 1784TIP3   OH216174   0.743   1.098   9.562
 1784TIP3    H116175   0.720   1.190   9.576
 1784TIP3    H216176   0.699   1.052   9.633
 1785TIP3   OH216177   1.342   1.217   9.545
 1785TIP3    H116178   1.406   1.243   9.478
 1785TIP3    H216179   1.281   1.291   9.549
 1786TIP3   OH216180   0.114   0.848   9.677
 1786TIP3    H116181   0.202   0.870   9.644
 1786TIP3    H216182   0.125   0.842   9.772
 1787TIP3   OH216183   0.634   1.028   8.272
 1787TIP3    H116184   0.568   0.992   8.331
 1787TIP3    H216185   0.667   0.953   8.224
 1788TIP3   OH216186   0.463   0.791   9.424
 1788TIP3    H116187   0.404   0.859   9.458
 1788TIP3    H216188   0.543   0.839   9.402
 1789TIP3   OH216189   0.748   0.850   8.095
 1789TIP3    H116190   0.753   0.882   8.005
 1789TIP3    H216191   0.839   0.841   8.122
 1790TIP3   OH216192   1.600   1.199   8.196
 1790TIP3    H116193   1.627   1.290   8.187
 1790TIP3    H216194   1.552   1.195   8.279
 1791TIP3   OH216195   0.546   0.608   9.617
 1791TIP3    H116196   0.562   0.526   9.571
 1791TIP3    H216197   0.522   0.670   9.549
 1792TIP3   OH216198   0.607   0.409   9.429
 1792TIP3    H116199   0.674   0.436   9.366
 1792TIP3    H216200   0.525   0.409   9.380
 1793TIP3   OH216201   0.666   0.947   9.343
 1793TIP3    H116202   0.713   0.985   9.417
 1793TIP3    H216203   0.655   1.020   9.282
 1794TIP3   OH216204   1.131   0.730   9.798
 1794TIP3    H116205   1.104   0.645   9.833
 1794TIP3    H216206   1.219   0.714   9.763
 1795TIP3   OH216207   1.407   0.934   9.563
 1795TIP3    H116208   1.374   1.024   9.570
 1795TIP3    H216209   1.502   0.944   9.557
 1796TIP3   OH216210   0.397   0.794   9.764
 1796TIP3    H116211   0.442   0.716   9.732
 1796TIP3    H216212   0.464   0.862   9.764
 1797TIP3   OH216213   0.741   0.164   9.442
 1797TIP3    H116214   0.695   0.245   9.462
 1797TIP3    H216215   0.687   0.122   9.374
 1798TIP3   OH216216   0.806   0.569   9.708
 1798TIP3    H116217   0.823   0.581   9.801
 1798TIP3    H216218   0.712   0.585   9.698
 1799TIP3   OH216219   1.022   0.439   9.598
 1799TIP3    H116220   0.941   0.481   9.626
 1799TIP3    H216221   1.064   0.412   9.680
 1800TIP3   OH216222   1.114   0.362   9.846
 1800TIP3    H116223   1.135   0.271   9.825
 1800TIP3    H216224   1.058   0.356   9.923
 1801TIP3   OH216225   0.252   0.404   9.787
 1801TIP3    H116226   0.263   0.327   9.730
 1801TIP3    H216227   0.267   0.371   9.875
 1802TIP3   OH216228   0.755   5.156   9.639
 1802TIP3    H116229   0.841   5.122   9.665
 1802TIP3    H216230   0.775   0.034   9.576
 1803TIP3   OH216231   0.704   1.921   8.278
 1803TIP3    H116232   0.787   1.899   8.234
 1803TIP3    H216233   0.712   2.013   8.300
 1804TIP3   OH216234   0.165   1.485   8.218
 1804TIP3    H116235   0.245   1.435   8.204
 1804TIP3    H216236   0.193   1.576   8.216
 1805TIP3   OH216237   5.160   1.934   8.678
 1805TIP3    H116238   5.154   1.996   8.605
 1805TIP3    H216239   5.089   1.959   8.736
 1806TIP3   OH216240   0.032   1.673   8.903
 1806TIP3    H116241   5.188   1.590   8.936
 1806TIP3    H216242   0.083   1.708   8.976
 1807TIP3   OH216243   1.701   1.784   9.192
 1807TIP3    H116244   1.699   1.733   9.273
 1807TIP3    H216245   1.761   1.857   9.212
 1808TIP3   OH216246   1.683   1.681   9.457
 1808TIP3    H116247   1.622   1.614   9.489
 1808TIP3    H216248   1.748   1.688   9.527
 1809TIP3   OH216249   1.472   1.282   9.776
 1809TIP3    H116250   1.425   1.256   9.697
 1809TIP3    H216251   1.504   1.370   9.756
 1810TIP3   OH216252   1.719   1.122   8.512
 1810TIP3    H116253   1.793   1.182   8.514
 1810TIP3    H216254   1.740   1.056   8.578
 1811TIP3   OH216255   1.761   0.911   8.684
 1811TIP3    H116256   1.675   0.887   8.718
 1811TIP3    H216257   1.811   0.938   8.761
 1812TIP3   OH216258   1.715   1.249   9.049
 1812TIP3    H116259   1.787   1.193   9.078
 1812TIP3    H216260   1.752   1.338   9.051
 1813TIP3   OH216261   1.567   1.510   9.213
 1813TIP3    H116262   1.513   1.554   9.278
 1813TIP3    H216263   1.513   1.507   9.134
 1814TIP3   OH216264   1.742   0.967   8.286
 1814TIP3    H116265   1.700   1.025   8.222
 1814TIP3    H216266   1.738   1.016   8.368
 1815TIP3   OH216267   1.532   0.621   8.150
 1815TIP3    H116268   1.467   0.652   8.087
 1815TIP3    H216269   1.520   0.527   8.152
 1816TIP3   OH216270   1.500   0.811   8.733
 1816TIP3    H116271   1.498   0.715   8.743
 1816TIP3    H216272   1.454   0.844   8.810
 1817TIP3   OH216273   0.065   1.125   9.084
 1817TIP3    H116274   0.119   1.165   9.016
 1817TIP3    H216275   0.110   1.044   9.107
 1818TIP3   OH216276   1.690   0.945   9.515
 1818TIP3    H116277   1.675   0.936   9.421
 1818TIP3    H216278   1.709   1.038   9.528
 1819TIP3   OH216279   1.502   0.350   8.165
 1819TIP3    H116280   1.587   0.306   8.168
 1819TIP3    H216281   1.441   0.288   8.205
 1820TIP3   OH216282   1.469   0.573   8.469
 1820TIP3    H116283   1.513   0.492   8.494
 1820TIP3    H216284   1.541   0.631   8.442
 1821TIP3   OH216285   1.580   0.670   9.052
 1821TIP3    H116286   1.675   0.660   9.046
 1821TIP3    H216287   1.562   0.669   9.146
 1822TIP3   OH216288   1.538   0.718   9.319
 1822TIP3    H116289   1.447   0.729   9.346
 1822TIP3    H216290   1.568   0.807   9.298
 1823TIP3   OH216291   0.077   0.569   9.650
 1823TIP3    H116292   0.094   0.659   9.677
 1823TIP3    H216293   0.144   0.517   9.693
 1824TIP3   OH216294   1.933   0.062   9.683
 1824TIP3    H116295   1.944   5.160   9.699
 1824TIP3    H216296   1.839   0.076   9.683
 1825TIP3   OH216297   1.584   0.336   8.538
 1825TIP3    H116298   1.604   0.296   8.622
 1825TIP3    H216299   1.528   0.272   8.493
 1826TIP3   OH216300   0.148   0.363   8.968
 1826TIP3    H116301   0.219   0.300   8.980
 1826TIP3    H216302   0.186   0.446   8.995
 1827TIP3   OH216303   5.112   0.795   9.178
 1827TIP3    H116304   0.009   0.813   9.145
 1827TIP3    H216305   5.126   0.747   9.260
 1828TIP3   OH216306   1.676   0.240   9.618
 1828TIP3    H116307   1.594   0.267   9.661
 1828TIP3    H216308   1.648   0.191   9.541
 1829TIP3   OH216309   1.749   0.231   8.220
 1829TIP3    H116310   1.836   0.212   8.185
 1829TIP3    H216311   1.762   0.306   8.278
 1830TIP3   OH216312   5.184   0.253   8.580
 1830TIP3    H116313   5.099   0.290   8.555
 1830TIP3    H216314   0.027   0.215   8.499
 1831TIP3   OH216315   1.379   1.817   8.697
 1831TIP3    H116316   1.463   1.813   8.650
 1831TIP3    H216317   1.393   1.884   8.764
 1832TIP3   OH216318   5.168   0.181   9.312
 1832TIP3    H116319   0.004   0.098   9.271
 1832TIP3    H216320   5.106   0.218   9.250
 1833TIP3   OH216321   0.078   1.571   9.737
 1833TIP3    H116322   0.054   1.503   9.674
 1833TIP3    H216323   0.168   1.549   9.762
 1834TIP3   OH216324   0.529   1.633   9.359
 1834TIP3    H116325   0.515   1.727   9.371
 1834TIP3    H216326   0.620   1.626   9.332
 1835TIP3   OH216327   1.148   1.809   9.581
 1835TIP3    H116328   1.165   1.776   9.493
 1835TIP3    H216329   1.209   1.761   9.637
 1836TIP3   OH216330   1.572   0.107   9.399
 1836TIP3    H116331   1.512   0.149   9.338
 1836TIP3    H216332   1.536   0.019   9.412
 1837TIP3   OH216333   0.264   2.055   9.449
 1837TIP3    H116334   0.188   2.077   9.397
 1837TIP3    H216335   0.237   2.070   9.540
 1838TIP3   OH216336   0.491   1.907   9.371
 1838TIP3    H116337   0.411   1.944   9.408
 1838TIP3    H216338   0.492   1.937   9.280
 1839TIP3   OH216339   0.922   1.831   9.215
 1839TIP3    H116340   0.903   1.850   9.123
 1839TIP3    H216341   0.864   1.890   9.264
 1840TIP3   OH216342   1.174   1.766   9.311
 1840TIP3    H116343   1.094   1.799   9.271
 1840TIP3    H216344   1.239   1.834   9.293
 1841TIP3   OH216345   1.387   1.935   9.274
 1841TIP3    H116346   1.410   2.025   9.252
 1841TIP3    H216347   1.416   1.884   9.198
 1842TIP3   OH216348   0.218   1.751   9.090
 1842TIP3    H116349   0.217   1.704   9.173
 1842TIP3    H216350   0.286   1.709   9.038
 1843TIP3   OH216351   0.406   1.642   8.924
 1843TIP3    H116352   0.410   1.547   8.915
 1843TIP3    H216353   0.493   1.666   8.956
 1844TIP3   OH216354   0.666   1.645   9.022
 1844TIP3    H116355   0.694   1.571   8.968
 1844TIP3    H216356   0.696   1.623   9.111
 1845TIP3   OH216357   0.985   0.261   8.875
 1845TIP3    H116358   0.915   0.209   8.914
 1845TIP3    H216359   1.061   0.202   8.878
 1846TIP3   OH216360   1.370   0.279   8.839
 1846TIP3    H116361   1.458   0.248   8.816
 1846TIP3    H216362   1.313   0.205   8.817
 1847TIP3   OH216363   1.638   0.232   8.793
 1847TIP3    H116364   1.673   0.159   8.845
 1847TIP3    H216365   1.701   0.303   8.806
 1848TIP3   OH216366   0.216   0.121   8.689
 1848TIP3    H116367   0.136   0.169   8.668
 1848TIP3    H216368   0.210   0.040   8.639
 1849TIP3   OH216369   0.018   0.134   8.332
 1849TIP3    H116370   0.052   0.078   8.262
 1849TIP3    H216371   5.120   0.104   8.345
 1850TIP3   OH216372   0.698   0.247   8.703
 1850TIP3    H116373   0.770   0.231   8.642
 1850TIP3    H216374   0.719   0.194   8.780
 1851TIP3   OH216375   1.181   0.072   8.830
 1851TIP3    H116376   1.140   0.025   8.758
 1851TIP3    H216377   1.239   0.008   8.871
 1852TIP3   OH216378   1.392   0.169   8.424
 1852TIP3    H116379   1.313   0.223   8.436
 1852TIP3    H216380   1.388   0.106   8.495
 1853TIP3   OH216381   0.024   1.734   8.447
 1853TIP3    H116382   5.124   1.744   8.421
 1853TIP3    H216383   0.071   1.800   8.396
 1854TIP3   OH216384   0.185   0.358   8.308
 1854TIP3    H116385   0.133   0.278   8.302
 1854TIP3    H216386   0.270   0.328   8.341
 1855TIP3   OH216387   0.802   0.276   8.396
 1855TIP3    H116388   0.870   0.234   8.448
 1855TIP3    H216389   0.793   0.363   8.435
 1856TIP3   OH216390   0.954   1.836   8.201
 1856TIP3    H116391   1.048   1.841   8.183
 1856TIP3    H216392   0.928   1.751   8.165
 1857TIP3   OH216393   1.598   1.811   8.528
 1857TIP3    H116394   1.582   1.721   8.499
 1857TIP3    H216395   1.608   1.861   8.447
 1858TIP3   OH216396   0.232   0.160   9.640
 1858TIP3    H116397   0.195   0.084   9.595
 1858TIP3    H216398   0.285   0.123   9.711
 1859TIP3   OH216399   0.371   0.077   9.860
 1859TIP3    H116400   0.465   0.065   9.870
 1859TIP3    H216401   0.342   0.113   9.945
 1860TIP3   OH216402   0.279   1.735   8.220
 1860TIP3    H116403   0.227   1.810   8.249
 1860TIP3    H216404   0.365   1.773   8.200
 1861TIP3   OH216405   1.162   0.103   9.773
 1861TIP3    H116406   1.091   0.038   9.769
 1861TIP3    H216407   1.239   0.055   9.742
 1862TIP3   OH216408   3.016   1.083   8.675
 1862TIP3    H116409   2.988   1.174   8.675
 1862TIP3    H216410   2.951   1.038   8.621
 1863TIP3   OH216411   2.864   0.976   9.067
 1863TIP3    H116412   2.907   0.933   9.141
 1863TIP3    H216413   2.819   0.905   9.020
 1864TIP3   OH216414   2.112   0.906   9.200
 1864TIP3    H116415   2.128   0.833   9.260
 1864TIP3    H216416   2.198   0.924   9.161
 1865TIP3   OH216417   3.316   1.303   8.891
 1865TIP3    H116418   3.272   1.226   8.928
 1865TIP3    H216419   3.308   1.370   8.959
 1866TIP3   OH216420   2.303   1.374   8.897
 1866TIP3    H116421   2.256   1.290   8.894
 1866TIP3    H216422   2.388   1.353   8.936
 1867TIP3   OH216423   1.844   0.658   8.607
 1867TIP3    H116424   1.826   0.747   8.637
 1867TIP3    H216425   1.799   0.650   8.524
 1868TIP3   OH216426   1.955   0.973   8.874
 1868TIP3    H116427   1.994   0.887   8.888
 1868TIP3    H216428   2.030   1.032   8.863
 1869TIP3   OH216429   3.004   1.776   8.931
 1869TIP3    H116430   3.067   1.729   8.877
 1869TIP3    H216431   2.968   1.709   8.989
 1870TIP3   OH216432   2.752   1.222   9.115
 1870TIP3    H116433   2.792   1.141   9.083
 1870TIP3    H216434   2.812   1.254   9.183
 1871TIP3   OH216435   3.642   0.363   9.114
 1871TIP3    H116436   3.637   0.437   9.174
 1871TIP3    H216437   3.713   0.385   9.054
 1872TIP3   OH216438   3.049   0.687   9.028
 1872TIP3    H116439   3.057   0.595   9.054
 1872TIP3    H216440   3.001   0.685   8.946
 1873TIP3   OH216441   2.450   0.511   8.843
 1873TIP3    H116442   2.435   0.580   8.779
 1873TIP3    H216443   2.398   0.437   8.812
 1874TIP3   OH216444   3.172   0.530   8.720
 1874TIP3    H116445   3.216   0.509   8.802
 1874TIP3    H216446   3.239   0.572   8.667
 1875TIP3   OH216447   2.063   0.722   8.910
 1875TIP3    H116448   2.137   0.693   8.964
 1875TIP3    H216449   2.078   0.681   8.824
 1876TIP3   OH216450   2.490   0.860   8.850
 1876TIP3    H116451   2.575   0.826   8.879
 1876TIP3    H216452   2.457   0.795   8.789
 1877TIP3   OH216453   3.617   0.516   9.355
 1877TIP3    H116454   3.579   0.603   9.371
 1877TIP3    H216455   3.555   0.455   9.393
 1878TIP3   OH216456   2.265   0.401   9.239
 1878TIP3    H116457   2.249   0.477   9.182
 1878TIP3    H216458   2.196   0.405   9.305
 1879TIP3   OH216459   2.927   1.339   8.617
 1879TIP3    H116460   2.945   1.338   8.523
 1879TIP3    H216461   2.901   1.429   8.636
 1880TIP3   OH216462   2.528   1.112   9.235
 1880TIP3    H116463   2.489   1.183   9.285
 1880TIP3    H216464   2.604   1.151   9.192
 1881TIP3   OH216465   3.296   0.489   8.956
 1881TIP3    H116466   3.230   0.456   9.017
 1881TIP3    H216467   3.357   0.538   9.011
 1882TIP3   OH216468   2.275   0.594   9.040
 1882TIP3    H116469   2.322   0.647   9.105
 1882TIP3    H216470   2.343   0.562   8.981
 1883TIP3   OH216471   2.422   1.322   9.382
 1883TIP3    H116472   2.404   1.415   9.364
 1883TIP3    H216473   2.346   1.293   9.433
 1884TIP3   OH216474   1.934   1.291   8.477
 1884TIP3    H116475   1.927   1.327   8.388
 1884TIP3    H216476   1.946   1.367   8.533
 1885TIP3   OH216477   3.279   1.509   9.077
 1885TIP3    H116478   3.186   1.506   9.101
 1885TIP3    H216479   3.292   1.599   9.047
 1886TIP3   OH216480   3.383   0.282   9.176
 1886TIP3    H116481   3.335   0.253   9.099
 1886TIP3    H216482   3.469   0.309   9.142
 1887TIP3   OH216483   2.636   0.171   9.017
 1887TIP3    H116484   2.653   0.140   9.105
 1887TIP3    H216485   2.547   0.206   9.021
 1888TIP3   OH216486   3.194   1.680   8.756
 1888TIP3    H116487   3.220   1.593   8.726
 1888TIP3    H216488   3.264   1.737   8.725
 1889TIP3   OH216489   3.280   1.441   8.658
 1889TIP3    H116490   3.289   1.380   8.585
 1889TIP3    H216491   3.295   1.388   8.736
 1890TIP3   OH216492   3.425   1.258   9.445
 1890TIP3    H116493   3.419   1.198   9.371
 1890TIP3    H216494   3.436   1.344   9.405
 1891TIP3   OH216495   2.883   0.958   8.458
 1891TIP3    H116496   2.824   1.025   8.425
 1891TIP3    H216497   2.954   0.956   8.393
 1892TIP3   OH216498   2.899   0.806   8.149
 1892TIP3    H116499   2.975   0.843   8.194
 1892TIP3    H216500   2.921   0.714   8.137
 1893TIP3   OH216501   3.590   0.958   9.303
 1893TIP3    H116502   3.514   1.012   9.283
 1893TIP3    H216503   3.649   0.972   9.229
 1894TIP3   OH216504   3.233   1.007   8.530
 1894TIP3    H116505   3.163   1.034   8.589
 1894TIP3    H216506   3.298   0.966   8.588
 1895TIP3   OH216507   3.205   0.908   9.427
 1895TIP3    H116508   3.187   1.002   9.439
 1895TIP3    H216509   3.132   0.877   9.374
 1896TIP3   OH216510   2.389   1.049   8.671
 1896TIP3    H116511   2.367   0.997   8.594
 1896TIP3    H216512   2.438   0.988   8.728
 1897TIP3   OH216513   2.576   1.380   8.966
 1897TIP3    H116514   2.610   1.384   8.877
 1897TIP3    H216515   2.639   1.328   9.015
 1898TIP3   OH216516   2.360   0.967   9.071
 1898TIP3    H116517   2.414   0.936   8.998
 1898TIP3    H216518   2.419   1.023   9.121
 1899TIP3   OH216519   3.025   1.506   9.186
 1899TIP3    H116520   3.024   1.580   9.246
 1899TIP3    H216521   2.982   1.436   9.234
 1900TIP3   OH216522   2.612   1.410   9.572
 1900TIP3    H116523   2.540   1.455   9.617
 1900TIP3    H216524   2.570   1.367   9.497
 1901TIP3   OH216525   3.119   0.896   8.304
 1901TIP3    H116526   3.163   0.931   8.382
 1901TIP3    H216527   3.159   0.943   8.231
 1902TIP3   OH216528   2.220   1.003   9.635
 1902TIP3    H116529   2.227   1.092   9.601
 1902TIP3    H216530   2.140   0.969   9.595
 1903TIP3   OH216531   2.826   1.609   8.584
 1903TIP3    H116532   2.764   1.681   8.596
 1903TIP3    H216533   2.810   1.579   8.494
 1904TIP3   OH216534   2.377   1.520   9.657
 1904TIP3    H116535   2.356   1.565   9.574
 1904TIP3    H216536   2.293   1.488   9.688
 1905TIP3   OH216537   3.385   0.050   8.237
 1905TIP3    H116538   3.341   0.089   8.311
 1905TIP3    H216539   3.455   0.111   8.215
 1906TIP3   OH216540   2.306   0.920   8.434
 1906TIP3    H116541   2.237   0.984   8.415
 1906TIP3    H216542   2.259   0.837   8.442
 1907TIP3   OH216543   3.613   1.418   8.161
 1907TIP3    H116544   3.618   1.511   8.141
 1907TIP3    H216545   3.703   1.388   8.160
 1908TIP3   OH216546   1.977   1.170   9.383
 1908TIP3    H116547   1.960   1.155   9.290
 1908TIP3    H216548   1.987   1.082   9.419
 1909TIP3   OH216549   1.819   1.504   9.094
 1909TIP3    H116550   1.887   1.544   9.148
 1909TIP3    H216551   1.738   1.522   9.141
 1910TIP3   OH216552   3.682   1.546   9.613
 1910TIP3    H116553   3.675   1.454   9.639
 1910TIP3    H216554   3.600   1.585   9.642
 1911TIP3   OH216555   2.832   1.584   9.540
 1911TIP3    H116556   2.832   1.665   9.591
 1911TIP3    H216557   2.756   1.535   9.572
 1912TIP3   OH216558   2.721   1.866   8.526
 1912TIP3    H116559   2.724   1.868   8.431
 1912TIP3    H216560   2.769   1.945   8.554
 1913TIP3   OH216561   2.155   1.710   8.686
 1913TIP3    H116562   2.190   1.684   8.771
 1913TIP3    H216563   2.093   1.639   8.664
 1914TIP3   OH216564   3.056   1.928   8.336
 1914TIP3    H116565   3.041   1.869   8.262
 1914TIP3    H216566   3.049   1.872   8.413
 1915TIP3   OH216567   3.027   1.800   8.575
 1915TIP3    H116568   2.953   1.739   8.573
 1915TIP3    H216569   3.093   1.756   8.630
 1916TIP3   OH216570   2.197   1.260   9.533
 1916TIP3    H116571   2.175   1.315   9.609
 1916TIP3    H216572   2.114   1.252   9.485
 1917TIP3   OH216573   2.376   0.249   9.038
 1917TIP3    H116574   2.299   0.211   8.994
 1917TIP3    H216575   2.340   0.292   9.115
 1918TIP3   OH216576   2.870   0.124   9.416
 1918TIP3    H116577   2.830   0.121   9.503
 1918TIP3    H216578   2.796   0.137   9.357
 1919TIP3   OH216579   3.181   0.494   9.520
 1919TIP3    H116580   3.149   0.463   9.605
 1919TIP3    H216581   3.181   0.589   9.528
 1920TIP3   OH216582   3.233   1.047   8.109
 1920TIP3    H116583   3.186   1.112   8.056
 1920TIP3    H216584   3.316   1.090   8.131
 1921TIP3   OH216585   2.766   0.357   8.182
 1921TIP3    H116586   2.736   0.310   8.260
 1921TIP3    H216587   2.685   0.382   8.137
 1922TIP3   OH216588   2.417   0.742   9.225
 1922TIP3    H116589   2.404   0.760   9.318
 1922TIP3    H216590   2.408   0.827   9.182
 1923TIP3   OH216591   2.369   0.694   8.658
 1923TIP3    H116592   2.275   0.674   8.666
 1923TIP3    H216593   2.393   0.660   8.572
 1924TIP3   OH216594   2.871   0.691   8.520
 1924TIP3    H116595   2.862   0.785   8.504
 1924TIP3    H216596   2.952   0.666   8.475
 1925TIP3   OH216597   2.926   0.638   8.786
 1925TIP3    H116598   2.894   0.665   8.700
 1925TIP3    H216599   3.008   0.592   8.768
 1926TIP3   OH216600   2.128   0.707   9.393
 1926TIP3    H116601   2.207   0.725   9.443
 1926TIP3    H216602   2.109   0.615   9.410
 1927TIP3   OH216603   2.503   0.421   8.116
 1927TIP3    H116604   2.426   0.379   8.154
 1927TIP3    H216605   2.484   0.515   8.120
 1928TIP3   OH216606   1.826   0.434   8.792
 1928TIP3    H116607   1.904   0.436   8.848
 1928TIP3    H216608   1.823   0.521   8.752
 1929TIP3   OH216609   1.830   0.467   8.344
 1929TIP3    H116610   1.897   0.506   8.289
 1929TIP3    H216611   1.763   0.535   8.353
 1930TIP3   OH216612   2.994   0.817   9.263
 1930TIP3    H116613   3.023   0.770   9.185
 1930TIP3    H216614   2.938   0.756   9.310
 1931TIP3   OH216615   2.700   0.406   8.777
 1931TIP3    H116616   2.628   0.449   8.823
 1931TIP3    H216617   2.766   0.390   8.844
 1932TIP3   OH216618   2.111   0.599   8.666
 1932TIP3    H116619   2.023   0.611   8.631
 1932TIP3    H216620   2.126   0.504   8.661
 1933TIP3   OH216621   2.416   0.568   8.414
 1933TIP3    H116622   2.505   0.547   8.442
 1933TIP3    H216623   2.428   0.611   8.329
 1934TIP3   OH216624   3.058   0.422   9.091
 1934TIP3    H116625   3.038   0.402   9.182
 1934TIP3    H216626   2.998   0.368   9.040
 1935TIP3   OH216627   2.435   0.686   8.164
 1935TIP3    H116628   2.361   0.736   8.130
 1935TIP3    H216629   2.512   0.735   8.133
 1936TIP3   OH216630   2.725   0.748   8.948
 1936TIP3    H116631   2.791   0.704   8.894
 1936TIP3    H216632   2.706   0.687   9.019
 1937TIP3   OH216633   2.307   0.325   8.700
 1937TIP3    H116634   2.237   0.263   8.678
 1937TIP3    H216635   2.385   0.270   8.712
 1938TIP3   OH216636   2.652   0.602   9.175
 1938TIP3    H116637   2.578   0.657   9.201
 1938TIP3    H216638   2.717   0.614   9.245
 1939TIP3   OH216639   2.713   1.153   8.365
 1939TIP3    H116640   2.646   1.111   8.312
 1939TIP3    H216641   2.664   1.197   8.435
 1940TIP3   OH216642   3.389   1.122   9.211
 1940TIP3    H116643   3.453   1.178   9.166
 1940TIP3    H216644   3.319   1.111   9.147
 1941TIP3   OH216645   2.970   0.543   8.154
 1941TIP3    H116646   2.904   0.474   8.157
 1941TIP3    H216647   3.020   0.532   8.235
 1942TIP3   OH216648   2.780   1.183   9.571
 1942TIP3    H116649   2.796   1.145   9.658
 1942TIP3    H216650   2.730   1.263   9.589
 1943TIP3   OH216651   3.114   0.627   8.395
 1943TIP3    H116652   3.200   0.622   8.437
 1943TIP3    H216653   3.116   0.711   8.348
 1944TIP3   OH216654   2.206   1.105   8.877
 1944TIP3    H116655   2.262   1.091   8.800
 1944TIP3    H216656   2.250   1.057   8.947
 1945TIP3   OH216657   2.921   1.335   8.336
 1945TIP3    H116658   2.868   1.413   8.326
 1945TIP3    H216659   2.858   1.263   8.335
 1946TIP3   OH216660   1.980   0.916   9.509
 1946TIP3    H116661   2.021   0.840   9.469
 1946TIP3    H216662   1.887   0.896   9.510
 1947TIP3   OH216663   2.649   0.721   9.611
 1947TIP3    H116664   2.670   0.803   9.566
 1947TIP3    H216665   2.720   0.709   9.673
 1948TIP3   OH216666   3.063   1.435   9.592
 1948TIP3    H116667   2.981   1.471   9.559
 1948TIP3    H216668   3.063   1.454   9.685
 1949TIP3   OH216669   3.559   0.708   8.351
 1949TIP3    H116670   3.490   0.689   8.287
 1949TIP3    H216671   3.585   0.798   8.332
 1950TIP3   OH216672   3.636   1.267   9.623
 1950TIP3    H116673   3.553   1.260   9.576
 1950TIP3    H216674   3.703   1.259   9.555
 1951TIP3   OH216675   3.483   1.505   8.393
 1951TIP3    H116676   3.421   1.440   8.423
 1951TIP3    H216677   3.521   1.468   8.314
 1952TIP3   OH216678   3.199   1.078   9.010
 1952TIP3    H116679   3.104   1.075   8.996
 1952TIP3    H216680   3.229   0.992   8.983
 1953TIP3   OH216681   2.474   1.470   8.692
 1953TIP3    H116682   2.452   1.553   8.650
 1953TIP3    H216683   2.402   1.454   8.753
 1954TIP3   OH216684   2.000   0.862   8.263
 1954TIP3    H116685   2.047   0.939   8.293
 1954TIP3    H216686   1.908   0.888   8.263
 1955TIP3   OH216687   2.523   1.257   8.533
 1955TIP3    H116688   2.518   1.333   8.591
 1955TIP3    H216689   2.476   1.188   8.580
 1956TIP3   OH216690   2.671   1.641   9.304
 1956TIP3    H116691   2.723   1.720   9.289
 1956TIP3    H216692   2.722   1.590   9.368
 1957TIP3   OH216693   2.396   1.705   8.563
 1957TIP3    H116694   2.303   1.707   8.587
 1957TIP3    H216695   2.432   1.785   8.601
 1958TIP3   OH216696   2.921   1.274   9.335
 1958TIP3    H116697   2.868   1.247   9.410
 1958TIP3    H216698   3.006   1.233   9.350
 1959TIP3   OH216699   3.111   1.476   8.176
 1959TIP3    H116700   3.063   1.417   8.234
 1959TIP3    H216701   3.047   1.543   8.152
 1960TIP3   OH216702   3.237   1.616   9.481
 1960TIP3    H116703   3.184   1.547   9.520
 1960TIP3    H216704   3.175   1.665   9.426
 1961TIP3   OH216705   3.666   1.690   8.129
 1961TIP3    H116706   3.691   1.725   8.043
 1961TIP3    H216707   3.592   1.743   8.157
 1962TIP3   OH216708   2.071   0.433   9.432
 1962TIP3    H116709   1.983   0.446   9.469
 1962TIP3    H216710   2.105   0.358   9.481
 1963TIP3   OH216711   3.350   1.253   8.453
 1963TIP3    H116712   3.286   1.183   8.467
 1963TIP3    H216713   3.433   1.215   8.483
 1964TIP3   OH216714   2.024   1.630   9.243
 1964TIP3    H116715   2.093   1.576   9.282
 1964TIP3    H216716   2.025   1.710   9.294
 1965TIP3   OH216717   2.464   1.391   8.289
 1965TIP3    H116718   2.495   1.350   8.370
 1965TIP3    H216719   2.490   1.483   8.298
 1966TIP3   OH216720   2.108   1.099   8.367
 1966TIP3    H116721   2.048   1.148   8.424
 1966TIP3    H216722   2.149   1.166   8.312
 1967TIP3   OH216723   2.991   0.376   9.356
 1967TIP3    H116724   3.062   0.401   9.415
 1967TIP3    H216725   2.964   0.290   9.387
 1968TIP3   OH216726   3.071   0.371   8.521
 1968TIP3    H116727   3.074   0.443   8.457
 1968TIP3    H216728   3.106   0.410   8.602
 1969TIP3   OH216729   2.773   1.563   8.320
 1969TIP3    H116730   2.683   1.594   8.311
 1969TIP3    H216731   2.822   1.615   8.256
 1970TIP3   OH216732   2.663   0.511   8.522
 1970TIP3    H116733   2.731   0.577   8.509
 1970TIP3    H216734   2.675   0.480   8.612
 1971TIP3   OH216735   2.842   0.611   9.378
 1971TIP3    H116736   2.818   0.617   9.470
 1971TIP3    H216737   2.891   0.529   9.370
 1972TIP3   OH216738   2.851   0.230   8.604
 1972TIP3    H116739   2.818   0.284   8.676
 1972TIP3    H216740   2.929   0.276   8.573
 1973TIP3   OH216741   2.517   1.662   8.324
 1973TIP3    H116742   2.504   1.745   8.277
 1973TIP3    H216743   2.474   1.674   8.408
 1974TIP3   OH216744   2.291   0.344   8.287
 1974TIP3    H116745   2.318   0.415   8.346
 1974TIP3    H216746   2.332   0.265   8.323
 1975TIP3   OH216747   3.406   0.359   9.435
 1975TIP3    H116748   3.329   0.401   9.474
 1975TIP3    H216749   3.379   0.335   9.347
 1976TIP3   OH216750   3.281   0.817   8.954
 1976TIP3    H116751   3.200   0.774   8.978
 1976TIP3    H216752   3.349   0.770   9.004
 1977TIP3   OH216753   2.209   1.308   8.213
 1977TIP3    H116754   2.276   1.357   8.261
 1977TIP3    H216755   2.257   1.267   8.141
 1978TIP3   OH216756   1.996   0.598   8.170
 1978TIP3    H116757   2.008   0.683   8.213
 1978TIP3    H216758   1.986   0.620   8.077
 1979TIP3   OH216759   3.360   1.779   9.036
 1979TIP3    H116760   3.334   1.855   8.983
 1979TIP3    H216761   3.452   1.764   9.013
 1980TIP3   OH216762   2.149   0.144   8.919
 1980TIP3    H116763   2.120   0.137   8.828
 1980TIP3    H216764   2.180   0.056   8.941
 1981TIP3   OH216765   1.949   1.534   8.609
 1981TIP3    H116766   1.903   1.561   8.689
 1981TIP3    H216767   1.923   1.599   8.543
 1982TIP3   OH216768   1.824   1.732   9.687
 1982TIP3    H116769   1.868   1.661   9.734
 1982TIP3    H216770   1.738   1.738   9.728
 1983TIP3   OH216771   2.637   1.765   8.019
 1983TIP3    H116772   2.621   1.689   7.963
 1983TIP3    H216773   2.731   1.759   8.040
 1984TIP3   OH216774   3.062   1.509   9.863
 1984TIP3    H116775   3.014   1.429   9.884
 1984TIP3    H216776   3.035   1.571   9.930
 1985TIP3   OH216777   3.244   1.718   8.117
 1985TIP3    H116778   3.237   1.626   8.141
 1985TIP3    H216779   3.154   1.744   8.095
 1986TIP3   OH216780   2.429   1.210   8.078
 1986TIP3    H116781   2.454   1.134   8.131
 1986TIP3    H216782   2.461   1.285   8.128
 1987TIP3   OH216783   3.157   1.190   9.477
 1987TIP3    H116784   3.249   1.215   9.471
 1987TIP3    H216785   3.116   1.262   9.526
 1988TIP3   OH216786   2.500   1.014   8.257
 1988TIP3    H116787   2.443   0.973   8.322
 1988TIP3    H216788   2.544   0.940   8.214
 1989TIP3   OH216789   2.374   0.821   9.483
 1989TIP3    H116790   2.334   0.885   9.542
 1989TIP3    H216791   2.455   0.796   9.527
 1990TIP3   OH216792   2.639   0.848   8.085
 1990TIP3    H116793   2.651   0.899   8.005
 1990TIP3    H216794   2.729   0.829   8.115
 1991TIP3   OH216795   3.452   1.192   8.194
 1991TIP3    H116796   3.503   1.268   8.166
 1991TIP3    H216797   3.409   1.220   8.275
 1992TIP3   OH216798   2.452   0.528   9.560
 1992TIP3    H116799   2.486   0.471   9.491
 1992TIP3    H216800   2.526   0.584   9.584
 1993TIP3   OH216801   2.527   0.391   9.321
 1993TIP3    H116802   2.572   0.450   9.261
 1993TIP3    H216803   2.436   0.395   9.295
 1994TIP3   OH216804   2.656   0.958   9.457
 1994TIP3    H116805   2.707   1.031   9.492
 1994TIP3    H216806   2.611   0.995   9.380
 1995TIP3   OH216807   2.213   0.622   9.662
 1995TIP3    H116808   2.161   0.546   9.690
 1995TIP3    H216809   2.293   0.584   9.626
 1996TIP3   OH216810   2.629   0.139   9.290
 1996TIP3    H116811   2.592   0.226   9.304
 1996TIP3    H216812   2.562   0.078   9.321
 1997TIP3   OH216813   2.058   0.416   9.772
 1997TIP3    H116814   2.090   0.345   9.718
 1997TIP3    H216815   2.052   0.378   9.860
 1998TIP3   OH216816   2.674   0.094   9.611
 1998TIP3    H116817   2.649   0.110   9.703
 1998TIP3    H216818   2.605   0.136   9.560
 1999TIP3   OH216819   2.521   0.138   9.838
 1999TIP3    H116820   2.527   0.060   9.892
 1999TIP3    H216821   2.538   0.211   9.898
 2000TIP3   OH216822   2.514   1.922   8.206
 2000TIP3    H116823   2.594   1.965   8.238
 2000TIP3    H216824   2.542   1.874   8.128
 2001TIP3   OH216825   1.939   1.357   8.204
 2001TIP3    H116826   2.035   1.360   8.211
 2001TIP3    H216827   1.923   1.306   8.124
 2002TIP3   OH216828   1.818   1.859   8.687
 2002TIP3    H116829   1.757   1.827   8.620
 2002TIP3    H216830   1.829   1.784   8.746
 2003TIP3   OH216831   1.864   1.643   8.853
 2003TIP3    H116832   1.829   1.583   8.918
 2003TIP3    H216833   1.929   1.696   8.901
 2004TIP3   OH216834   3.631   1.747   8.988
 2004TIP3    H116835   3.703   1.782   9.040
 2004TIP3    H216836   3.671   1.723   8.904
 2005TIP3   OH216837   3.659   1.629   9.350
 2005TIP3    H116838   3.587   1.574   9.320
 2005TIP3    H216839   3.683   1.594   9.436
 2006TIP3   OH216840   3.584   1.129   8.509
 2006TIP3    H116841   3.652   1.196   8.504
 2006TIP3    H216842   3.618   1.065   8.572
 2007TIP3   OH216843   3.661   0.915   8.662
 2007TIP3    H116844   3.572   0.904   8.697
 2007TIP3    H216845   3.713   0.940   8.738
 2008TIP3   OH216846   3.640   1.246   9.182
 2008TIP3    H116847   3.689   1.177   9.137
 2008TIP3    H216848   3.657   1.325   9.131
 2009TIP3   OH216849   3.422   1.499   9.312
 2009TIP3    H116850   3.353   1.542   9.363
 2009TIP3    H216851   3.384   1.492   9.224
 2010TIP3   OH216852   3.615   0.974   8.287
 2010TIP3    H116853   3.566   1.024   8.221
 2010TIP3    H216854   3.599   1.021   8.369
 2011TIP3   OH216855   3.358   0.651   8.180
 2011TIP3    H116856   3.295   0.693   8.121
 2011TIP3    H216857   3.351   0.558   8.159
 2012TIP3   OH216858   3.393   0.854   8.705
 2012TIP3    H116859   3.376   0.770   8.663
 2012TIP3    H216860   3.352   0.847   8.791
 2013TIP3   OH216861   1.890   1.042   9.131
 2013TIP3    H116862   1.893   1.028   9.037
 2013TIP3    H216863   1.965   0.993   9.165
 2014TIP3   OH216864   3.349   0.383   8.126
 2014TIP3    H116865   3.428   0.334   8.146
 2014TIP3    H216866   3.284   0.316   8.105
 2015TIP3   OH216867   3.363   0.625   8.536
 2015TIP3    H116868   3.387   0.533   8.534
 2015TIP3    H216869   3.426   0.668   8.479
 2016TIP3   OH216870   3.458   0.663   9.102
 2016TIP3    H116871   3.553   0.670   9.089
 2016TIP3    H216872   3.446   0.678   9.196
 2017TIP3   OH216873   3.433   0.748   9.371
 2017TIP3    H116874   3.348   0.790   9.388
 2017TIP3    H216875   3.493   0.820   9.353
 2018TIP3   OH216876   1.845   0.456   9.593
 2018TIP3    H116877   1.907   0.458   9.667
 2018TIP3    H216878   1.792   0.378   9.609
 2019TIP3   OH216879   3.420   0.362   8.528
 2019TIP3    H116880   3.442   0.321   8.612
 2019TIP3    H216881   3.371   0.294   8.482
 2020TIP3   OH216882   2.063   0.411   8.931
 2020TIP3    H116883   2.089   0.319   8.941
 2020TIP3    H216884   2.135   0.460   8.971
 2021TIP3   OH216885   1.851   0.627   9.067
 2021TIP3    H116886   1.917   0.659   9.006
 2021TIP3    H216887   1.896   0.624   9.151
 2022TIP3   OH216888   3.581   0.249   8.204
 2022TIP3    H116889   3.656   0.190   8.211
 2022TIP3    H216890   3.614   0.333   8.238
 2023TIP3   OH216891   1.912   0.314   8.559
 2023TIP3    H116892   1.866   0.347   8.636
 2023TIP3    H216893   1.880   0.368   8.487
 2024TIP3   OH216894   3.355   1.876   8.642
 2024TIP3    H116895   3.409   1.830   8.577
 2024TIP3    H216896   3.416   1.928   8.692
 2025TIP3   OH216897   1.739   0.102   9.171
 2025TIP3    H116898   1.710   0.099   9.262
 2025TIP3    H216899   1.743   0.195   9.150
 2026TIP3   OH216900   2.400   1.602   9.372
 2026TIP3    H116901   2.361   1.683   9.339
 2026TIP3    H216902   2.494   1.612   9.355
 2027TIP3   OH216903   3.538   0.120   9.451
 2027TIP3    H116904   3.491   0.203   9.461
 2027TIP3    H216905   3.473   0.061   9.412
 2028TIP3   OH216906   2.047   1.880   9.357
 2028TIP3    H116907   1.976   1.935   9.324
 2028TIP3    H216908   2.045   1.893   9.451
 2029TIP3   OH216909   2.309   1.846   9.276
 2029TIP3    H116910   2.222   1.860   9.311
 2029TIP3    H216911   2.312   1.898   9.196
 2030TIP3   OH216912   2.822   1.875   9.258
 2030TIP3    H116913   2.737   1.900   9.223
 2030TIP3    H216914   2.839   1.939   9.328
 2031TIP3   OH216915   3.067   1.752   9.314
 2031TIP3    H116916   2.984   1.793   9.290
 2031TIP3    H216917   3.133   1.818   9.292
 2032TIP3   OH216918   3.302   1.905   9.269
 2032TIP3    H116919   3.334   1.992   9.247
 2032TIP3    H216920   3.315   1.853   9.189
 2033TIP3   OH216921   2.054   1.772   9.008
 2033TIP3    H116922   2.034   1.730   9.091
 2033TIP3    H216923   2.137   1.734   8.981
 2034TIP3   OH216924   2.279   1.642   8.928
 2034TIP3    H116925   2.275   1.547   8.924
 2034TIP3    H216926   2.363   1.660   8.971
 2035TIP3   OH216927   2.534   1.645   9.053
 2035TIP3    H116928   2.550   1.557   9.018
 2035TIP3    H216929   2.575   1.644   9.140
 2036TIP3   OH216930   2.883   0.268   8.938
 2036TIP3    H116931   2.804   0.225   8.970
 2036TIP3    H216932   2.938   0.196   8.908
 2037TIP3   OH216933   3.284   0.172   8.945
 2037TIP3    H116934   3.334   0.217   8.877
 2037TIP3    H216935   3.199   0.154   8.904
 2038TIP3   OH216936   3.492   0.253   8.771
 2038TIP3    H116937   3.534   0.178   8.813
 2038TIP3    H216938   3.558   0.323   8.773
 2039TIP3   OH216939   2.106   0.139   8.646
 2039TIP3    H116940   2.038   0.205   8.635
 2039TIP3    H216941   2.101   0.085   8.567
 2040TIP3   OH216942   1.989   0.103   8.394
 2040TIP3    H116943   2.017   0.150   8.315
 2040TIP3    H216944   1.945   0.169   8.447
 2041TIP3   OH216945   2.538   0.178   8.754
 2041TIP3    H116946   2.599   0.251   8.740
 2041TIP3    H216947   2.564   0.142   8.839
 2042TIP3   OH216948   3.044   0.065   8.839
 2042TIP3    H116949   3.011   0.039   8.753
 2042TIP3    H216950   3.094   5.180   8.869
 2043TIP3   OH216951   3.245   0.161   8.444
 2043TIP3    H116952   3.174   0.220   8.470
 2043TIP3    H216953   3.250   0.097   8.515
 2044TIP3   OH216954   1.889   1.723   8.420
 2044TIP3    H116955   1.836   1.713   8.341
 2044TIP3    H216956   1.923   1.812   8.416
 2045TIP3   OH216957   2.040   0.290   8.188
 2045TIP3    H116958   2.013   0.379   8.167
 2045TIP3    H216959   2.132   0.299   8.215
 2046TIP3   OH216960   2.653   0.254   8.417
 2046TIP3    H116961   2.719   0.223   8.478
 2046TIP3    H216962   2.641   0.346   8.440
 2047TIP3   OH216963   2.796   1.989   8.266
 2047TIP3    H116964   2.881   1.987   8.309
 2047TIP3    H216965   2.804   1.926   8.194
 2048TIP3   OH216966   3.523   1.768   8.456
 2048TIP3    H116967   3.513   1.673   8.447
 2048TIP3    H216968   3.504   1.802   8.369
 2049TIP3   OH216969   2.135   0.220   9.597
 2049TIP3    H116970   2.062   0.162   9.619
 2049TIP3    H216971   2.213   0.166   9.606
 2050TIP3   OH216972   2.340   0.042   9.647
 2050TIP3    H116973   2.398   0.080   9.713
 2050TIP3    H216974   2.305   5.154   9.688
 2051TIP3   OH216975   1.932   1.934   8.112
 2051TIP3    H116976   1.947   1.946   8.206
 2051TIP3    H216977   2.020   1.925   8.075
 2052TIP3   OH216978   3.138   0.199   9.684
 2052TIP3    H116979   3.110   0.282   9.723
 2052TIP3    H216980   3.146   0.139   9.758
 2053TIP3   OH216981   3.456   1.708   9.619
 2053TIP3    H116982   3.383   1.667   9.574
 2053TIP3    H216983   3.494   1.768   9.555
 2054TIP3   OH216984   4.830   1.133   8.640
 2054TIP3    H116985   4.843   1.226   8.659
 2054TIP3    H216986   4.761   1.132   8.574
 2055TIP3   OH216987   4.785   0.979   8.916
 2055TIP3    H116988   4.848   0.999   8.985
 2055TIP3    H216989   4.702   1.014   8.948
 2056TIP3   OH216990   3.954   0.836   9.180
 2056TIP3    H116991   3.968   0.779   9.256
 2056TIP3    H216992   4.040   0.875   9.164
 2057TIP3   OH216993   4.201   1.344   8.954
 2057TIP3    H116994   4.150   1.267   8.929
 2057TIP3    H216995   4.202   1.342   9.050
 2058TIP3   OH216996   3.729   0.664   8.575
 2058TIP3    H116997   3.716   0.752   8.610
 2058TIP3    H216998   3.676   0.662   8.495
 2059TIP3   OH216999   3.854   0.964   8.850
 2059TIP3    H117000   3.888   0.875   8.859
 2059TIP3    H217001   3.931   1.020   8.856
 2060TIP3   OH217002   4.848   1.720   8.862
 2060TIP3    H117003   4.772   1.700   8.808
 2060TIP3    H217004   4.843   1.658   8.935
 2061TIP3   OH217005   4.574   1.180   8.981
 2061TIP3    H117006   4.568   1.187   8.886
 2061TIP3    H217007   4.657   1.221   9.003
 2062TIP3   OH217008   4.858   0.725   9.074
 2062TIP3    H117009   4.939   0.721   9.124
 2062TIP3    H217010   4.885   0.748   8.985
 2063TIP3   OH217011   4.258   0.449   8.800
 2063TIP3    H117012   4.256   0.533   8.754
 2063TIP3    H217013   4.208   0.390   8.745
 2064TIP3   OH217014   4.948   0.489   8.745
 2064TIP3    H117015   5.011   0.429   8.786
 2064TIP3    H217016   4.997   0.528   8.673
 2065TIP3   OH217017   3.937   0.702   8.873
 2065TIP3    H117018   3.993   0.651   8.932
 2065TIP3    H217019   3.954   0.667   8.786
 2066TIP3   OH217020   4.372   0.798   8.891
 2066TIP3    H117021   4.454   0.754   8.915
 2066TIP3    H217022   4.336   0.745   8.820
 2067TIP3   OH217023   4.127   0.329   9.220
 2067TIP3    H117024   4.110   0.391   9.150
 2067TIP3    H217025   4.049   0.333   9.275
 2068TIP3   OH217026   4.820   1.415   8.623
 2068TIP3    H117027   4.805   1.388   8.533
 2068TIP3    H217028   4.755   1.483   8.639
 2069TIP3   OH217029   4.385   1.122   9.178
 2069TIP3    H117030   4.334   1.200   9.200
 2069TIP3    H217031   4.443   1.151   9.107
 2070TIP3   OH217032   4.103   0.521   9.015
 2070TIP3    H117033   4.152   0.576   9.077
 2070TIP3    H217034   4.169   0.493   8.952
 2071TIP3   OH217035   4.228   1.349   9.228
 2071TIP3    H117036   4.263   1.439   9.232
 2071TIP3    H217037   4.154   1.350   9.288
 2072TIP3   OH217038   3.771   1.317   8.452
 2072TIP3    H117039   3.781   1.345   8.361
 2072TIP3    H217040   3.781   1.397   8.504
 2073TIP3   OH217041   4.493   0.122   8.895
 2073TIP3    H117042   4.515   0.036   8.931
 2073TIP3    H217043   4.411   0.145   8.938
 2074TIP3   OH217044   5.009   1.604   8.674
 2074TIP3    H117045   4.953   1.527   8.663
 2074TIP3    H217046   4.968   1.653   8.745
 2075TIP3   OH217047   4.813   0.964   8.363
 2075TIP3    H117048   4.732   1.010   8.385
 2075TIP3    H217049   4.874   1.032   8.335
 2076TIP3   OH217050   4.687   0.742   8.126
 2076TIP3    H117051   4.775   0.749   8.164
 2076TIP3    H217052   4.678   0.648   8.105
 2077TIP3   OH217053   5.084   0.913   8.588
 2077TIP3    H117054   5.103   0.931   8.496
 2077TIP3    H217055   5.157   0.952   8.636
 2078TIP3   OH217056   4.915   0.808   9.487
 2078TIP3    H117057   4.858   0.784   9.560
 2078TIP3    H217058   4.855   0.833   9.416
 2079TIP3   OH217059   4.288   1.007   8.718
 2079TIP3    H117060   4.244   0.973   8.640
 2079TIP3    H217061   4.319   0.929   8.764
 2080TIP3   OH217062   4.505   1.454   8.905
 2080TIP3    H117063   4.459   1.442   8.822
 2080TIP3    H217064   4.492   1.371   8.952
 2081TIP3   OH217065   4.221   0.918   9.093
 2081TIP3    H117066   4.278   0.881   9.025
 2081TIP3    H217067   4.274   0.985   9.135
 2082TIP3   OH217068   4.861   1.523   9.060
 2082TIP3    H117069   4.862   1.558   9.150
 2082TIP3    H217070   4.824   1.435   9.069
 2083TIP3   OH217071   5.127   0.942   8.320
 2083TIP3    H117072   0.001   0.939   8.250
 2083TIP3    H217073   5.080   1.024   8.306
 2084TIP3   OH217074   4.097   0.963   9.437
 2084TIP3    H117075   4.111   1.048   9.479
 2084TIP3    H217076   4.002   0.952   9.434
 2085TIP3   OH217077   4.675   1.654   8.647
 2085TIP3    H117078   4.582   1.656   8.667
 2085TIP3    H217079   4.687   1.720   8.579
 2086TIP3   OH217080   4.145   0.942   8.482
 2086TIP3    H117081   4.098   1.025   8.470
 2086TIP3    H217082   4.080   0.875   8.459
 2087TIP3   OH217083   3.802   1.228   9.412
 2087TIP3    H117084   3.749   1.235   9.333
 2087TIP3    H217085   3.826   1.136   9.417
 2088TIP3   OH217086   3.704   1.474   9.052
 2088TIP3    H117087   3.780   1.511   9.098
 2088TIP3    H217088   3.654   1.550   9.023
 2089TIP3   OH217089   4.655   1.497   9.559
 2089TIP3    H117090   4.665   1.584   9.597
 2089TIP3    H217091   4.584   1.457   9.609
 2090TIP3   OH217092   4.697   1.850   8.447
 2090TIP3    H117093   4.662   1.851   8.358
 2090TIP3    H217094   4.675   1.937   8.482
 2091TIP3   OH217095   4.120   1.707   8.639
 2091TIP3    H117096   4.131   1.667   8.726
 2091TIP3    H217097   4.118   1.633   8.579
 2092TIP3   OH217098   4.905   1.775   8.156
 2092TIP3    H117099   4.987   1.759   8.110
 2092TIP3    H217100   4.922   1.751   8.247
 2093TIP3   OH217101   4.944   1.735   8.429
 2093TIP3    H117102   4.859   1.779   8.434
 2093TIP3    H217103   4.948   1.683   8.509
 2094TIP3   OH217104   4.018   1.429   9.396
 2094TIP3    H117105   4.053   1.471   9.474
 2094TIP3    H217106   3.965   1.356   9.428
 2095TIP3   OH217107   4.243   0.152   9.017
 2095TIP3    H117108   4.161   0.159   8.968
 2095TIP3    H217109   4.223   0.192   9.102
 2096TIP3   OH217110   4.804   0.111   9.445
 2096TIP3    H117111   4.764   0.154   9.520
 2096TIP3    H217112   4.743   0.129   9.373
 2097TIP3   OH217113   5.153   0.669   9.421
 2097TIP3    H117114   5.186   0.620   9.497
 2097TIP3    H217115   5.070   0.705   9.450
 2098TIP3   OH217116   4.661   0.464   8.081
 2098TIP3    H117117   4.568   0.457   8.101
 2098TIP3    H217118   4.670   0.420   7.997
 2099TIP3   OH217119   4.222   0.668   9.214
 2099TIP3    H117120   4.155   0.660   9.282
 2099TIP3    H217121   4.221   0.761   9.191
 2100TIP3   OH217122   4.249   0.688   8.669
 2100TIP3    H117123   4.155   0.680   8.656
 2100TIP3    H217124   4.287   0.672   8.583
 2101TIP3   OH217125   4.814   0.766   8.551
 2101TIP3    H117126   4.809   0.824   8.475
 2101TIP3    H217127   4.888   0.708   8.533
 2102TIP3   OH217128   4.727   0.752   9.697
 2102TIP3    H117129   4.645   0.706   9.718
 2102TIP3    H217130   4.787   0.727   9.767
 2103TIP3   OH217131   4.990   0.749   8.833
 2103TIP3    H117132   5.085   0.747   8.841
 2103TIP3    H217133   4.966   0.659   8.810
 2104TIP3   OH217134   3.998   0.639   9.372
 2104TIP3    H117135   3.988   0.662   9.465
 2104TIP3    H217136   3.954   0.554   9.364
 2105TIP3   OH217137   4.396   0.450   8.136
 2105TIP3    H117138   4.339   0.396   8.190
 2105TIP3    H217139   4.356   0.537   8.136
 2106TIP3   OH217140   3.700   0.430   8.734
 2106TIP3    H117141   3.757   0.434   8.811
 2106TIP3    H217142   3.703   0.519   8.698
 2107TIP3   OH217143   3.713   0.475   8.309
 2107TIP3    H117144   3.788   0.522   8.274
 2107TIP3    H217145   3.647   0.542   8.324
 2108TIP3   OH217146   4.726   0.850   9.279
 2108TIP3    H117147   4.765   0.814   9.200
 2108TIP3    H217148   4.674   0.779   9.316
 2109TIP3   OH217149   4.532   0.477   8.773
 2109TIP3    H117150   4.442   0.451   8.793
 2109TIP3    H217151   4.558   0.533   8.847
 2110TIP3   OH217152   3.993   0.598   8.626
 2110TIP3    H117153   3.906   0.612   8.590
 2110TIP3    H217154   4.013   0.506   8.607
 2111TIP3   OH217155   4.344   0.611   8.424
 2111TIP3    H117156   4.439   0.614   8.441
 2111TIP3    H217157   4.334   0.651   8.338
 2112TIP3   OH217158   4.998   0.250   9.106
 2112TIP3    H117159   4.906   0.229   9.088
 2112TIP3    H217160   5.031   0.281   9.022
 2113TIP3   OH217161   4.293   0.706   8.170
 2113TIP3    H117162   4.206   0.735   8.144
 2113TIP3    H217163   4.352   0.776   8.141
 2114TIP3   OH217164   4.081   1.197   9.582
 2114TIP3    H117165   4.120   1.275   9.622
 2114TIP3    H217166   4.002   1.181   9.634
 2115TIP3   OH217167   4.598   0.649   8.977
 2115TIP3    H117168   4.685   0.673   9.007
 2115TIP3    H217169   4.556   0.610   9.054
 2116TIP3   OH217170   4.102   0.338   8.598
 2116TIP3    H117171   4.048   0.259   8.601
 2116TIP3    H217172   4.152   0.330   8.517
 2117TIP3   OH217173   4.468   0.558   9.198
 2117TIP3    H117174   4.381   0.599   9.203
 2117TIP3    H217175   4.514   0.590   9.275
 2118TIP3   OH217176   4.602   1.115   8.476
 2118TIP3    H117177   4.525   1.083   8.429
 2118TIP3    H217178   4.568   1.143   8.561
 2119TIP3   OH217179   4.848   0.467   8.283
 2119TIP3    H117180   4.787   0.461   8.210
 2119TIP3    H217181   4.887   0.554   8.274
 2120TIP3   OH217182   4.723   1.298   9.363
 2120TIP3    H117183   4.670   1.220   9.380
 2120TIP3    H217184   4.693   1.362   9.427
 2121TIP3   OH217185   4.949   0.722   8.235
 2121TIP3    H117186   5.037   0.709   8.198
 2121TIP3    H217187   4.953   0.807   8.278
 2122TIP3   OH217188   4.098   1.086   8.902
 2122TIP3    H117189   4.163   1.071   8.833
 2122TIP3    H217190   4.129   1.032   8.975
 2123TIP3   OH217191   4.768   1.318   8.372
 2123TIP3    H117192   4.735   1.402   8.341
 2123TIP3    H217193   4.691   1.262   8.378
 2124TIP3   OH217194   3.819   0.945   9.460
 2124TIP3    H117195   3.810   0.885   9.534
 2124TIP3    H217196   3.735   0.938   9.413
 2125TIP3   OH217197   4.510   0.879   9.569
 2125TIP3    H117198   4.525   0.956   9.514
 2125TIP3    H217199   4.587   0.875   9.625
 2126TIP3   OH217200   4.932   1.518   9.538
 2126TIP3    H117201   4.840   1.490   9.547
 2126TIP3    H217202   4.933   1.571   9.459
 2127TIP3   OH217203   4.991   1.037   9.097
 2127TIP3    H117204   5.011   0.951   9.135
 2127TIP3    H217205   5.077   1.076   9.080
 2128TIP3   OH217206   4.383   1.435   8.655
 2128TIP3    H117207   4.392   1.531   8.650
 2128TIP3    H217208   4.305   1.416   8.602
 2129TIP3   OH217209   3.891   0.927   8.310
 2129TIP3    H117210   3.927   1.011   8.337
 2129TIP3    H217211   3.797   0.943   8.301
 2130TIP3   OH217212   4.491   1.192   8.714
 2130TIP3    H117213   4.453   1.277   8.692
 2130TIP3    H217214   4.416   1.133   8.720
 2131TIP3   OH217215   4.562   1.642   9.331
 2131TIP3    H117216   4.623   1.703   9.290
 2131TIP3    H217217   4.616   1.593   9.393
 2132TIP3   OH217218   4.395   1.711   8.642
 2132TIP3    H117219   4.301   1.725   8.645
 2132TIP3    H217220   4.433   1.791   8.680
 2133TIP3   OH217221   4.813   1.254   9.109
 2133TIP3    H117222   4.783   1.268   9.199
 2133TIP3    H217223   4.874   1.180   9.114
 2134TIP3   OH217224   4.989   1.174   8.301
 2134TIP3    H117225   5.068   1.224   8.320
 2134TIP3    H217226   4.917   1.235   8.318
 2135TIP3   OH217227   3.869   0.391   9.340
 2135TIP3    H117228   3.788   0.441   9.352
 2135TIP3    H217229   3.840   0.302   9.322
 2136TIP3   OH217230   3.896   1.595   9.212
 2136TIP3    H117231   3.950   1.539   9.268
 2136TIP3    H217232   3.822   1.620   9.267
 2137TIP3   OH217233   4.368   1.472   8.240
 2137TIP3    H117234   4.304   1.437   8.302
 2137TIP3    H217235   4.399   1.553   8.280
 2138TIP3   OH217236   3.999   1.168   8.416
 2138TIP3    H117237   3.915   1.204   8.445
 2138TIP3    H217238   4.062   1.239   8.429
 2139TIP3   OH217239   4.768   0.469   9.518
 2139TIP3    H117240   4.846   0.446   9.467
 2139TIP3    H217241   4.740   0.386   9.557
 2140TIP3   OH217242   4.929   0.321   8.498
 2140TIP3    H117243   4.916   0.360   8.411
 2140TIP3    H217244   4.877   0.376   8.557
 2141TIP3   OH217245   4.672   1.561   8.311
 2141TIP3    H117246   4.603   1.614   8.351
 2141TIP3    H217247   4.662   1.577   8.217
 2142TIP3   OH217248   4.599   0.589   8.530
 2142TIP3    H117249   4.669   0.653   8.539
 2142TIP3    H217250   4.580   0.560   8.619
 2143TIP3   OH217251   4.594   0.655   9.417
 2143TIP3    H117252   4.562   0.712   9.487
 2143TIP3    H217253   4.652   0.592   9.461
 2144TIP3   OH217254   4.738   0.313   8.704
 2144TIP3    H117255   4.654   0.352   8.727
 2144TIP3    H217256   4.803   0.370   8.744
 2145TIP3   OH217257   4.439   1.702   8.371
 2145TIP3    H117258   4.421   1.793   8.347
 2145TIP3    H217259   4.418   1.697   8.464
 2146TIP3   OH217260   4.275   0.347   8.377
 2146TIP3    H117261   4.285   0.440   8.397
 2146TIP3    H217262   4.361   0.309   8.393
 2147TIP3   OH217263   4.096   1.540   8.168
 2147TIP3    H117264   4.097   1.521   8.262
 2147TIP3    H217265   4.184   1.516   8.138
 2148TIP3   OH217266   3.887   0.669   8.211
 2148TIP3    H117267   3.896   0.753   8.257
 2148TIP3    H217268   3.860   0.693   8.122
 2149TIP3   OH217269   3.989   0.146   8.898
 2149TIP3    H117270   3.970   0.120   8.808
 2149TIP3    H217271   3.975   0.067   8.950
 2150TIP3   OH217272   3.866   1.560   8.541
 2150TIP3    H117273   3.854   1.628   8.475
 2150TIP3    H217274   3.950   1.520   8.519
 2151TIP3   OH217275   3.888   1.723   9.562
 2151TIP3    H117276   3.966   1.669   9.572
 2151TIP3    H217277   3.816   1.665   9.588
 2152TIP3   OH217278   4.554   1.590   8.059
 2152TIP3    H117279   4.484   1.542   8.102
 2152TIP3    H217280   4.570   1.543   7.977
 2153TIP3   OH217281   5.003   1.565   9.814
 2153TIP3    H117282   4.970   1.543   9.727
 2153TIP3    H217283   5.098   1.573   9.803
 2154TIP3   OH217284   3.863   1.154   9.752
 2154TIP3    H117285   3.848   1.061   9.768
 2154TIP3    H217286   3.776   1.188   9.730
 2155TIP3   OH217287   4.472   1.217   8.174
 2155TIP3    H117288   4.429   1.165   8.241
 2155TIP3    H217289   4.441   1.306   8.189
 2156TIP3   OH217290   5.155   1.364   9.578
 2156TIP3    H117291   5.174   1.318   9.496
 2156TIP3    H217292   5.075   1.413   9.560
 2157TIP3   OH217293   3.881   0.884   9.807
 2157TIP3    H117294   3.918   0.817   9.750
 2157TIP3    H217295   3.943   0.892   9.879
 2158TIP3   OH217296   4.376   1.027   8.354
 2158TIP3    H117297   4.297   0.994   8.397
 2158TIP3    H217298   4.391   0.967   8.281
 2159TIP3   OH217299   4.264   0.763   9.520
 2159TIP3    H117300   4.210   0.832   9.482
 2159TIP3    H217301   4.348   0.806   9.539
 2160TIP3   OH217302   4.470   0.909   8.122
 2160TIP3    H117303   4.497   0.996   8.094
 2160TIP3    H217304   4.550   0.857   8.120
 2161TIP3   OH217305   4.334   0.495   9.573
 2161TIP3    H117306   4.353   0.437   9.500
 2161TIP3    H217307   4.304   0.576   9.533
 2162TIP3   OH217308   4.381   0.334   9.333
 2162TIP3    H117309   4.417   0.401   9.275
 2162TIP3    H217310   4.292   0.321   9.302
 2163TIP3   OH217311   4.575   1.064   9.372
 2163TIP3    H117312   4.629   0.998   9.329
 2163TIP3    H217313   4.503   1.079   9.311
 2164TIP3   OH217314   4.018   0.701   9.646
 2164TIP3    H117315   4.033   0.617   9.689
 2164TIP3    H217316   4.105   0.732   9.620
 2165TIP3   OH217317   4.584   0.139   9.276
 2165TIP3    H117318   4.519   0.206   9.295
 2165TIP3    H217319   4.554   0.062   9.325
 2166TIP3   OH217320   4.491   0.614   9.767
 2166TIP3    H117321   4.434   0.679   9.807
 2166TIP3    H217322   4.437   0.574   9.698
 2167TIP3   OH217323   4.119   0.468   9.751
 2167TIP3    H117324   4.196   0.463   9.694
 2167TIP3    H217325   4.155   0.459   9.839
 2168TIP3   OH217326   4.418   1.964   8.269
 2168TIP3    H117327   4.492   1.934   8.216
 2168TIP3    H217328   4.342   1.948   8.215
 2169TIP3   OH217329   3.879   1.362   8.192
 2169TIP3    H117330   3.938   1.434   8.169
 2169TIP3    H217331   3.938   1.290   8.215
 2170TIP3   OH217332   3.695   1.888   8.636
 2170TIP3    H117333   3.646   1.850   8.562
 2170TIP3    H217334   3.724   1.812   8.686
 2171TIP3   OH217335   3.793   1.680   8.778
 2171TIP3    H117336   3.817   1.621   8.707
 2171TIP3    H217337   3.868   1.679   8.837
 2172TIP3   OH217338   3.767   1.018   9.102
 2172TIP3    H117339   3.777   1.010   9.007
 2172TIP3    H217340   3.837   0.963   9.138
 2173TIP3   OH217341   3.663   0.588   9.729
 2173TIP3    H117342   3.724   0.585   9.803
 2173TIP3    H217343   3.592   0.530   9.754
 2174TIP3   OH217344   3.868   0.390   8.949
 2174TIP3    H117345   3.905   0.303   8.936
 2174TIP3    H217346   3.942   0.443   8.981
 2175TIP3   OH217347   3.733   0.690   9.069
 2175TIP3    H117348   3.781   0.686   8.986
 2175TIP3    H217349   3.792   0.738   9.128
 2176TIP3   OH217350   3.771   0.289   8.509
 2176TIP3    H117351   3.734   0.327   8.589
 2176TIP3    H217352   3.752   0.354   8.441
 2177TIP3   OH217353   3.739   0.151   9.271
 2177TIP3    H117354   3.671   0.138   9.337
 2177TIP3    H217355   3.697   0.208   9.205
 2178TIP3   OH217356   4.311   1.611   9.242
 2178TIP3    H117357   4.263   1.688   9.274
 2178TIP3    H217358   4.395   1.616   9.287
 2179TIP3   OH217359   4.712   1.750   9.655
 2179TIP3    H117360   4.743   1.747   9.746
 2179TIP3    H217361   4.770   1.812   9.611
 2180TIP3   OH217362   4.879   1.957   9.577
 2180TIP3    H117363   4.939   2.002   9.518
 2180TIP3    H217364   4.922   1.961   9.662
 2181TIP3   OH217365   3.953   1.894   9.355
 2181TIP3    H117366   3.875   1.947   9.341
 2181TIP3    H217367   3.928   1.830   9.422
 2182TIP3   OH217368   4.219   1.868   9.299
 2182TIP3    H117369   4.126   1.872   9.322
 2182TIP3    H217370   4.226   1.917   9.217
 2183TIP3   OH217371   4.715   1.840   9.204
 2183TIP3    H117372   4.659   1.864   9.130
 2183TIP3    H217373   4.711   1.916   9.262
 2184TIP3   OH217374   4.910   1.670   9.300
 2184TIP3    H117375   4.844   1.732   9.268
 2184TIP3    H217376   4.994   1.711   9.278
 2185TIP3   OH217377   3.974   1.729   8.987
 2185TIP3    H117378   3.953   1.688   9.071
 2185TIP3    H217379   4.054   1.686   8.958
 2186TIP3   OH217380   4.196   1.608   8.884
 2186TIP3    H117381   4.198   1.514   8.900
 2186TIP3    H217382   4.278   1.641   8.920
 2187TIP3   OH217383   4.434   1.692   9.011
 2187TIP3    H117384   4.477   1.614   8.976
 2187TIP3    H217385   4.395   1.663   9.093
 2188TIP3   OH217386   4.737   0.169   9.033
 2188TIP3    H117387   4.698   0.152   9.119
 2188TIP3    H217388   4.663   0.173   8.973
 2189TIP3   OH217389   3.949   0.103   8.618
 2189TIP3    H117390   3.882   0.164   8.587
 2189TIP3    H217391   3.922   0.018   8.581
 2190TIP3   OH217392   3.807   0.112   8.300
 2190TIP3    H117393   3.898   0.138   8.282
 2190TIP3    H217394   3.781   0.166   8.375
 2191TIP3   OH217395   4.430   0.182   8.623
 2191TIP3    H117396   4.490   0.242   8.579
 2191TIP3    H217397   4.466   0.170   8.710
 2192TIP3   OH217398   4.915   0.097   8.818
 2192TIP3    H117399   4.994   0.144   8.844
 2192TIP3    H217400   4.858   0.101   8.894
 2193TIP3   OH217401   3.834   1.754   8.345
 2193TIP3    H117402   3.780   1.718   8.275
 2193TIP3    H217403   3.800   1.843   8.358
 2194TIP3   OH217404   4.070   0.178   8.280
 2194TIP3    H117405   4.115   0.096   8.260
 2194TIP3    H217406   4.139   0.240   8.302
 2195TIP3   OH217407   4.560   0.337   8.426
 2195TIP3    H117408   4.615   0.329   8.348
 2195TIP3    H217409   4.578   0.426   8.459
 2196TIP3   OH217410   4.637   1.839   8.159
 2196TIP3    H117411   4.732   1.833   8.149
 2196TIP3    H217412   4.603   1.762   8.114
 2197TIP3   OH217413   4.089   1.811   8.243
 2197TIP3    H117414   4.008   1.797   8.292
 2197TIP3    H217415   4.104   1.727   8.198
 2198TIP3   OH217416   5.035   0.012   9.808
 2198TIP3    H117417   4.944   5.175   9.806
 2198TIP3    H217418   5.049   0.055   9.724
 2199TIP3   OH217419   1.136   2.917   8.692
 2199TIP3    H117420   1.120   3.011   8.700
 2199TIP3    H217421   1.068   2.886   8.632
 2200TIP3   OH217422   1.000   2.841   9.055
 2200TIP3    H117423   1.016   2.795   9.137
 2200TIP3    H217424   0.948   2.779   9.003
 2201TIP3   OH217425   0.200   2.740   9.196
 2201TIP3    H117426   0.218   2.689   9.276
 2201TIP3    H217427   0.284   2.742   9.150
 2202TIP3   OH217428   1.379   3.180   8.850
 2202TIP3    H117429   1.324   3.110   8.885
 2202TIP3    H217430   1.382   3.246   8.919
 2203TIP3   OH217431   0.478   3.225   9.042
 2203TIP3    H117432   0.433   3.160   8.988
 2203TIP3    H217433   0.566   3.231   9.004
 2204TIP3   OH217434   5.181   2.601   8.562
 2204TIP3    H117435   5.183   2.690   8.596
 2204TIP3    H217436   5.139   2.609   8.476
 2205TIP3   OH217437   0.138   2.854   8.869
 2205TIP3    H117438   0.165   2.762   8.876
 2205TIP3    H217439   0.085   2.857   8.789
 2206TIP3   OH217440   1.113   3.655   8.907
 2206TIP3    H117441   1.139   3.598   8.834
 2206TIP3    H217442   1.108   3.596   8.982
 2207TIP3   OH217443   0.891   3.092   9.087
 2207TIP3    H117444   0.924   3.006   9.060
 2207TIP3    H217445   0.963   3.132   9.135
 2208TIP3   OH217446   1.740   2.253   9.151
 2208TIP3    H117447   1.749   2.323   9.216
 2208TIP3    H217448   1.809   2.270   9.088
 2209TIP3   OH217449   1.148   2.517   9.091
 2209TIP3    H117450   1.185   2.429   9.098
 2209TIP3    H217451   1.135   2.531   8.998
 2210TIP3   OH217452   0.505   2.324   8.811
 2210TIP3    H117453   0.512   2.410   8.770
 2210TIP3    H217454   0.446   2.275   8.754
 2211TIP3   OH217455   1.323   2.386   8.715
 2211TIP3    H117456   1.381   2.347   8.781
 2211TIP3    H217457   1.383   2.421   8.649
 2212TIP3   OH217458   0.202   2.584   8.878
 2212TIP3    H117459   0.254   2.525   8.933
 2212TIP3    H217460   0.211   2.548   8.790
 2213TIP3   OH217461   0.604   2.727   8.860
 2213TIP3    H117462   0.690   2.696   8.887
 2213TIP3    H217463   0.573   2.661   8.797
 2214TIP3   OH217464   1.756   2.436   9.358
 2214TIP3    H117465   1.677   2.488   9.349
 2214TIP3    H217466   1.773   2.435   9.452
 2215TIP3   OH217467   0.419   2.229   9.297
 2215TIP3    H117468   0.369   2.309   9.281
 2215TIP3    H217469   0.364   2.176   9.354
 2216TIP3   OH217470   1.069   3.178   8.646
 2216TIP3    H117471   1.079   3.186   8.551
 2216TIP3    H217472   1.028   3.259   8.674
 2217TIP3   OH217473   0.660   2.975   9.197
 2217TIP3    H117474   0.613   3.045   9.243
 2217TIP3    H217475   0.733   3.020   9.154
 2218TIP3   OH217476   1.515   2.306   8.896
 2218TIP3    H117477   1.517   2.382   8.954
 2218TIP3    H217478   1.604   2.302   8.859
 2219TIP3   OH217479   0.352   2.405   9.030
 2219TIP3    H117480   0.403   2.447   9.099
 2219TIP3    H217481   0.417   2.369   8.970
 2220TIP3   OH217482   0.478   3.191   9.313
 2220TIP3    H117483   0.475   3.217   9.221
 2220TIP3    H217484   0.433   3.107   9.316
 2221TIP3   OH217485   0.050   3.107   8.502
 2221TIP3    H117486   5.179   3.123   8.431
 2221TIP3    H217487   0.076   3.195   8.531
 2222TIP3   OH217488   1.378   3.374   9.048
 2222TIP3    H117489   1.289   3.398   9.070
 2222TIP3    H217490   1.424   3.457   9.039
 2223TIP3   OH217491   1.473   2.191   9.217
 2223TIP3    H117492   1.409   2.231   9.158
 2223TIP3    H217493   1.558   2.213   9.178
 2224TIP3   OH217494   0.737   1.913   9.010
 2224TIP3    H117495   0.710   1.821   9.006
 2224TIP3    H217496   0.661   1.958   9.047
 2225TIP3   OH217497   1.236   3.510   8.693
 2225TIP3    H117498   1.274   3.427   8.664
 2225TIP3    H217499   1.307   3.573   8.685
 2226TIP3   OH217500   1.406   3.301   8.605
 2226TIP3    H117501   1.415   3.228   8.544
 2226TIP3    H217502   1.401   3.261   8.691
 2227TIP3   OH217503   1.535   3.127   9.422
 2227TIP3    H117504   1.519   3.073   9.345
 2227TIP3    H217505   1.536   3.217   9.389
 2228TIP3   OH217506   0.984   2.856   8.463
 2228TIP3    H117507   0.930   2.932   8.441
 2228TIP3    H217508   1.051   2.854   8.394
 2229TIP3   OH217509   1.022   2.693   8.144
 2229TIP3    H117510   1.089   2.734   8.198
 2229TIP3    H217511   1.055   2.604   8.128
 2230TIP3   OH217512   1.640   2.822   9.237
 2230TIP3    H117513   1.573   2.888   9.219
 2230TIP3    H217514   1.711   2.844   9.176
 2231TIP3   OH217515   1.356   2.867   8.540
 2231TIP3    H117516   1.287   2.884   8.604
 2231TIP3    H217517   1.423   2.820   8.590
 2232TIP3   OH217518   1.280   2.635   9.492
 2232TIP3    H117519   1.287   2.718   9.539
 2232TIP3    H217520   1.213   2.650   9.426
 2233TIP3   OH217521   0.500   2.931   8.701
 2233TIP3    H117522   0.485   2.884   8.619
 2233TIP3    H217523   0.541   2.866   8.759
 2234TIP3   OH217524   0.734   3.274   8.947
 2234TIP3    H117525   0.761   3.273   8.855
 2234TIP3    H217526   0.795   3.215   8.991
 2235TIP3   OH217527   0.470   2.773   9.101
 2235TIP3    H117528   0.508   2.764   9.013
 2235TIP3    H217529   0.516   2.848   9.139
 2236TIP3   OH217530   1.126   3.440   9.137
 2236TIP3    H117531   1.102   3.489   9.215
 2236TIP3    H217532   1.113   3.348   9.162
 2237TIP3   OH217533   0.647   3.275   9.600
 2237TIP3    H117534   0.683   3.271   9.689
 2237TIP3    H217535   0.724   3.281   9.543
 2238TIP3   OH217536   1.224   2.786   8.314
 2238TIP3    H117537   1.272   2.815   8.391
 2238TIP3    H217538   1.270   2.826   8.240
 2239TIP3   OH217539   0.364   2.947   9.324
 2239TIP3    H117540   0.325   2.945   9.412
 2239TIP3    H217541   0.298   2.907   9.268
 2240TIP3   OH217542   0.973   3.437   8.643
 2240TIP3    H117543   1.059   3.477   8.658
 2240TIP3    H217544   0.952   3.461   8.553
 2241TIP3   OH217545   0.414   3.498   9.668
 2241TIP3    H117546   0.494   3.551   9.676
 2241TIP3    H217547   0.345   3.555   9.702
 2242TIP3   OH217548   1.615   1.956   8.291
 2242TIP3    H117549   1.529   1.997   8.302
 2242TIP3    H217550   1.670   2.025   8.255
 2243TIP3   OH217551   0.440   2.810   8.450
 2243TIP3    H117552   0.377   2.876   8.421
 2243TIP3    H217553   0.389   2.730   8.459
 2244TIP3   OH217554   1.665   3.391   8.182
 2244TIP3    H117555   1.688   3.483   8.172
 2244TIP3    H217556   1.750   3.345   8.183
 2245TIP3   OH217557   0.091   3.124   9.281
 2245TIP3    H117558   0.053   3.061   9.221
 2245TIP3    H217559   0.052   3.103   9.366
 2246TIP3   OH217560   0.153   3.245   9.003
 2246TIP3    H117561   0.212   3.180   8.966
 2246TIP3    H217562   0.136   3.215   9.092
 2247TIP3   OH217563   1.660   3.382   9.687
 2247TIP3    H117564   1.700   3.295   9.683
 2247TIP3    H217565   1.570   3.366   9.714
 2248TIP3   OH217566   0.932   3.440   9.710
 2248TIP3    H117567   0.921   3.529   9.744
 2248TIP3    H217568   0.872   3.387   9.761
 2249TIP3   OH217569   1.019   3.774   8.493
 2249TIP3    H117570   0.987   3.778   8.403
 2249TIP3    H217571   0.943   3.793   8.547
 2250TIP3   OH217572   0.272   3.574   8.740
 2250TIP3    H117573   0.326   3.546   8.814
 2250TIP3    H217574   0.184   3.543   8.761
 2251TIP3   OH217575   1.219   3.694   8.184
 2251TIP3    H117576   1.272   3.620   8.154
 2251TIP3    H217577   1.253   3.713   8.272
 2252TIP3   OH217578   1.284   3.782   8.442
 2252TIP3    H117579   1.192   3.776   8.466
 2252TIP3    H217580   1.331   3.736   8.511
 2253TIP3   OH217581   1.494   2.499   9.626
 2253TIP3    H117582   1.422   2.551   9.591
 2253TIP3    H217583   1.492   2.418   9.575
 2254TIP3   OH217584   0.223   3.288   9.468
 2254TIP3    H117585   0.167   3.241   9.529
 2254TIP3    H217586   0.200   3.253   9.382
 2255TIP3   OH217587   0.507   2.027   9.122
 2255TIP3    H117588   0.432   2.018   9.064
 2255TIP3    H217589   0.492   2.110   9.168
 2256TIP3   OH217590   1.035   2.021   9.443
 2256TIP3    H117591   1.077   1.948   9.489
 2256TIP3    H217592   0.946   1.990   9.425
 2257TIP3   OH217593   1.211   2.359   9.569
 2257TIP3    H117594   1.167   2.337   9.651
 2257TIP3    H217595   1.218   2.455   9.571
 2258TIP3   OH217596   1.352   2.915   8.111
 2258TIP3    H117597   1.320   2.934   8.023
 2258TIP3    H217598   1.427   2.973   8.122
 2259TIP3   OH217599   0.892   2.306   8.167
 2259TIP3    H117600   0.871   2.241   8.234
 2259TIP3    H217601   0.809   2.322   8.122
 2260TIP3   OH217602   0.464   2.545   9.250
 2260TIP3    H117603   0.407   2.565   9.324
 2260TIP3    H217604   0.473   2.628   9.203
 2261TIP3   OH217605   0.493   2.559   8.670
 2261TIP3    H117606   0.398   2.547   8.660
 2261TIP3    H217607   0.528   2.547   8.582
 2262TIP3   OH217608   1.011   2.602   8.570
 2262TIP3    H117609   0.991   2.690   8.539
 2262TIP3    H217610   1.086   2.575   8.517
 2263TIP3   OH217611   1.123   2.546   8.820
 2263TIP3    H117612   1.075   2.578   8.744
 2263TIP3    H217613   1.185   2.482   8.785
 2264TIP3   OH217614   0.257   2.602   9.439
 2264TIP3    H117615   0.207   2.656   9.500
 2264TIP3    H217616   0.237   2.512   9.464
 2265TIP3   OH217617   0.613   2.330   8.124
 2265TIP3    H117618   0.563   2.293   8.196
 2265TIP3    H217619   0.587   2.422   8.122
 2266TIP3   OH217620   5.127   2.213   8.849
 2266TIP3    H117621   5.185   2.222   8.924
 2266TIP3    H217622   5.067   2.142   8.873
 2267TIP3   OH217623   0.008   2.356   8.337
 2267TIP3    H117624   0.040   2.436   8.295
 2267TIP3    H217625   5.110   2.345   8.303
 2268TIP3   OH217626   1.023   2.667   9.280
 2268TIP3    H117627   1.072   2.618   9.215
 2268TIP3    H217628   0.980   2.601   9.334
 2269TIP3   OH217629   0.775   2.273   8.752
 2269TIP3    H117630   0.685   2.282   8.785
 2269TIP3    H217631   0.823   2.232   8.824
 2270TIP3   OH217632   0.235   2.483   8.625
 2270TIP3    H117633   0.149   2.506   8.588
 2270TIP3    H217634   0.244   2.389   8.609
 2271TIP3   OH217635   0.565   2.497   8.412
 2271TIP3    H117636   0.658   2.486   8.435
 2271TIP3    H217637   0.567   2.541   8.327
 2272TIP3   OH217638   1.224   2.249   9.100
 2272TIP3    H117639   1.173   2.249   9.181
 2272TIP3    H217640   1.194   2.172   9.052
 2273TIP3   OH217641   0.550   2.600   8.155
 2273TIP3    H117642   0.479   2.650   8.116
 2273TIP3    H217643   0.630   2.644   8.125
 2274TIP3   OH217644   1.566   3.823   9.739
 2274TIP3    H117645   1.591   3.826   9.646
 2274TIP3    H217646   1.639   3.777   9.781
 2275TIP3   OH217647   0.255   2.939   9.570
 2275TIP3    H117648   0.215   2.857   9.600
 2275TIP3    H217649   0.183   3.002   9.572
 2276TIP3   OH217650   0.844   2.617   8.960
 2276TIP3    H117651   0.913   2.563   8.922
 2276TIP3    H217652   0.810   2.566   9.034
 2277TIP3   OH217653   0.335   2.219   8.614
 2277TIP3    H117654   0.302   2.134   8.643
 2277TIP3    H217655   0.373   2.201   8.528
 2278TIP3   OH217656   0.734   2.485   9.186
 2278TIP3    H117657   0.647   2.513   9.212
 2278TIP3    H217658   0.788   2.498   9.265
 2279TIP3   OH217659   0.814   3.080   8.391
 2279TIP3    H117660   0.752   3.023   8.345
 2279TIP3    H217661   0.768   3.105   8.472
 2280TIP3   OH217662   1.473   3.026   9.170
 2280TIP3    H117663   1.538   3.085   9.131
 2280TIP3    H217664   1.406   3.016   9.103
 2281TIP3   OH217665   1.136   2.442   8.158
 2281TIP3    H117666   1.058   2.387   8.148
 2281TIP3    H217667   1.157   2.437   8.251
 2282TIP3   OH217668   0.891   3.330   9.464
 2282TIP3    H117669   0.973   3.285   9.442
 2282TIP3    H217670   0.910   3.378   9.544
 2283TIP3   OH217671   1.229   2.521   8.415
 2283TIP3    H117672   1.320   2.501   8.436
 2283TIP3    H217673   1.232   2.605   8.369
 2284TIP3   OH217674   0.330   3.051   8.888
 2284TIP3    H117675   0.389   3.024   8.818
 2284TIP3    H217676   0.261   2.983   8.889
 2285TIP3   OH217677   1.046   3.227   8.373
 2285TIP3    H117678   1.011   3.316   8.373
 2285TIP3    H217679   0.969   3.171   8.369
 2286TIP3   OH217680   5.147   2.849   9.420
 2286TIP3    H117681   0.007   2.825   9.497
 2286TIP3    H217682   5.093   2.772   9.402
 2287TIP3   OH217683   0.701   2.918   9.820
 2287TIP3    H117684   0.663   2.875   9.743
 2287TIP3    H217685   0.743   2.997   9.786
 2288TIP3   OH217686   1.170   3.339   9.588
 2288TIP3    H117687   1.105   3.380   9.644
 2288TIP3    H217688   1.252   3.348   9.636
 2289TIP3   OH217689   1.672   2.585   8.306
 2289TIP3    H117690   1.597   2.556   8.255
 2289TIP3    H217691   1.685   2.676   8.279
 2290TIP3   OH217692   1.744   3.119   9.603
 2290TIP3    H117693   1.658   3.121   9.562
 2290TIP3    H217694   1.805   3.116   9.529
 2291TIP3   OH217695   1.578   3.466   8.449
 2291TIP3    H117696   1.519   3.414   8.504
 2291TIP3    H217697   1.582   3.419   8.366
 2292TIP3   OH217698   1.258   2.961   8.997
 2292TIP3    H117699   1.166   2.934   9.002
 2292TIP3    H217700   1.302   2.887   8.954
 2293TIP3   OH217701   0.540   3.358   8.718
 2293TIP3    H117702   0.544   3.438   8.666
 2293TIP3    H217703   0.501   3.386   8.801
 2294TIP3   OH217704   0.057   2.872   8.216
 2294TIP3    H117705   0.134   2.907   8.260
 2294TIP3    H217706   5.188   2.946   8.211
 2295TIP3   OH217707   0.651   3.140   8.598
 2295TIP3    H117708   0.615   3.220   8.636
 2295TIP3    H217709   0.599   3.070   8.638
 2296TIP3   OH217710   0.787   3.519   9.287
 2296TIP3    H117711   0.848   3.594   9.286
 2296TIP3    H217712   0.830   3.454   9.342
 2297TIP3   OH217713   0.512   3.603   8.596
 2297TIP3    H117714   0.423   3.611   8.630
 2297TIP3    H217715   0.561   3.673   8.640
 2298TIP3   OH217716   1.137   3.159   9.205
 2298TIP3    H117717   1.174   3.141   9.292
 2298TIP3    H217718   1.191   3.107   9.145
 2299TIP3   OH217719   1.301   3.250   8.269
 2299TIP3    H117720   1.349   3.191   8.328
 2299TIP3    H217721   1.210   3.242   8.297
 2300TIP3   OH217722   1.337   3.555   9.400
 2300TIP3    H117723   1.243   3.556   9.386
 2300TIP3    H217724   1.367   3.642   9.372
 2301TIP3   OH217725   1.750   3.657   8.190
 2301TIP3    H117726   1.825   3.717   8.197
 2301TIP3    H217727   1.673   3.713   8.192
 2302TIP3   OH217728   0.183   2.354   9.530
 2302TIP3    H117729   0.092   2.365   9.501
 2302TIP3    H217730   0.178   2.285   9.596
 2303TIP3   OH217731   1.466   3.090   8.428
 2303TIP3    H117732   1.420   3.014   8.462
 2303TIP3    H217733   1.558   3.075   8.449
 2304TIP3   OH217734   0.184   3.542   9.317
 2304TIP3    H117735   0.184   3.475   9.385
 2304TIP3    H217736   0.184   3.625   9.366
 2305TIP3   OH217737   0.689   3.293   8.231
 2305TIP3    H117738   0.736   3.240   8.295
 2305TIP3    H217739   0.665   3.373   8.278
 2306TIP3   OH217740   0.257   2.996   8.363
 2306TIP3    H117741   0.194   3.030   8.426
 2306TIP3    H217742   0.288   3.073   8.316
 2307TIP3   OH217743   1.094   2.263   9.342
 2307TIP3    H117744   1.143   2.299   9.417
 2307TIP3    H217745   1.072   2.173   9.369
 2308TIP3   OH217746   1.129   2.277   8.547
 2308TIP3    H117747   1.145   2.349   8.486
 2308TIP3    H217748   1.192   2.292   8.618
 2309TIP3   OH217749   0.913   3.471   8.371
 2309TIP3    H117750   0.822   3.496   8.385
 2309TIP3    H217751   0.928   3.483   8.277
 2310TIP3   OH217752   0.805   2.423   8.523
 2310TIP3    H117753   0.877   2.485   8.536
 2310TIP3    H217754   0.797   2.378   8.607
 2311TIP3   OH217755   0.905   2.454   9.409
 2311TIP3    H117756   0.879   2.424   9.496
 2311TIP3    H217757   0.960   2.384   9.374
 2312TIP3   OH217758   0.928   2.096   8.594
 2312TIP3    H117759   0.881   2.151   8.657
 2312TIP3    H217760   1.008   2.144   8.575
 2313TIP3   OH217761   0.641   3.530   8.365
 2313TIP3    H117762   0.657   3.616   8.328
 2313TIP3    H217763   0.591   3.547   8.445
 2314TIP3   OH217764   0.492   2.235   8.371
 2314TIP3    H117765   0.499   2.327   8.397
 2314TIP3    H217766   0.579   2.200   8.386
 2315TIP3   OH217767   1.455   2.263   9.484
 2315TIP3    H117768   1.363   2.286   9.497
 2315TIP3    H217769   1.461   2.239   9.392
 2316TIP3   OH217770   1.355   2.705   8.904
 2316TIP3    H117771   1.271   2.662   8.887
 2316TIP3    H217772   1.401   2.645   8.963
 2317TIP3   OH217773   0.325   3.230   8.229
 2317TIP3    H117774   0.378   3.297   8.273
 2317TIP3    H217775   0.385   3.188   8.168
 2318TIP3   OH217776   0.025   2.604   8.191
 2318TIP3    H117777   0.042   2.697   8.203
 2318TIP3    H217778   0.055   2.585   8.102
 2319TIP3   OH217779   1.509   3.614   9.060
 2319TIP3    H117780   1.515   3.687   8.998
 2319TIP3    H217781   1.595   3.611   9.102
 2320TIP3   OH217782   0.275   2.001   8.981
 2320TIP3    H117783   0.267   1.990   8.886
 2320TIP3    H217784   0.242   1.919   9.018
 2321TIP3   OH217785   0.133   3.365   8.558
 2321TIP3    H117786   0.092   3.449   8.540
 2321TIP3    H217787   0.211   3.386   8.609
 2322TIP3   OH217788   0.012   3.789   9.731
 2322TIP3    H117789   0.076   3.722   9.757
 2322TIP3    H217790   5.139   3.789   9.802
 2323TIP3   OH217791   0.879   3.452   8.099
 2323TIP3    H117792   0.809   3.391   8.120
 2323TIP3    H217793   0.883   3.453   8.003
 2324TIP3   OH217794   1.393   3.478   8.150
 2324TIP3    H117795   1.348   3.402   8.186
 2324TIP3    H217796   1.484   3.451   8.142
 2325TIP3   OH217797   0.261   3.062   9.815
 2325TIP3    H117798   0.169   3.038   9.814
 2325TIP3    H217799   0.296   3.028   9.733
 2326TIP3   OH217800   0.534   3.105   8.105
 2326TIP3    H117801   0.564   3.030   8.157
 2326TIP3    H217802   0.595   3.176   8.128
 2327TIP3   OH217803   1.260   3.118   9.455
 2327TIP3    H117804   1.354   3.131   9.456
 2327TIP3    H217805   1.225   3.193   9.504
 2328TIP3   OH217806   0.087   2.733   9.639
 2328TIP3    H117807   0.042   2.654   9.669
 2328TIP3    H217808   0.054   2.803   9.695
 2329TIP3   OH217809   0.634   2.910   8.275
 2329TIP3    H117810   0.578   2.864   8.337
 2329TIP3    H217811   0.676   2.841   8.224
 2330TIP3   OH217812   0.597   2.804   9.588
 2330TIP3    H117813   0.517   2.838   9.547
 2330TIP3    H217814   0.656   2.786   9.515
 2331TIP3   OH217815   0.764   2.752   8.086
 2331TIP3    H117816   0.777   2.802   8.005
 2331TIP3    H217817   0.852   2.725   8.112
 2332TIP3   OH217818   1.181   2.973   9.845
 2332TIP3    H117819   1.211   3.060   9.870
 2332TIP3    H217820   1.226   2.954   9.763
 2333TIP3   OH217821   1.563   3.090   8.163
 2333TIP3    H117822   1.583   3.179   8.134
 2333TIP3    H217823   1.527   3.100   8.251
 2334TIP3   OH217824   0.694   2.232   9.312
 2334TIP3    H117825   0.723   2.302   9.255
 2334TIP3    H217826   0.598   2.238   9.312
 2335TIP3   OH217827   0.752   2.770   9.361
 2335TIP3    H117828   0.842   2.756   9.334
 2335TIP3    H217829   0.719   2.836   9.299
 2336TIP3   OH217830   1.304   2.885   9.605
 2336TIP3    H117831   1.287   2.961   9.549
 2336TIP3    H217832   1.398   2.891   9.624
 2337TIP3   OH217833   0.760   1.979   9.386
 2337TIP3    H117834   0.751   2.071   9.360
 2337TIP3    H217835   0.670   1.946   9.390
 2338TIP3   OH217836   0.715   3.784   8.292
 2338TIP3    H117837   0.803   3.787   8.254
 2338TIP3    H217838   0.693   3.876   8.310
 2339TIP3   OH217839   0.056   3.301   8.199
 2339TIP3    H117840   0.055   3.396   8.187
 2339TIP3    H217841   0.148   3.279   8.207
 2340TIP3   OH217842   5.139   3.846   8.659
 2340TIP3    H117843   5.127   3.900   8.580
 2340TIP3    H217844   5.151   3.757   8.625
 2341TIP3   OH217845   0.051   3.464   8.870
 2341TIP3    H117846   0.077   3.379   8.907
 2341TIP3    H217847   0.069   3.527   8.940
 2342TIP3   OH217848   1.744   3.619   9.201
 2342TIP3    H117849   1.728   3.583   9.289
 2342TIP3    H217850   1.783   3.705   9.217
 2343TIP3   OH217851   1.681   3.514   9.448
 2343TIP3    H117852   1.622   3.456   9.399
 2343TIP3    H217853   1.682   3.477   9.536
 2344TIP3   OH217854   1.727   3.024   8.467
 2344TIP3    H117855   1.800   3.086   8.472
 2344TIP3    H217856   1.750   2.956   8.530
 2345TIP3   OH217857   1.782   2.817   8.635
 2345TIP3    H117858   1.699   2.786   8.671
 2345TIP3    H217859   1.836   2.836   8.712
 2346TIP3   OH217860   1.730   3.140   9.134
 2346TIP3    H117861   1.785   3.076   9.089
 2346TIP3    H217862   1.769   3.225   9.110
 2347TIP3   OH217863   1.501   3.366   9.301
 2347TIP3    H117864   1.438   3.426   9.341
 2347TIP3    H217865   1.470   3.356   9.211
 2348TIP3   OH217866   1.717   2.858   8.247
 2348TIP3    H117867   1.670   2.913   8.184
 2348TIP3    H217868   1.719   2.910   8.327
 2349TIP3   OH217869   1.439   2.486   8.188
 2349TIP3    H117870   1.351   2.496   8.154
 2349TIP3    H217871   1.467   2.400   8.157
 2350TIP3   OH217872   1.531   2.713   8.691
 2350TIP3    H117873   1.522   2.626   8.653
 2350TIP3    H217874   1.477   2.711   8.770
 2351TIP3   OH217875   0.009   2.926   9.106
 2351TIP3    H117876   0.040   2.914   9.016
 2351TIP3    H217877   0.058   2.861   9.157
 2352TIP3   OH217878   1.574   2.879   9.655
 2352TIP3    H117879   1.631   2.803   9.663
 2352TIP3    H217880   1.631   2.954   9.669
 2353TIP3   OH217881   1.728   2.641   9.632
 2353TIP3    H117882   1.644   2.596   9.640
 2353TIP3    H217883   1.794   2.573   9.647
 2354TIP3   OH217884   1.510   2.240   8.092
 2354TIP3    H117885   1.598   2.213   8.119
 2354TIP3    H217886   1.491   2.186   8.015
 2355TIP3   OH217887   1.499   2.483   8.517
 2355TIP3    H117888   1.528   2.392   8.510
 2355TIP3    H217889   1.554   2.530   8.453
 2356TIP3   OH217890   1.530   2.535   9.047
 2356TIP3    H117891   1.620   2.562   9.029
 2356TIP3    H217892   1.522   2.542   9.142
 2357TIP3   OH217893   1.524   2.589   9.322
 2357TIP3    H117894   1.447   2.609   9.374
 2357TIP3    H217895   1.561   2.674   9.299
 2358TIP3   OH217896   5.154   2.497   9.725
 2358TIP3    H117897   0.037   2.496   9.786
 2358TIP3    H217898   5.116   2.409   9.733
 2359TIP3   OH217899   1.566   2.219   8.495
 2359TIP3    H117900   1.578   2.157   8.567
 2359TIP3    H217901   1.501   2.178   8.438
 2360TIP3   OH217902   0.134   2.228   9.047
 2360TIP3    H117903   0.185   2.149   9.027
 2360TIP3    H217904   0.199   2.299   9.042
 2361TIP3   OH217905   5.180   2.605   9.050
 2361TIP3    H117906   0.052   2.590   8.980
 2361TIP3    H217907   0.038   2.648   9.119
 2362TIP3   OH217908   1.692   2.175   9.594
 2362TIP3    H117909   1.613   2.211   9.554
 2362TIP3    H217910   1.695   2.084   9.563
 2363TIP3   OH217911   1.762   2.154   8.161
 2363TIP3    H117912   1.826   2.091   8.128
 2363TIP3    H217913   1.814   2.228   8.191
 2364TIP3   OH217914   5.154   2.114   8.465
 2364TIP3    H117915   5.059   2.128   8.471
 2364TIP3    H217916   5.188   2.197   8.433
 2365TIP3   OH217917   1.433   3.699   8.666
 2365TIP3    H117918   1.507   3.699   8.606
 2365TIP3    H217919   1.471   3.722   8.751
 2366TIP3   OH217920   0.055   2.166   9.307
 2366TIP3    H117921   0.003   2.239   9.341
 2366TIP3    H217922   0.067   2.187   9.215
 2367TIP3   OH217923   0.239   3.340   9.828
 2367TIP3    H117924   0.309   3.366   9.769
 2367TIP3    H217925   0.241   3.244   9.827
 2368TIP3   OH217926   0.531   3.519   9.376
 2368TIP3    H117927   0.499   3.609   9.362
 2368TIP3    H217928   0.620   3.520   9.342
 2369TIP3   OH217929   0.932   3.719   9.770
 2369TIP3    H117930   0.957   3.795   9.822
 2369TIP3    H217931   1.007   3.706   9.710
 2370TIP3   OH217932   1.160   3.682   9.614
 2370TIP3    H117933   1.225   3.612   9.605
 2370TIP3    H217934   1.205   3.748   9.667
 2371TIP3   OH217935   1.606   1.946   9.454
 2371TIP3    H117936   1.527   1.938   9.399
 2371TIP3    H217937   1.634   1.855   9.468
 2372TIP3   OH217938   0.189   3.808   9.407
 2372TIP3    H117939   0.110   3.835   9.361
 2372TIP3    H217940   0.190   3.861   9.487
 2373TIP3   OH217941   0.455   3.779   9.339
 2373TIP3    H117942   0.362   3.788   9.360
 2373TIP3    H217943   0.464   3.824   9.255
 2374TIP3   OH217944   0.907   3.775   9.227
 2374TIP3    H117945   0.856   3.790   9.147
 2374TIP3    H217946   0.912   3.861   9.269
 2375TIP3   OH217947   1.070   3.603   9.360
 2375TIP3    H117948   1.027   3.674   9.313
 2375TIP3    H217949   1.079   3.635   9.450
 2376TIP3   OH217950   1.434   3.779   9.274
 2376TIP3    H117951   1.452   3.868   9.243
 2376TIP3    H217952   1.443   3.724   9.197
 2377TIP3   OH217953   0.195   3.618   9.055
 2377TIP3    H117954   0.179   3.594   9.146
 2377TIP3    H217955   0.272   3.568   9.029
 2378TIP3   OH217956   0.418   3.480   8.956
 2378TIP3    H117957   0.411   3.394   8.996
 2378TIP3    H217958   0.501   3.516   8.988
 2379TIP3   OH217959   0.674   3.533   9.040
 2379TIP3    H117960   0.703   3.453   8.996
 2379TIP3    H217961   0.710   3.527   9.128
 2380TIP3   OH217962   0.910   2.112   8.923
 2380TIP3    H117963   0.858   2.044   8.967
 2380TIP3    H217964   1.001   2.084   8.934
 2381TIP3   OH217965   1.438   2.034   8.882
 2381TIP3    H117966   1.508   2.033   8.817
 2381TIP3    H217967   1.437   2.123   8.916
 2382TIP3   OH217968   1.641   2.065   8.710
 2382TIP3    H117969   1.704   1.994   8.699
 2382TIP3    H217970   1.694   2.140   8.738
 2383TIP3   OH217971   0.242   1.972   8.705
 2383TIP3    H117972   0.147   1.979   8.698
 2383TIP3    H217973   0.260   1.880   8.686
 2384TIP3   OH217974   0.131   1.950   8.318
 2384TIP3    H117975   0.193   2.007   8.272
 2384TIP3    H217976   0.071   2.009   8.363
 2385TIP3   OH217977   0.744   1.913   8.725
 2385TIP3    H117978   0.820   1.960   8.689
 2385TIP3    H217979   0.754   1.921   8.820
 2386TIP3   OH217980   1.167   2.010   8.963
 2386TIP3    H117981   1.257   2.012   8.929
 2386TIP3    H217982   1.140   1.919   8.954
 2387TIP3   OH217983   1.379   2.085   8.345
 2387TIP3    H117984   1.327   2.113   8.269
 2387TIP3    H217985   1.326   2.016   8.385
 2388TIP3   OH217986   0.024   3.620   8.511
 2388TIP3    H117987   5.125   3.601   8.487
 2388TIP3    H217988   0.058   3.671   8.438
 2389TIP3   OH217989   0.330   2.093   8.199
 2389TIP3    H117990   0.376   2.104   8.115
 2389TIP3    H217991   0.383   2.141   8.262
 2390TIP3   OH217992   0.763   2.182   8.392
 2390TIP3    H117993   0.814   2.130   8.455
 2390TIP3    H217994   0.778   2.273   8.419
 2391TIP3   OH217995   0.977   3.823   8.217
 2391TIP3    H117996   1.051   3.767   8.195
 2391TIP3    H217997   0.993   3.904   8.169
 2392TIP3   OH217998   1.633   3.728   8.481
 2392TIP3    H117999   1.620   3.635   8.460
 2392TIP3    H218000   1.622   3.773   8.397
 2393TIP3   OH218001   0.193   2.118   9.713
 2393TIP3    H118002   0.142   2.045   9.750
 2393TIP3    H218003   0.212   2.174   9.788
 2394TIP3   OH218004   0.470   2.106   9.779
 2394TIP3    H118005   0.399   2.069   9.726
 2394TIP3    H218006   0.425   2.151   9.851
 2395TIP3   OH218007   0.073   3.577   8.157
 2395TIP3    H118008   0.075   3.655   8.212
 2395TIP3    H218009   0.136   3.596   8.087
 2396TIP3   OH218010   3.142   3.042   8.642
 2396TIP3    H118011   3.174   3.067   8.729
 2396TIP3    H218012   3.049   3.067   8.643
 2397TIP3   OH218013   2.862   2.829   9.053
 2397TIP3    H118014   2.865   2.785   9.138
 2397TIP3    H218015   2.819   2.766   8.995
 2398TIP3   OH218016   2.110   2.818   9.159
 2398TIP3    H118017   2.122   2.748   9.224
 2398TIP3    H218018   2.199   2.843   9.133
 2399TIP3   OH218019   3.230   3.141   8.887
 2399TIP3    H118020   3.187   3.078   8.945
 2399TIP3    H218021   3.271   3.204   8.946
 2400TIP3   OH218022   2.298   3.255   8.919
 2400TIP3    H118023   2.254   3.172   8.905
 2400TIP3    H218024   2.379   3.232   8.964
 2401TIP3   OH218025   1.869   2.583   8.514
 2401TIP3    H118026   1.848   2.667   8.554
 2401TIP3    H218027   1.807   2.574   8.441
 2402TIP3   OH218028   1.970   2.863   8.833
 2402TIP3    H118029   2.002   2.773   8.842
 2402TIP3    H218030   2.049   2.917   8.838
 2403TIP3   OH218031   2.910   3.731   8.904
 2403TIP3    H118032   2.964   3.678   8.845
 2403TIP3    H218033   2.856   3.666   8.951
 2404TIP3   OH218034   2.768   3.087   9.108
 2404TIP3    H118035   2.792   3.003   9.069
 2404TIP3    H218036   2.845   3.113   9.158
 2405TIP3   OH218037   3.666   2.247   9.129
 2405TIP3    H118038   3.675   2.341   9.141
 2405TIP3    H218039   3.733   2.225   9.064
 2406TIP3   OH218040   2.998   2.517   9.089
 2406TIP3    H118041   3.048   2.437   9.102
 2406TIP3    H218042   2.999   2.531   8.995
 2407TIP3   OH218043   2.378   2.326   8.787
 2407TIP3    H118044   2.385   2.405   8.733
 2407TIP3    H218045   2.321   2.268   8.737
 2408TIP3   OH218046   3.198   2.421   8.721
 2408TIP3    H118047   3.238   2.413   8.808
 2408TIP3    H218048   3.271   2.443   8.663
 2409TIP3   OH218049   2.034   2.596   8.861
 2409TIP3    H118050   2.091   2.542   8.917
 2409TIP3    H218051   2.050   2.564   8.773
 2410TIP3   OH218052   2.497   2.715   8.842
 2410TIP3    H118053   2.576   2.669   8.870
 2410TIP3    H218054   2.453   2.654   8.783
 2411TIP3   OH218055   3.638   2.407   9.401
 2411TIP3    H118056   3.589   2.490   9.392
 2411TIP3    H218057   3.570   2.341   9.414
 2412TIP3   OH218058   2.229   2.259   9.216
 2412TIP3    H118059   2.209   2.312   9.138
 2412TIP3    H218060   2.161   2.282   9.279
 2413TIP3   OH218061   2.884   3.130   8.666
 2413TIP3    H118062   2.791   3.108   8.662
 2413TIP3    H218063   2.886   3.225   8.678
 2414TIP3   OH218064   2.542   2.990   9.240
 2414TIP3    H118065   2.496   3.056   9.293
 2414TIP3    H218066   2.613   3.038   9.198
 2415TIP3   OH218067   3.288   2.439   8.974
 2415TIP3    H118068   3.252   2.371   9.031
 2415TIP3    H218069   3.366   2.471   9.020
 2416TIP3   OH218070   2.210   2.417   8.986
 2416TIP3    H118071   2.267   2.477   9.034
 2416TIP3    H218072   2.268   2.376   8.921
 2417TIP3   OH218073   2.411   3.186   9.397
 2417TIP3    H118074   2.404   3.279   9.375
 2417TIP3    H218075   2.320   3.158   9.411
 2418TIP3   OH218076   1.936   3.203   8.456
 2418TIP3    H118077   1.921   3.249   8.373
 2418TIP3    H218078   1.949   3.273   8.520
 2419TIP3   OH218079   3.326   3.338   9.055
 2419TIP3    H118080   3.250   3.348   9.112
 2419TIP3    H218081   3.349   3.428   9.030
 2420TIP3   OH218082   3.416   2.156   9.221
 2420TIP3    H118083   3.343   2.195   9.173
 2420TIP3    H218084   3.494   2.185   9.174
 2421TIP3   OH218085   2.552   1.913   8.961
 2421TIP3    H118086   2.549   1.822   8.992
 2421TIP3    H218087   2.478   1.955   9.005
 2422TIP3   OH218088   3.076   3.584   8.744
 2422TIP3    H118089   3.120   3.499   8.740
 2422TIP3    H218090   3.140   3.646   8.708
 2423TIP3   OH218091   3.211   3.354   8.710
 2423TIP3    H118092   3.248   3.321   8.628
 2423TIP3    H218093   3.217   3.281   8.771
 2424TIP3   OH218094   3.418   3.111   9.431
 2424TIP3    H118095   3.419   3.070   9.345
 2424TIP3    H218096   3.409   3.204   9.414
 2425TIP3   OH218097   2.839   2.848   8.404
 2425TIP3    H118098   2.799   2.934   8.398
 2425TIP3    H218099   2.914   2.852   8.345
 2426TIP3   OH218100   2.906   2.572   8.237
 2426TIP3    H118101   2.963   2.649   8.243
 2426TIP3    H218102   2.951   2.514   8.176
 2427TIP3   OH218103   3.590   2.848   9.285
 2427TIP3    H118104   3.517   2.900   9.254
 2427TIP3    H218105   3.649   2.843   9.210
 2428TIP3   OH218106   3.192   2.797   8.529
 2428TIP3    H118107   3.170   2.884   8.563
 2428TIP3    H218108   3.277   2.777   8.569
 2429TIP3   OH218109   3.219   2.580   9.525
 2429TIP3    H118110   3.211   2.664   9.570
 2429TIP3    H218111   3.129   2.557   9.501
 2430TIP3   OH218112   2.403   2.922   8.679
 2430TIP3    H118113   2.358   2.882   8.604
 2430TIP3    H218114   2.442   2.848   8.725
 2431TIP3   OH218115   2.574   3.261   8.998
 2431TIP3    H118116   2.593   3.278   8.906
 2431TIP3    H218117   2.646   3.206   9.028
 2432TIP3   OH218118   2.377   2.855   9.058
 2432TIP3    H118119   2.434   2.822   8.988
 2432TIP3    H218120   2.437   2.899   9.118
 2433TIP3   OH218121   3.124   3.358   9.234
 2433TIP3    H118122   3.062   3.431   9.227
 2433TIP3    H218123   3.068   3.280   9.238
 2434TIP3   OH218124   3.079   2.790   8.273
 2434TIP3    H118125   3.127   2.786   8.356
 2434TIP3    H218126   3.134   2.844   8.216
 2435TIP3   OH218127   2.074   2.759   9.539
 2435TIP3    H118128   2.061   2.767   9.634
 2435TIP3    H218129   1.992   2.790   9.501
 2436TIP3   OH218130   2.867   3.404   8.682
 2436TIP3    H118131   2.933   3.471   8.700
 2436TIP3    H218132   2.837   3.423   8.594
 2437TIP3   OH218133   3.463   1.856   8.202
 2437TIP3    H118134   3.382   1.814   8.171
 2437TIP3    H218135   3.450   1.949   8.184
 2438TIP3   OH218136   2.263   2.814   8.460
 2438TIP3    H118137   2.212   2.887   8.426
 2438TIP3    H218138   2.206   2.738   8.450
 2439TIP3   OH218139   3.573   3.354   8.174
 2439TIP3    H118140   3.588   3.448   8.164
 2439TIP3    H218141   3.661   3.315   8.171
 2440TIP3   OH218142   1.885   3.079   9.366
 2440TIP3    H118143   1.823   3.102   9.296
 2440TIP3    H218144   1.870   2.986   9.382
 2441TIP3   OH218145   1.854   3.391   9.095
 2441TIP3    H118146   1.936   3.403   9.142
 2441TIP3    H218147   1.798   3.463   9.125
 2442TIP3   OH218148   3.487   3.397   9.722
 2442TIP3    H118149   3.558   3.344   9.685
 2442TIP3    H218150   3.419   3.333   9.744
 2443TIP3   OH218151   2.882   3.734   8.440
 2443TIP3    H118152   2.849   3.738   8.350
 2443TIP3    H218153   2.830   3.799   8.487
 2444TIP3   OH218154   2.167   3.600   8.690
 2444TIP3    H118155   2.191   3.577   8.780
 2444TIP3    H218156   2.107   3.531   8.663
 2445TIP3   OH218157   3.099   3.621   8.172
 2445TIP3    H118158   3.165   3.558   8.144
 2445TIP3    H218159   3.136   3.662   8.251
 2446TIP3   OH218160   3.156   3.749   8.413
 2446TIP3    H118161   3.063   3.739   8.432
 2446TIP3    H218162   3.200   3.733   8.497
 2447TIP3   OH218163   2.142   3.129   9.462
 2447TIP3    H118164   2.113   3.092   9.546
 2447TIP3    H218165   2.066   3.118   9.405
 2448TIP3   OH218166   2.319   2.033   9.073
 2448TIP3    H118167   2.245   2.031   9.012
 2448TIP3    H218168   2.301   2.108   9.129
 2449TIP3   OH218169   2.786   2.096   9.422
 2449TIP3    H118170   2.774   2.091   9.517
 2449TIP3    H218171   2.702   2.069   9.386
 2450TIP3   OH218172   3.295   2.333   9.632
 2450TIP3    H118173   3.365   2.357   9.693
 2450TIP3    H218174   3.264   2.417   9.598
 2451TIP3   OH218175   3.255   2.967   8.159
 2451TIP3    H118176   3.212   3.051   8.172
 2451TIP3    H218177   3.348   2.986   8.167
 2452TIP3   OH218178   2.832   2.272   8.299
 2452TIP3    H118179   2.819   2.177   8.300
 2452TIP3    H218180   2.750   2.307   8.265
 2453TIP3   OH218181   2.361   2.589   9.138
 2453TIP3    H118182   2.304   2.589   9.216
 2453TIP3    H218183   2.362   2.680   9.109
 2454TIP3   OH218184   2.374   2.562   8.644
 2454TIP3    H118185   2.279   2.554   8.638
 2454TIP3    H218186   2.405   2.555   8.553
 2455TIP3   OH218187   2.958   2.652   8.550
 2455TIP3    H118188   2.901   2.717   8.508
 2455TIP3    H218189   3.046   2.690   8.545
 2456TIP3   OH218190   2.979   2.559   8.811
 2456TIP3    H118191   2.959   2.607   8.731
 2456TIP3    H218192   3.052   2.501   8.788
 2457TIP3   OH218193   2.174   2.611   9.335
 2457TIP3    H118194   2.154   2.662   9.413
 2457TIP3    H218195   2.128   2.527   9.348
 2458TIP3   OH218196   2.579   2.344   8.207
 2458TIP3    H118197   2.528   2.272   8.243
 2458TIP3    H218198   2.552   2.349   8.115
 2459TIP3   OH218199   1.773   2.293   8.777
 2459TIP3    H118200   1.841   2.299   8.844
 2459TIP3    H218201   1.820   2.304   8.694
 2460TIP3   OH218202   1.885   2.385   8.261
 2460TIP3    H118203   1.969   2.429   8.247
 2460TIP3    H218204   1.821   2.455   8.262
 2461TIP3   OH218205   2.874   2.669   9.282
 2461TIP3    H118206   2.916   2.616   9.214
 2461TIP3    H218207   2.890   2.620   9.363
 2462TIP3   OH218208   2.656   2.320   8.819
 2462TIP3    H118209   2.562   2.303   8.815
 2462TIP3    H218210   2.694   2.236   8.847
 2463TIP3   OH218211   2.108   2.491   8.617
 2463TIP3    H118212   2.029   2.513   8.568
 2463TIP3    H218213   2.116   2.396   8.608
 2464TIP3   OH218214   2.435   2.520   8.378
 2464TIP3    H118215   2.507   2.476   8.331
 2464TIP3    H218216   2.391   2.572   8.311
 2465TIP3   OH218217   3.162   2.251   9.127
 2465TIP3    H118218   3.111   2.239   9.207
 2465TIP3    H218219   3.150   2.169   9.079
 2466TIP3   OH218220   2.362   2.661   8.150
 2466TIP3    H118221   2.334   2.748   8.123
 2466TIP3    H218222   2.457   2.660   8.137
 2467TIP3   OH218223   2.723   2.567   8.917
 2467TIP3    H118224   2.814   2.568   8.890
 2467TIP3    H218225   2.692   2.479   8.895
 2468TIP3   OH218226   2.184   2.220   8.615
 2468TIP3    H118227   2.141   2.136   8.631
 2468TIP3    H218228   2.228   2.209   8.530
 2469TIP3   OH218229   2.604   2.469   9.182
 2469TIP3    H118230   2.521   2.513   9.164
 2469TIP3    H218231   2.664   2.502   9.115
 2470TIP3   OH218232   2.676   3.081   8.378
 2470TIP3    H118233   2.615   3.012   8.356
 2470TIP3    H218234   2.660   3.099   8.471
 2471TIP3   OH218235   3.409   3.024   9.174
 2471TIP3    H118236   3.476   3.080   9.134
 2471TIP3    H218237   3.345   3.011   9.104
 2472TIP3   OH218238   3.061   2.346   8.154
 2472TIP3    H118239   2.989   2.291   8.187
 2472TIP3    H218240   3.119   2.355   8.229
 2473TIP3   OH218241   3.165   2.483   8.381
 2473TIP3    H118242   3.234   2.480   8.447
 2473TIP3    H218243   3.203   2.531   8.308
 2474TIP3   OH218244   2.218   2.991   8.872
 2474TIP3    H118245   2.275   2.977   8.796
 2474TIP3    H218246   2.259   2.942   8.942
 2475TIP3   OH218247   2.891   3.236   8.293
 2475TIP3    H118248   2.871   3.314   8.343
 2475TIP3    H218249   2.825   3.172   8.320
 2476TIP3   OH218250   1.821   2.820   9.443
 2476TIP3    H118251   1.790   2.761   9.513
 2476TIP3    H218252   1.753   2.814   9.375
 2477TIP3   OH218253   3.144   3.326   9.564
 2477TIP3    H118254   3.174   3.407   9.523
 2477TIP3    H218255   3.204   3.313   9.637
 2478TIP3   OH218256   3.536   2.593   8.324
 2478TIP3    H118257   3.459   2.587   8.267
 2478TIP3    H218258   3.569   2.682   8.309
 2479TIP3   OH218259   3.631   3.215   9.579
 2479TIP3    H118260   3.550   3.177   9.545
 2479TIP3    H218261   3.696   3.200   9.510
 2480TIP3   OH218262   3.469   3.431   8.423
 2480TIP3    H118263   3.403   3.366   8.449
 2480TIP3    H218264   3.501   3.400   8.339
 2481TIP3   OH218265   3.130   2.929   9.039
 2481TIP3    H118266   3.042   2.894   9.031
 2481TIP3    H218267   3.187   2.858   9.008
 2482TIP3   OH218268   2.492   3.340   8.732
 2482TIP3    H118269   2.485   3.426   8.690
 2482TIP3    H218270   2.409   3.328   8.778
 2483TIP3   OH218271   1.990   2.788   8.260
 2483TIP3    H118272   2.030   2.872   8.284
 2483TIP3    H218273   1.898   2.809   8.247
 2484TIP3   OH218274   2.606   3.109   8.640
 2484TIP3    H118275   2.571   3.194   8.668
 2484TIP3    H218276   2.535   3.047   8.656
 2485TIP3   OH218277   2.671   3.536   9.411
 2485TIP3    H118278   2.706   3.601   9.350
 2485TIP3    H218279   2.723   3.548   9.491
 2486TIP3   OH218280   2.429   3.587   8.614
 2486TIP3    H118281   2.336   3.595   8.632
 2486TIP3    H218282   2.463   3.676   8.622
 2487TIP3   OH218283   3.017   3.098   9.240
 2487TIP3    H118284   3.051   3.071   9.325
 2487TIP3    H218285   3.062   3.041   9.177
 2488TIP3   OH218286   3.163   3.212   8.247
 2488TIP3    H118287   3.199   3.218   8.335
 2488TIP3    H218288   3.069   3.222   8.259
 2489TIP3   OH218289   3.197   3.583   9.431
 2489TIP3    H118290   3.122   3.580   9.371
 2489TIP3    H218291   3.261   3.638   9.386
 2490TIP3   OH218292   3.644   3.619   8.170
 2490TIP3    H118293   3.695   3.655   8.097
 2490TIP3    H218294   3.590   3.692   8.200
 2491TIP3   OH218295   2.029   2.377   9.373
 2491TIP3    H118296   1.941   2.396   9.342
 2491TIP3    H218297   2.018   2.357   9.466
 2492TIP3   OH218298   3.309   3.202   8.492
 2492TIP3    H118299   3.252   3.139   8.534
 2492TIP3    H218300   3.397   3.164   8.499
 2493TIP3   OH218301   2.056   3.533   9.260
 2493TIP3    H118302   2.141   3.496   9.283
 2493TIP3    H218303   2.041   3.600   9.326
 2494TIP3   OH218304   2.523   3.267   8.231
 2494TIP3    H118305   2.579   3.208   8.281
 2494TIP3    H218306   2.522   3.348   8.281
 2495TIP3   OH218307   2.114   3.020   8.353
 2495TIP3    H118308   2.054   3.077   8.402
 2495TIP3    H218309   2.166   3.080   8.300
 2496TIP3   OH218310   3.019   2.229   9.365
 2496TIP3    H118311   3.064   2.207   9.446
 2496TIP3    H218312   2.933   2.187   9.372
 2497TIP3   OH218313   3.042   2.265   8.560
 2497TIP3    H118314   3.100   2.194   8.531
 2497TIP3    H218315   3.091   2.309   8.629
 2498TIP3   OH218316   2.794   3.457   8.423
 2498TIP3    H118317   2.701   3.470   8.403
 2498TIP3    H218318   2.834   3.543   8.407
 2499TIP3   OH218319   2.746   2.440   8.583
 2499TIP3    H118320   2.716   2.530   8.600
 2499TIP3    H218321   2.726   2.393   8.665
 2500TIP3   OH218322   2.963   2.485   9.473
 2500TIP3    H118323   2.919   2.446   9.548
 2500TIP3    H218324   2.977   2.413   9.412
 2501TIP3   OH218325   2.815   2.108   8.610
 2501TIP3    H118326   2.809   2.097   8.704
 2501TIP3    H218327   2.896   2.159   8.597
 2502TIP3   OH218328   2.523   3.502   8.372
 2502TIP3    H118329   2.532   3.586   8.328
 2502TIP3    H218330   2.486   3.523   8.457
 2503TIP3   OH218331   2.344   2.248   8.386
 2503TIP3    H118332   2.340   2.343   8.381
 2503TIP3    H218333   2.427   2.229   8.430
 2504TIP3   OH218334   3.479   2.197   9.487
 2504TIP3    H118335   3.402   2.232   9.531
 2504TIP3    H218336   3.447   2.165   9.403
 2505TIP3   OH218337   3.302   2.720   8.950
 2505TIP3    H118338   3.255   2.637   8.945
 2505TIP3    H218339   3.378   2.701   9.005
 2506TIP3   OH218340   2.256   3.206   8.203
 2506TIP3    H118341   2.217   3.291   8.222
 2506TIP3    H218342   2.350   3.222   8.202
 2507TIP3   OH218343   2.111   2.546   8.227
 2507TIP3    H118344   2.194   2.571   8.186
 2507TIP3    H218345   2.065   2.629   8.239
 2508TIP3   OH218346   3.390   3.613   9.037
 2508TIP3    H118347   3.361   3.680   8.976
 2508TIP3    H218348   3.485   3.622   9.040
 2509TIP3   OH218349   2.080   2.035   8.932
 2509TIP3    H118350   2.081   2.022   8.837
 2509TIP3    H218351   2.056   1.949   8.967
 2510TIP3   OH218352   1.961   3.431   8.611
 2510TIP3    H118353   1.908   3.461   8.685
 2510TIP3    H218354   1.941   3.493   8.541
 2511TIP3   OH218355   1.795   3.656   9.792
 2511TIP3    H118356   1.795   3.650   9.887
 2511TIP3    H218357   1.755   3.574   9.763
 2512TIP3   OH218358   2.746   3.396   8.103
 2512TIP3    H118359   2.662   3.350   8.113
 2512TIP3    H218360   2.811   3.335   8.138
 2513TIP3   OH218361   3.293   3.426   8.127
 2513TIP3    H118362   3.384   3.397   8.124
 2513TIP3    H218363   3.244   3.349   8.156
 2514TIP3   OH218364   2.010   3.059   9.702
 2514TIP3    H118365   2.015   2.972   9.744
 2514TIP3    H218366   1.917   3.075   9.692
 2515TIP3   OH218367   2.340   2.936   8.114
 2515TIP3    H118368   2.403   2.940   8.186
 2515TIP3    H218369   2.299   3.023   8.113
 2516TIP3   OH218370   3.150   3.063   9.488
 2516TIP3    H118371   3.243   3.066   9.468
 2516TIP3    H218372   3.129   3.152   9.519
 2517TIP3   OH218373   2.001   2.798   9.808
 2517TIP3    H118374   2.064   2.747   9.858
 2517TIP3    H218375   1.916   2.776   9.846
 2518TIP3   OH218376   2.504   2.877   8.332
 2518TIP3    H118377   2.428   2.844   8.380
 2518TIP3    H218378   2.549   2.798   8.301
 2519TIP3   OH218379   2.645   2.683   8.179
 2519TIP3    H118380   2.683   2.744   8.116
 2519TIP3    H218381   2.719   2.633   8.212
 2520TIP3   OH218382   3.504   3.081   8.225
 2520TIP3    H118383   3.517   3.166   8.183
 2520TIP3    H218384   3.515   3.098   8.318
 2521TIP3   OH218385   2.653   2.426   9.457
 2521TIP3    H118386   2.610   2.341   9.458
 2521TIP3    H218387   2.651   2.453   9.365
 2522TIP3   OH218388   2.492   2.239   9.296
 2522TIP3    H118389   2.534   2.311   9.248
 2522TIP3    H218390   2.399   2.251   9.280
 2523TIP3   OH218391   2.714   2.858   9.431
 2523TIP3    H118392   2.766   2.796   9.380
 2523TIP3    H218393   2.647   2.889   9.370
 2524TIP3   OH218394   3.214   2.831   9.635
 2524TIP3    H118395   3.184   2.909   9.590
 2524TIP3    H218396   3.306   2.848   9.653
 2525TIP3   OH218397   2.564   1.976   9.293
 2525TIP3    H118398   2.531   2.066   9.289
 2525TIP3    H218399   2.485   1.923   9.304
 2526TIP3   OH218400   2.897   2.325   9.693
 2526TIP3    H118401   2.830   2.258   9.678
 2526TIP3    H218402   2.971   2.276   9.730
 2527TIP3   OH218403   2.581   3.741   8.254
 2527TIP3    H118404   2.665   3.715   8.215
 2527TIP3    H218405   2.559   3.823   8.209
 2528TIP3   OH218406   1.928   3.298   8.192
 2528TIP3    H118407   2.001   3.359   8.201
 2528TIP3    H218408   1.960   3.232   8.131
 2529TIP3   OH218409   1.812   3.768   8.683
 2529TIP3    H118410   1.757   3.747   8.607
 2529TIP3    H218411   1.813   3.688   8.735
 2530TIP3   OH218412   1.850   3.542   8.842
 2530TIP3    H118413   1.820   3.470   8.898
 2530TIP3    H218414   1.907   3.594   8.898
 2531TIP3   OH218415   3.640   3.737   9.022
 2531TIP3    H118416   3.679   3.781   9.098
 2531TIP3    H218417   3.586   3.805   8.981
 2532TIP3   OH218418   3.492   3.569   9.513
 2532TIP3    H118419   3.471   3.505   9.445
 2532TIP3    H218420   3.500   3.517   9.593
 2533TIP3   OH218421   3.303   3.205   9.777
 2533TIP3    H118422   3.219   3.217   9.821
 2533TIP3    H218423   3.334   3.120   9.807
 2534TIP3   OH218424   3.566   3.098   8.493
 2534TIP3    H118425   3.647   3.149   8.489
 2534TIP3    H218426   3.590   3.019   8.542
 2535TIP3   OH218427   3.648   2.851   8.594
 2535TIP3    H118428   3.569   2.814   8.632
 2535TIP3    H218429   3.711   2.852   8.665
 2536TIP3   OH218430   3.654   3.149   9.118
 2536TIP3    H118431   3.691   3.069   9.081
 2536TIP3    H218432   3.705   3.219   9.078
 2537TIP3   OH218433   3.394   3.368   9.336
 2537TIP3    H118434   3.301   3.390   9.329
 2537TIP3    H218435   3.422   3.356   9.246
 2538TIP3   OH218436   3.631   2.846   8.304
 2538TIP3    H118437   3.589   2.922   8.264
 2538TIP3    H218438   3.641   2.871   8.396
 2539TIP3   OH218439   3.314   2.575   8.166
 2539TIP3    H118440   3.291   2.626   8.088
 2539TIP3    H218441   3.328   2.487   8.134
 2540TIP3   OH218442   3.416   2.732   8.687
 2540TIP3    H118443   3.417   2.640   8.662
 2540TIP3    H218444   3.380   2.733   8.775
 2541TIP3   OH218445   1.859   2.888   9.079
 2541TIP3    H118446   1.881   2.891   8.986
 2541TIP3    H218447   1.942   2.872   9.123
 2542TIP3   OH218448   3.502   2.874   9.587
 2542TIP3    H118449   3.568   2.912   9.646
 2542TIP3    H218450   3.479   2.946   9.528
 2543TIP3   OH218451   3.619   2.637   9.723
 2543TIP3    H118452   3.596   2.704   9.659
 2543TIP3    H218453   3.714   2.632   9.720
 2544TIP3   OH218454   3.354   2.314   8.111
 2544TIP3    H118455   3.415   2.244   8.134
 2544TIP3    H218456   3.275   2.268   8.082
 2545TIP3   OH218457   3.400   2.488   8.543
 2545TIP3    H118458   3.429   2.397   8.548
 2545TIP3    H218459   3.454   2.526   8.474
 2546TIP3   OH218460   3.487   2.576   9.107
 2546TIP3    H118461   3.581   2.561   9.098
 2546TIP3    H218462   3.473   2.589   9.201
 2547TIP3   OH218463   3.456   2.611   9.379
 2547TIP3    H118464   3.375   2.606   9.431
 2547TIP3    H218465   3.484   2.702   9.388
 2548TIP3   OH218466   1.864   2.388   9.624
 2548TIP3    H118467   1.917   2.379   9.703
 2548TIP3    H218468   1.811   2.308   9.622
 2549TIP3   OH218469   3.447   2.221   8.554
 2549TIP3    H118470   3.466   2.168   8.631
 2549TIP3    H218471   3.375   2.175   8.510
 2550TIP3   OH218472   1.963   2.279   8.978
 2550TIP3    H118473   1.997   2.190   8.969
 2550TIP3    H218474   2.041   2.334   8.983
 2551TIP3   OH218475   1.789   2.615   9.004
 2551TIP3    H118476   1.865   2.593   8.950
 2551TIP3    H218477   1.813   2.699   9.046
 2552TIP3   OH218478   3.550   2.134   8.207
 2552TIP3    H118479   3.608   2.070   8.246
 2552TIP3    H218480   3.596   2.218   8.215
 2553TIP3   OH218481   1.850   2.231   8.491
 2553TIP3    H118482   1.754   2.224   8.485
 2553TIP3    H218483   1.874   2.288   8.419
 2554TIP3   OH218484   3.293   3.726   8.650
 2554TIP3    H118485   3.375   3.708   8.605
 2554TIP3    H218486   3.319   3.767   8.733
 2555TIP3   OH218487   1.818   2.019   9.284
 2555TIP3    H118488   1.748   2.011   9.349
 2555TIP3    H218489   1.795   2.098   9.235
 2556TIP3   OH218490   2.410   3.475   9.368
 2556TIP3    H118491   2.373   3.563   9.361
 2556TIP3    H218492   2.502   3.489   9.390
 2557TIP3   OH218493   2.799   3.581   9.654
 2557TIP3    H118494   2.823   3.538   9.736
 2557TIP3    H218495   2.849   3.662   9.654
 2558TIP3   OH218496   2.937   3.814   9.608
 2558TIP3    H118497   2.908   3.841   9.521
 2558TIP3    H218498   2.925   3.892   9.662
 2559TIP3   OH218499   3.543   1.871   9.407
 2559TIP3    H118500   3.459   1.872   9.361
 2559TIP3    H218501   3.587   1.792   9.374
 2560TIP3   OH218502   2.052   3.757   9.433
 2560TIP3    H118503   1.984   3.799   9.379
 2560TIP3    H218504   2.038   3.793   9.520
 2561TIP3   OH218505   2.308   3.729   9.326
 2561TIP3    H118506   2.227   3.749   9.373
 2561TIP3    H218507   2.298   3.771   9.241
 2562TIP3   OH218508   2.768   3.736   9.234
 2562TIP3    H118509   2.694   3.757   9.177
 2562TIP3    H218510   2.784   3.816   9.284
 2563TIP3   OH218511   3.009   3.610   9.225
 2563TIP3    H118512   2.922   3.648   9.230
 2563TIP3    H218513   3.056   3.666   9.163
 2564TIP3   OH218514   3.327   3.762   9.267
 2564TIP3    H118515   3.328   3.853   9.236
 2564TIP3    H218516   3.348   3.710   9.189
 2565TIP3   OH218517   2.029   3.664   9.013
 2565TIP3    H118518   2.013   3.634   9.103
 2565TIP3    H218519   2.110   3.620   8.987
 2566TIP3   OH218520   2.250   3.522   8.940
 2566TIP3    H118521   2.248   3.426   8.933
 2566TIP3    H218522   2.331   3.540   8.988
 2567TIP3   OH218523   2.483   3.507   9.092
 2567TIP3    H118524   2.522   3.426   9.060
 2567TIP3    H218525   2.462   3.489   9.184
 2568TIP3   OH218526   2.765   2.068   8.880
 2568TIP3    H118527   2.692   2.015   8.913
 2568TIP3    H218528   2.843   2.021   8.907
 2569TIP3   OH218529   3.291   2.038   8.933
 2569TIP3    H118530   3.367   2.054   8.877
 2569TIP3    H218531   3.217   2.030   8.872
 2570TIP3   OH218532   3.524   2.058   8.768
 2570TIP3    H118533   3.591   2.000   8.732
 2570TIP3    H218534   3.572   2.135   8.797
 2571TIP3   OH218535   2.069   1.972   8.665
 2571TIP3    H118536   1.977   1.947   8.660
 2571TIP3    H218537   2.117   1.890   8.660
 2572TIP3   OH218538   1.975   1.987   8.375
 2572TIP3    H118539   2.070   1.998   8.364
 2572TIP3    H218540   1.948   2.061   8.429
 2573TIP3   OH218541   2.502   1.923   8.686
 2573TIP3    H118542   2.585   1.906   8.642
 2573TIP3    H218543   2.523   1.922   8.779
 2574TIP3   OH218544   3.062   1.995   8.780
 2574TIP3    H118545   3.051   1.956   8.694
 2574TIP3    H218546   3.040   1.924   8.841
 2575TIP3   OH218547   3.227   2.071   8.489
 2575TIP3    H118548   3.176   2.029   8.419
 2575TIP3    H218549   3.257   1.998   8.544
 2576TIP3   OH218550   1.935   3.594   8.393
 2576TIP3    H118551   1.855   3.576   8.343
 2576TIP3    H218552   1.953   3.687   8.379
 2577TIP3   OH218553   2.241   2.013   8.285
 2577TIP3    H118554   2.320   1.966   8.258
 2577TIP3    H218555   2.273   2.099   8.313
 2578TIP3   OH218556   2.591   2.226   8.489
 2578TIP3    H118557   2.645   2.157   8.527
 2578TIP3    H218558   2.641   2.307   8.506
 2579TIP3   OH218559   2.826   3.649   8.176
 2579TIP3    H118560   2.921   3.647   8.164
 2579TIP3    H218561   2.796   3.565   8.141
 2580TIP3   OH218562   3.520   3.689   8.501
 2580TIP3    H118563   3.507   3.597   8.475
 2580TIP3    H218564   3.526   3.736   8.418
 2581TIP3   OH218565   2.022   1.910   9.625
 2581TIP3    H118566   1.953   1.848   9.648
 2581TIP3    H218567   2.066   1.928   9.708
 2582TIP3   OH218568   2.144   3.458   8.263
 2582TIP3    H118569   2.082   3.504   8.320
 2582TIP3    H218570   2.217   3.519   8.253
 2583TIP3   OH218571   4.924   2.982   8.643
 2583TIP3    H118572   4.917   3.077   8.638
 2583TIP3    H218573   4.835   2.952   8.659
 2584TIP3   OH218574   4.623   2.847   9.001
 2584TIP3    H118575   4.686   2.824   9.070
 2584TIP3    H218576   4.604   2.764   8.957
 2585TIP3   OH218577   3.971   2.785   9.149
 2585TIP3    H118578   3.974   2.712   9.211
 2585TIP3    H218579   4.061   2.794   9.118
 2586TIP3   OH218580   4.105   3.243   8.987
 2586TIP3    H118581   4.078   3.160   8.948
 2586TIP3    H218582   4.197   3.252   8.962
 2587TIP3   OH218583   3.756   2.596   8.509
 2587TIP3    H118584   3.735   2.686   8.533
 2587TIP3    H218585   3.695   2.575   8.438
 2588TIP3   OH218586   3.833   2.831   8.803
 2588TIP3    H118587   3.864   2.745   8.829
 2588TIP3    H218588   3.909   2.889   8.814
 2589TIP3   OH218589   4.904   3.586   8.956
 2589TIP3    H118590   4.929   3.537   8.877
 2589TIP3    H218591   4.892   3.518   9.023
 2590TIP3   OH218592   4.551   3.112   9.001
 2590TIP3    H118593   4.577   3.022   8.982
 2590TIP3    H218594   4.620   3.145   9.059
 2591TIP3   OH218595   4.917   2.537   9.024
 2591TIP3    H118596   5.011   2.556   9.029
 2591TIP3    H218597   4.897   2.541   8.931
 2592TIP3   OH218598   4.267   2.311   8.790
 2592TIP3    H118599   4.264   2.396   8.745
 2592TIP3    H218600   4.208   2.255   8.740
 2593TIP3   OH218601   5.030   2.382   8.660
 2593TIP3    H118602   5.074   2.327   8.724
 2593TIP3    H218603   5.094   2.449   8.637
 2594TIP3   OH218604   3.919   2.575   8.885
 2594TIP3    H118605   3.990   2.530   8.931
 2594TIP3    H218606   3.919   2.537   8.798
 2595TIP3   OH218607   4.355   2.717   8.821
 2595TIP3    H118608   4.438   2.674   8.843
 2595TIP3    H218609   4.309   2.654   8.766
 2596TIP3   OH218610   4.124   2.250   9.230
 2596TIP3    H118611   4.103   2.311   9.159
 2596TIP3    H218612   4.051   2.257   9.291
 2597TIP3   OH218613   4.878   3.247   8.580
 2597TIP3    H118614   4.865   3.231   8.487
 2597TIP3    H218615   4.808   3.308   8.604
 2598TIP3   OH218616   4.349   3.027   9.168
 2598TIP3    H118617   4.307   3.104   9.205
 2598TIP3    H218618   4.420   3.062   9.114
 2599TIP3   OH218619   4.114   2.408   9.000
 2599TIP3    H118620   4.167   2.467   9.052
 2599TIP3    H218621   4.174   2.371   8.936
 2600TIP3   OH218622   4.210   3.251   9.254
 2600TIP3    H118623   4.167   3.259   9.169
 2600TIP3    H218624   4.138   3.252   9.317
 2601TIP3   OH218625   3.812   3.218   8.457
 2601TIP3    H118626   3.818   3.252   8.368
 2601TIP3    H218627   3.836   3.292   8.513
 2602TIP3   OH218628   4.505   1.953   9.026
 2602TIP3    H118629   4.480   1.862   9.015
 2602TIP3    H218630   4.423   1.997   9.052
 2603TIP3   OH218631   5.007   3.462   8.722
 2603TIP3    H118632   4.988   3.374   8.692
 2603TIP3    H218633   5.093   3.456   8.764
 2604TIP3   OH218634   4.706   2.868   8.466
 2604TIP3    H118635   4.645   2.931   8.428
 2604TIP3    H218636   4.789   2.885   8.422
 2605TIP3   OH218637   4.703   2.616   8.178
 2605TIP3    H118638   4.792   2.638   8.207
 2605TIP3    H218639   4.708   2.524   8.152
 2606TIP3   OH218640   5.177   2.872   8.638
 2606TIP3    H118641   5.089   2.900   8.661
 2606TIP3    H218642   0.023   2.948   8.593
 2607TIP3   OH218643   4.978   2.632   9.393
 2607TIP3    H118644   4.914   2.626   9.465
 2607TIP3    H218645   4.926   2.661   9.318
 2608TIP3   OH218646   4.257   2.930   8.673
 2608TIP3    H118647   4.225   2.884   8.595
 2608TIP3    H218648   4.306   2.864   8.722
 2609TIP3   OH218649   4.367   3.302   8.927
 2609TIP3    H118650   4.366   3.317   8.832
 2609TIP3    H218651   4.437   3.238   8.940
 2610TIP3   OH218652   4.224   2.821   9.039
 2610TIP3    H118653   4.280   2.795   8.966
 2610TIP3    H218654   4.275   2.889   9.084
 2611TIP3   OH218655   4.862   3.408   9.159
 2611TIP3    H118656   4.896   3.419   9.248
 2611TIP3    H218657   4.815   3.325   9.161
 2612TIP3   OH218658   4.401   3.331   9.444
 2612TIP3    H118659   4.343   3.374   9.508
 2612TIP3    H218660   4.342   3.304   9.373
 2613TIP3   OH218661   4.971   2.883   8.389
 2613TIP3    H118662   4.973   2.913   8.480
 2613TIP3    H218663   5.011   2.955   8.340
 2614TIP3   OH218664   4.053   2.735   9.525
 2614TIP3    H118665   4.074   2.758   9.615
 2614TIP3    H218666   3.972   2.783   9.506
 2615TIP3   OH218667   4.676   3.433   8.595
 2615TIP3    H118668   4.672   3.528   8.582
 2615TIP3    H218669   4.629   3.396   8.521
 2616TIP3   OH218670   4.207   3.470   9.610
 2616TIP3    H118671   4.219   3.529   9.684
 2616TIP3    H218672   4.152   3.399   9.644
 2617TIP3   OH218673   4.152   2.804   8.447
 2617TIP3    H118674   4.083   2.869   8.433
 2617TIP3    H218675   4.110   2.720   8.431
 2618TIP3   OH218676   3.775   3.113   9.368
 2618TIP3    H118677   3.728   3.120   9.285
 2618TIP3    H218678   3.794   3.019   9.376
 2619TIP3   OH218679   3.844   3.349   9.040
 2619TIP3    H118680   3.927   3.308   9.014
 2619TIP3    H218681   3.866   3.401   9.117
 2620TIP3   OH218682   4.624   3.499   9.444
 2620TIP3    H118683   4.633   3.526   9.535
 2620TIP3    H218684   4.554   3.434   9.446
 2621TIP3   OH218685   4.686   3.693   8.486
 2621TIP3    H118686   4.657   3.714   8.397
 2621TIP3    H218687   4.684   3.777   8.532
 2622TIP3   OH218688   4.063   3.610   8.710
 2622TIP3    H118689   4.081   3.579   8.799
 2622TIP3    H218690   3.998   3.548   8.677
 2623TIP3   OH218691   4.907   3.645   8.213
 2623TIP3    H118692   4.993   3.654   8.173
 2623TIP3    H218693   4.925   3.628   8.306
 2624TIP3   OH218694   4.942   3.594   8.486
 2624TIP3    H118695   4.852   3.624   8.491
 2624TIP3    H218696   4.956   3.544   8.567
 2625TIP3   OH218697   3.994   3.264   9.422
 2625TIP3    H118698   4.007   3.265   9.517
 2625TIP3    H218699   3.920   3.204   9.409
 2626TIP3   OH218700   4.242   2.042   9.085
 2626TIP3    H118701   4.178   2.025   9.016
 2626TIP3    H218702   4.205   2.114   9.136
 2627TIP3   OH218703   4.686   2.035   9.393
 2627TIP3    H118704   4.733   2.008   9.472
 2627TIP3    H218705   4.594   2.023   9.415
 2628TIP3   OH218706   5.113   2.383   9.426
 2628TIP3    H118707   5.041   2.352   9.483
 2628TIP3    H218708   5.088   2.472   9.401
 2629TIP3   OH218709   4.697   2.345   8.120
 2629TIP3    H118710   4.643   2.302   8.186
 2629TIP3    H218711   4.646   2.339   8.039
 2630TIP3   OH218712   4.261   2.575   9.160
 2630TIP3    H118713   4.267   2.591   9.254
 2630TIP3    H218714   4.249   2.662   9.121
 2631TIP3   OH218715   4.219   2.545   8.655
 2631TIP3    H118716   4.125   2.527   8.650
 2631TIP3    H218717   4.251   2.534   8.566
 2632TIP3   OH218718   4.773   2.610   8.511
 2632TIP3    H118719   4.736   2.697   8.504
 2632TIP3    H218720   4.840   2.606   8.443
 2633TIP3   OH218721   4.763   2.625   9.576
 2633TIP3    H118722   4.729   2.547   9.620
 2633TIP3    H218723   4.759   2.693   9.643
 2634TIP3   OH218724   4.819   2.520   8.766
 2634TIP3    H118725   4.797   2.567   8.685
 2634TIP3    H218726   4.885   2.457   8.740
 2635TIP3   OH218727   3.959   2.564   9.319
 2635TIP3    H118728   3.989   2.614   9.395
 2635TIP3    H218729   3.955   2.474   9.350
 2636TIP3   OH218730   4.395   2.371   8.109
 2636TIP3    H118731   4.426   2.314   8.179
 2636TIP3    H218732   4.303   2.347   8.097
 2637TIP3   OH218733   3.688   2.271   8.791
 2637TIP3    H118734   3.766   2.268   8.846
 2637TIP3    H218735   3.721   2.279   8.702
 2638TIP3   OH218736   3.689   2.367   8.264
 2638TIP3    H118737   3.771   2.402   8.231
 2638TIP3    H218738   3.631   2.443   8.269
 2639TIP3   OH218739   4.802   2.722   9.182
 2639TIP3    H118740   4.841   2.658   9.123
 2639TIP3    H218741   4.737   2.672   9.231
 2640TIP3   OH218742   4.544   2.273   8.741
 2640TIP3    H118743   4.455   2.278   8.776
 2640TIP3    H218744   4.595   2.232   8.810
 2641TIP3   OH218745   3.959   2.461   8.638
 2641TIP3    H118746   3.887   2.493   8.584
 2641TIP3    H218747   3.970   2.369   8.613
 2642TIP3   OH218748   4.330   2.490   8.409
 2642TIP3    H118749   4.417   2.473   8.445
 2642TIP3    H218750   4.346   2.548   8.334
 2643TIP3   OH218751   4.824   2.284   9.079
 2643TIP3    H118752   4.805   2.286   9.172
 2643TIP3    H218753   4.863   2.369   9.059
 2644TIP3   OH218754   4.155   2.617   8.129
 2644TIP3    H118755   4.107   2.699   8.117
 2644TIP3    H218756   4.247   2.643   8.132
 2645TIP3   OH218757   4.584   2.585   8.905
 2645TIP3    H118758   4.663   2.554   8.861
 2645TIP3    H218759   4.565   2.519   8.971
 2646TIP3   OH218760   4.084   2.203   8.609
 2646TIP3    H118761   4.043   2.117   8.618
 2646TIP3    H218762   4.127   2.199   8.523
 2647TIP3   OH218763   4.496   2.439   9.130
 2647TIP3    H118764   4.414   2.488   9.135
 2647TIP3    H218765   4.551   2.479   9.197
 2648TIP3   OH218766   4.561   3.059   8.334
 2648TIP3    H118767   4.494   3.006   8.291
 2648TIP3    H218768   4.515   3.100   8.408
 2649TIP3   OH218769   4.932   2.360   8.262
 2649TIP3    H118770   4.862   2.341   8.200
 2649TIP3    H218771   4.931   2.455   8.272
 2650TIP3   OH218772   4.594   3.124   9.447
 2650TIP3    H118773   4.636   3.130   9.533
 2650TIP3    H218774   4.528   3.193   9.448
 2651TIP3   OH218775   4.962   2.633   8.294
 2651TIP3    H118776   5.046   2.620   8.250
 2651TIP3    H218777   4.963   2.724   8.323
 2652TIP3   OH218778   4.068   2.986   8.870
 2652TIP3    H118779   4.127   2.980   8.794
 2652TIP3    H218780   4.107   2.927   8.935
 2653TIP3   OH218781   4.814   3.188   8.309
 2653TIP3    H118782   4.797   3.266   8.256
 2653TIP3    H218783   4.729   3.144   8.315
 2654TIP3   OH218784   3.805   2.848   9.467
 2654TIP3    H118785   3.775   2.888   9.549
 2654TIP3    H218786   3.724   2.828   9.420
 2655TIP3   OH218787   4.904   3.458   9.434
 2655TIP3    H118788   4.809   3.470   9.439
 2655TIP3    H218789   4.939   3.547   9.431
 2656TIP3   OH218790   4.928   2.969   9.169
 2656TIP3    H118791   4.891   2.881   9.171
 2656TIP3    H218792   5.018   2.957   9.138
 2657TIP3   OH218793   4.303   3.363   8.661
 2657TIP3    H118794   4.330   3.451   8.636
 2657TIP3    H218795   4.214   3.354   8.627
 2658TIP3   OH218796   3.888   2.785   8.224
 2658TIP3    H118797   3.924   2.858   8.274
 2658TIP3    H218798   3.793   2.796   8.231
 2659TIP3   OH218799   4.401   3.132   8.541
 2659TIP3    H118800   4.382   3.215   8.585
 2659TIP3    H218801   4.354   3.066   8.592
 2660TIP3   OH218802   4.568   3.686   9.252
 2660TIP3    H118803   4.651   3.709   9.212
 2660TIP3    H218804   4.589   3.617   9.316
 2661TIP3   OH218805   4.304   3.631   8.584
 2661TIP3    H118806   4.216   3.635   8.621
 2661TIP3    H218807   4.345   3.713   8.611
 2662TIP3   OH218808   4.734   3.163   9.200
 2662TIP3    H118809   4.697   3.144   9.286
 2662TIP3    H218810   4.802   3.097   9.187
 2663TIP3   OH218811   5.077   3.104   8.268
 2663TIP3    H118812   5.131   3.175   8.233
 2663TIP3    H218813   4.988   3.140   8.271
 2664TIP3   OH218814   3.881   2.292   9.371
 2664TIP3    H118815   3.802   2.345   9.367
 2664TIP3    H218816   3.852   2.204   9.347
 2665TIP3   OH218817   3.941   3.483   9.266
 2665TIP3    H118818   3.993   3.544   9.319
 2665TIP3    H218819   3.943   3.401   9.315
 2666TIP3   OH218820   4.298   3.313   8.270
 2666TIP3    H118821   4.374   3.269   8.307
 2666TIP3    H218822   4.315   3.406   8.281
 2667TIP3   OH218823   3.965   2.995   8.384
 2667TIP3    H118824   3.912   3.065   8.421
 2667TIP3    H218825   4.026   3.040   8.325
 2668TIP3   OH218826   4.762   2.293   9.346
 2668TIP3    H118827   4.818   2.299   9.422
 2668TIP3    H218828   4.725   2.205   9.351
 2669TIP3   OH218829   4.894   2.215   8.492
 2669TIP3    H118830   4.901   2.263   8.409
 2669TIP3    H218831   4.933   2.274   8.557
 2670TIP3   OH218832   4.568   3.380   8.351
 2670TIP3    H118833   4.507   3.453   8.341
 2670TIP3    H218834   4.630   3.391   8.278
 2671TIP3   OH218835   4.574   2.422   8.513
 2671TIP3    H118836   4.644   2.486   8.517
 2671TIP3    H218837   4.570   2.385   8.601
 2672TIP3   OH218838   4.656   2.544   9.330
 2672TIP3    H118839   4.671   2.582   9.416
 2672TIP3    H218840   4.692   2.455   9.336
 2673TIP3   OH218841   4.652   2.103   8.551
 2673TIP3    H118842   4.613   2.168   8.609
 2673TIP3    H218843   4.740   2.135   8.534
 2674TIP3   OH218844   4.375   3.568   8.328
 2674TIP3    H118845   4.360   3.647   8.277
 2674TIP3    H218846   4.347   3.592   8.417
 2675TIP3   OH218847   4.238   2.226   8.373
 2675TIP3    H118848   4.257   2.319   8.383
 2675TIP3    H218849   4.324   2.186   8.360
 2676TIP3   OH218850   4.050   3.422   8.186
 2676TIP3    H118851   4.065   3.516   8.196
 2676TIP3    H218852   4.134   3.381   8.207
 2677TIP3   OH218853   3.907   2.512   8.194
 2677TIP3    H118854   3.998   2.507   8.165
 2677TIP3    H218855   3.891   2.605   8.206
 2678TIP3   OH218856   4.026   1.992   8.917
 2678TIP3    H118857   4.017   1.985   8.822
 2678TIP3    H218858   4.003   1.905   8.950
 2679TIP3   OH218859   3.861   3.444   8.615
 2679TIP3    H118860   3.801   3.469   8.685
 2679TIP3    H218861   3.836   3.501   8.541
 2680TIP3   OH218862   4.759   3.417   8.155
 2680TIP3    H118863   4.748   3.417   8.060
 2680TIP3    H218864   4.809   3.496   8.174
 2681TIP3   OH218865   3.732   2.985   9.695
 2681TIP3    H118866   3.818   2.989   9.737
 2681TIP3    H218867   3.706   3.077   9.685
 2682TIP3   OH218868   4.156   3.084   8.214
 2682TIP3    H118869   4.227   3.020   8.213
 2682TIP3    H218870   4.200   3.168   8.223
 2683TIP3   OH218871   4.982   3.072   9.418
 2683TIP3    H118872   5.044   3.002   9.437
 2683TIP3    H218873   4.953   3.054   9.328
 2684TIP3   OH218874   3.887   2.605   9.778
 2684TIP3    H118875   3.976   2.575   9.758
 2684TIP3    H218876   3.899   2.679   9.838
 2685TIP3   OH218877   4.349   2.886   8.265
 2685TIP3    H118878   4.292   2.860   8.337
 2685TIP3    H218879   4.385   2.804   8.231
 2686TIP3   OH218880   4.297   2.652   9.421
 2686TIP3    H118881   4.215   2.683   9.460
 2686TIP3    H218882   4.352   2.730   9.418
 2687TIP3   OH218883   4.431   2.633   8.182
 2687TIP3    H118884   4.421   2.547   8.141
 2687TIP3    H218885   4.526   2.647   8.183
 2688TIP3   OH218886   4.401   2.423   9.544
 2688TIP3    H118887   4.397   2.357   9.474
 2688TIP3    H218888   4.371   2.504   9.502
 2689TIP3   OH218889   4.384   2.257   9.321
 2689TIP3    H118890   4.433   2.296   9.248
 2689TIP3    H218891   4.293   2.256   9.290
 2690TIP3   OH218892   4.439   2.887   9.391
 2690TIP3    H118893   4.503   2.950   9.423
 2690TIP3    H218894   4.405   2.926   9.310
 2691TIP3   OH218895   4.217   2.461   9.757
 2691TIP3    H118896   4.191   2.381   9.802
 2691TIP3    H218897   4.274   2.431   9.685
 2692TIP3   OH218898   4.419   2.005   9.432
 2692TIP3    H118899   4.401   2.094   9.401
 2692TIP3    H218900   4.351   1.952   9.390
 2693TIP3   OH218901   4.647   2.394   9.672
 2693TIP3    H118902   4.626   2.372   9.763
 2693TIP3    H218903   4.562   2.400   9.628
 2694TIP3   OH218904   4.894   2.305   9.583
 2694TIP3    H118905   4.811   2.334   9.621
 2694TIP3    H218906   4.946   2.278   9.659
 2695TIP3   OH218907   5.052   2.229   9.790
 2695TIP3    H118908   5.046   2.133   9.794
 2695TIP3    H218909   5.055   2.256   9.882
 2696TIP3   OH218910   4.457   1.862   9.660
 2696TIP3    H118911   4.541   1.819   9.649
 2696TIP3    H218912   4.446   1.915   9.581
 2697TIP3   OH218913   4.376   3.811   8.197
 2697TIP3    H118914   4.471   3.802   8.210
 2697TIP3    H218915   4.368   3.879   8.130
 2698TIP3   OH218916   3.833   3.262   8.181
 2698TIP3    H118917   3.903   3.327   8.180
 2698TIP3    H218918   3.869   3.187   8.133
 2699TIP3   OH218919   3.717   3.759   8.680
 2699TIP3    H118920   3.659   3.731   8.610
 2699TIP3    H218921   3.726   3.681   8.736
 2700TIP3   OH218922   3.746   3.542   8.856
 2700TIP3    H118923   3.773   3.467   8.910
 2700TIP3    H218924   3.710   3.605   8.918
 2701TIP3   OH218925   3.744   2.897   9.057
 2701TIP3    H118926   3.749   2.876   8.964
 2701TIP3    H218927   3.825   2.862   9.095
 2702TIP3   OH218928   3.896   2.230   8.968
 2702TIP3    H118929   3.940   2.146   8.953
 2702TIP3    H218930   3.968   2.293   8.976
 2703TIP3   OH218931   3.758   2.523   9.114
 2703TIP3    H118932   3.803   2.545   9.033
 2703TIP3    H218933   3.819   2.546   9.183
 2704TIP3   OH218934   3.719   2.253   8.513
 2704TIP3    H118935   3.624   2.242   8.522
 2704TIP3    H218936   3.730   2.296   8.428
 2705TIP3   OH218937   3.729   2.063   9.332
 2705TIP3    H118938   3.660   2.003   9.359
 2705TIP3    H218939   3.693   2.111   9.258
 2706TIP3   OH218940   4.023   3.268   9.697
 2706TIP3    H118941   3.972   3.307   9.768
 2706TIP3    H218942   4.022   3.174   9.717
 2707TIP3   OH218943   4.100   3.645   9.420
 2707TIP3    H118944   4.178   3.687   9.384
 2707TIP3    H218945   4.133   3.587   9.488
 2708TIP3   OH218946   4.683   3.585   9.696
 2708TIP3    H118947   4.711   3.502   9.737
 2708TIP3    H218948   4.761   3.640   9.699
 2709TIP3   OH218949   4.885   3.774   9.668
 2709TIP3    H118950   4.952   3.751   9.604
 2709TIP3    H218951   4.932   3.782   9.751
 2710TIP3   OH218952   3.969   3.889   9.373
 2710TIP3    H118953   3.885   3.875   9.330
 2710TIP3    H218954   3.994   3.803   9.406
 2711TIP3   OH218955   4.301   3.804   9.303
 2711TIP3    H118956   4.343   3.851   9.375
 2711TIP3    H218957   4.371   3.753   9.262
 2712TIP3   OH218958   4.822   3.762   9.164
 2712TIP3    H118959   4.851   3.700   9.097
 2712TIP3    H218960   4.868   3.843   9.144
 2713TIP3   OH218961   4.979   3.722   9.398
 2713TIP3    H118962   4.918   3.734   9.326
 2713TIP3    H218963   5.050   3.784   9.381
 2714TIP3   OH218964   4.013   3.714   9.116
 2714TIP3    H118965   3.957   3.656   9.167
 2714TIP3    H218966   4.059   3.656   9.056
 2715TIP3   OH218967   4.137   3.526   8.962
 2715TIP3    H118968   4.122   3.432   8.971
 2715TIP3    H218969   4.229   3.537   8.987
 2716TIP3   OH218970   4.401   3.555   9.049
 2716TIP3    H118971   4.413   3.466   9.018
 2716TIP3    H218972   4.465   3.565   9.120
 2717TIP3   OH218973   4.697   2.115   8.911
 2717TIP3    H118974   4.639   2.065   8.968
 2717TIP3    H218975   4.743   2.175   8.970
 2718TIP3   OH218976   3.977   1.949   8.647
 2718TIP3    H118977   3.885   1.931   8.628
 2718TIP3    H218978   4.022   1.866   8.630
 2719TIP3   OH218979   3.765   2.023   8.354
 2719TIP3    H118980   3.850   2.047   8.319
 2719TIP3    H218981   3.752   2.080   8.429
 2720TIP3   OH218982   4.521   1.928   8.736
 2720TIP3    H118983   4.573   1.990   8.684
 2720TIP3    H218984   4.532   1.957   8.826
 2721TIP3   OH218985   4.941   1.985   8.841
 2721TIP3    H118986   4.861   2.036   8.854
 2721TIP3    H218987   4.914   1.895   8.858
 2722TIP3   OH218988   3.806   3.602   8.401
 2722TIP3    H118989   3.750   3.591   8.324
 2722TIP3    H218990   3.846   3.688   8.389
 2723TIP3   OH218991   4.022   2.076   8.284
 2723TIP3    H118992   4.060   1.990   8.264
 2723TIP3    H218993   4.097   2.131   8.308
 2724TIP3   OH218994   4.528   2.239   8.314
 2724TIP3    H118995   4.542   2.151   8.350
 2724TIP3    H218996   4.550   2.297   8.387
 2725TIP3   OH218997   4.658   3.797   8.225
 2725TIP3    H118998   4.742   3.756   8.203
 2725TIP3    H218999   4.667   3.888   8.195
 2726TIP3   OH219000   4.105   3.690   8.223
 2726TIP3    H119001   4.038   3.742   8.267
 2726TIP3    H219002   4.179   3.749   8.214
 2727TIP3   OH219003   5.013   1.954   9.816
 2727TIP3    H119004   4.960   1.889   9.863
 2727TIP3    H219005   5.102   1.921   9.823
 2728TIP3   OH219006   1.133   4.874   8.668
 2728TIP3    H119007   1.104   4.965   8.672
 2728TIP3    H219008   1.065   4.829   8.618
 2729TIP3   OH219009   1.022   4.730   9.044
 2729TIP3    H119010   1.027   4.683   9.127
 2729TIP3    H219011   0.976   4.671   8.985
 2730TIP3   OH219012   0.195   4.619   9.208
 2730TIP3    H119013   0.205   4.539   9.259
 2730TIP3    H219014   0.268   4.675   9.235
 2731TIP3   OH219015   1.375   5.077   8.895
 2731TIP3    H119016   1.345   4.993   8.929
 2731TIP3    H219017   1.466   5.084   8.924
 2732TIP3   OH219018   0.447   5.119   9.041
 2732TIP3    H119019   0.392   5.040   9.041
 2732TIP3    H219020   0.526   5.094   8.994
 2733TIP3   OH219021   5.175   4.477   8.564
 2733TIP3    H119022   5.187   4.569   8.588
 2733TIP3    H219023   5.108   4.478   8.496
 2734TIP3   OH219024   0.135   4.744   8.859
 2734TIP3    H119025   0.142   4.649   8.871
 2734TIP3    H219026   0.090   4.754   8.775
 2735TIP3   OH219027   0.872   4.959   9.093
 2735TIP3    H119028   0.921   4.880   9.070
 2735TIP3    H219029   0.936   5.015   9.137
 2736TIP3   OH219030   1.785   4.101   9.171
 2736TIP3    H119031   1.787   4.172   9.236
 2736TIP3    H219032   1.840   4.133   9.099
 2737TIP3   OH219033   1.148   4.405   9.079
 2737TIP3    H119034   1.132   4.325   9.129
 2737TIP3    H219035   1.119   4.384   8.990
 2738TIP3   OH219036   0.495   4.218   8.816
 2738TIP3    H119037   0.505   4.300   8.768
 2738TIP3    H219038   0.436   4.166   8.762
 2739TIP3   OH219039   1.302   4.124   8.682
 2739TIP3    H119040   1.280   4.047   8.733
 2739TIP3    H219041   1.226   4.138   8.626
 2740TIP3   OH219042   0.157   4.468   8.894
 2740TIP3    H119043   0.216   4.419   8.951
 2740TIP3    H219044   0.176   4.436   8.806
 2741TIP3   OH219045   0.644   4.627   8.826
 2741TIP3    H119046   0.726   4.584   8.851
 2741TIP3    H219047   0.598   4.562   8.774
 2742TIP3   OH219048   1.752   4.294   9.361
 2742TIP3    H119049   1.706   4.376   9.344
 2742TIP3    H219050   1.791   4.307   9.448
 2743TIP3   OH219051   0.347   4.132   9.251
 2743TIP3    H119052   0.331   4.198   9.184
 2743TIP3    H219053   0.264   4.123   9.297
 2744TIP3   OH219054   1.046   5.141   8.624
 2744TIP3    H119055   1.061   5.110   8.534
 2744TIP3    H219056   1.002   0.034   8.614
 2745TIP3   OH219057   0.645   4.949   9.257
 2745TIP3    H119058   0.587   4.896   9.202
 2745TIP3    H219059   0.724   4.961   9.204
 2746TIP3   OH219060   1.436   4.159   8.948
 2746TIP3    H119061   1.341   4.151   8.959
 2746TIP3    H219062   1.458   4.239   8.997
 2747TIP3   OH219063   0.343   4.301   9.029
 2747TIP3    H119064   0.395   4.364   9.079
 2747TIP3    H219065   0.402   4.269   8.961
 2748TIP3   OH219066   0.530   0.066   9.269
 2748TIP3    H119067   0.501   0.009   9.199
 2748TIP3    H219068   0.512   0.017   9.349
 2749TIP3   OH219069   0.155   5.129   8.496
 2749TIP3    H119070   0.090   5.060   8.481
 2749TIP3    H219071   0.138   0.002   8.427
 2750TIP3   OH219072   1.304   0.028   9.142
 2750TIP3    H119073   1.348   5.181   9.066
 2750TIP3    H219074   1.355   0.107   9.162
 2751TIP3   OH219075   1.523   4.020   9.177
 2751TIP3    H119076   1.488   4.058   9.097
 2751TIP3    H219077   1.617   4.040   9.174
 2752TIP3   OH219078   0.720   3.807   9.011
 2752TIP3    H119079   0.698   3.714   9.019
 2752TIP3    H219080   0.644   3.853   9.048
 2753TIP3   OH219081   1.398   5.177   8.626
 2753TIP3    H119082   1.411   5.099   8.571
 2753TIP3    H219083   1.389   5.142   8.715
 2754TIP3   OH219084   1.476   5.039   9.460
 2754TIP3    H119085   1.510   4.952   9.481
 2754TIP3    H219086   1.429   5.067   9.538
 2755TIP3   OH219087   0.990   4.731   8.472
 2755TIP3    H119088   0.929   4.794   8.435
 2755TIP3    H219089   1.060   4.725   8.407
 2756TIP3   OH219090   1.036   4.505   8.196
 2756TIP3    H119091   1.095   4.562   8.245
 2756TIP3    H219092   1.058   4.522   8.104
 2757TIP3   OH219093   1.737   4.738   9.258
 2757TIP3    H119094   1.771   4.762   9.345
 2757TIP3    H219095   1.670   4.803   9.240
 2758TIP3   OH219096   1.334   4.732   8.551
 2758TIP3    H119097   1.268   4.777   8.603
 2758TIP3    H219098   1.390   4.688   8.616
 2759TIP3   OH219099   1.355   4.608   9.402
 2759TIP3    H119100   1.397   4.681   9.448
 2759TIP3    H219101   1.265   4.638   9.387
 2760TIP3   OH219102   0.628   4.854   8.672
 2760TIP3    H119103   0.571   4.816   8.605
 2760TIP3    H219104   0.646   4.782   8.732
 2761TIP3   OH219105   0.679   5.044   8.913
 2761TIP3    H119106   0.674   4.989   8.835
 2761TIP3    H219107   0.750   5.006   8.965
 2762TIP3   OH219108   0.556   4.722   9.067
 2762TIP3    H119109   0.585   4.700   8.979
 2762TIP3    H219110   0.633   4.709   9.122
 2763TIP3   OH219111   0.545   5.078   9.476
 2763TIP3    H119112   0.618   5.098   9.534
 2763TIP3    H219113   0.583   5.026   9.406
 2764TIP3   OH219114   1.212   4.686   8.309
 2764TIP3    H119115   1.259   4.694   8.392
 2764TIP3    H219116   1.271   4.723   8.244
 2765TIP3   OH219117   0.347   4.753   9.431
 2765TIP3    H119118   0.372   4.818   9.497
 2765TIP3    H219119   0.258   4.727   9.455
 2766TIP3   OH219120   1.585   3.870   8.247
 2766TIP3    H119121   1.495   3.903   8.247
 2766TIP3    H219122   1.636   3.941   8.207
 2767TIP3   OH219123   0.464   4.733   8.476
 2767TIP3    H119124   0.417   4.810   8.445
 2767TIP3    H219125   0.396   4.671   8.499
 2768TIP3   OH219126   0.009   4.884   9.375
 2768TIP3    H119127   0.007   4.879   9.279
 2768TIP3    H219128   0.042   4.799   9.403
 2769TIP3   OH219129   1.412   4.383   9.558
 2769TIP3    H119130   1.386   4.447   9.492
 2769TIP3    H219131   1.440   4.306   9.507
 2770TIP3   OH219132   0.136   5.117   9.521
 2770TIP3    H119133   0.103   5.061   9.592
 2770TIP3    H219134   0.110   5.072   9.441
 2771TIP3   OH219135   0.487   3.931   9.111
 2771TIP3    H119136   0.415   3.909   9.051
 2771TIP3    H219137   0.457   4.008   9.158
 2772TIP3   OH219138   0.881   4.012   9.363
 2772TIP3    H119139   0.902   4.079   9.427
 2772TIP3    H219140   0.806   3.965   9.401
 2773TIP3   OH219141   1.147   4.297   9.461
 2773TIP3    H119142   1.069   4.266   9.507
 2773TIP3    H219143   1.211   4.313   9.530
 2774TIP3   OH219144   1.388   4.807   8.136
 2774TIP3    H119145   1.339   4.889   8.146
 2774TIP3    H219146   1.480   4.834   8.137
 2775TIP3   OH219147   0.867   4.155   8.187
 2775TIP3    H119148   0.823   4.114   8.261
 2775TIP3    H219149   0.798   4.204   8.142
 2776TIP3   OH219150   0.503   4.468   9.172
 2776TIP3    H119151   0.509   4.483   9.267
 2776TIP3    H219152   0.510   4.556   9.134
 2777TIP3   OH219153   0.494   4.450   8.670
 2777TIP3    H119154   0.398   4.440   8.666
 2777TIP3    H219155   0.523   4.441   8.579
 2778TIP3   OH219156   1.029   4.469   8.569
 2778TIP3    H119157   1.008   4.560   8.548
 2778TIP3    H219158   1.104   4.449   8.512
 2779TIP3   OH219159   0.708   4.559   9.624
 2779TIP3    H119160   0.676   4.607   9.701
 2779TIP3    H219161   0.749   4.480   9.660
 2780TIP3   OH219162   1.067   4.352   8.820
 2780TIP3    H119163   1.065   4.387   8.731
 2780TIP3    H219164   1.105   4.264   8.810
 2781TIP3   OH219165   0.191   4.408   9.385
 2781TIP3    H119166   0.261   4.383   9.444
 2781TIP3    H219167   0.136   4.330   9.378
 2782TIP3   OH219168   0.627   4.290   8.107
 2782TIP3    H119169   0.585   4.219   8.058
 2782TIP3    H219170   0.556   4.352   8.124
 2783TIP3   OH219171   5.130   4.093   8.806
 2783TIP3    H119172   0.006   4.104   8.872
 2783TIP3    H219173   5.145   4.006   8.769
 2784TIP3   OH219174   0.049   4.213   8.285
 2784TIP3    H119175   0.103   4.292   8.289
 2784TIP3    H219176   5.169   4.236   8.225
 2785TIP3   OH219177   1.014   4.560   9.265
 2785TIP3    H119178   1.071   4.505   9.212
 2785TIP3    H219179   0.975   4.499   9.328
 2786TIP3   OH219180   0.768   4.167   8.815
 2786TIP3    H119181   0.674   4.174   8.826
 2786TIP3    H219182   0.804   4.182   8.903
 2787TIP3   OH219183   0.230   4.372   8.647
 2787TIP3    H119184   0.149   4.394   8.601
 2787TIP3    H219185   0.238   4.277   8.634
 2788TIP3   OH219186   0.544   4.408   8.403
 2788TIP3    H119187   0.633   4.430   8.378
 2788TIP3    H219188   0.491   4.436   8.328
 2789TIP3   OH219189   1.162   4.109   8.974
 2789TIP3    H119190   1.136   4.126   9.065
 2789TIP3    H219191   1.107   4.035   8.947
 2790TIP3   OH219192   0.418   4.470   8.165
 2790TIP3    H119193   0.324   4.455   8.176
 2790TIP3    H219194   0.424   4.558   8.128
 2791TIP3   OH219195   0.373   4.947   9.638
 2791TIP3    H119196   0.413   5.007   9.576
 2791TIP3    H219197   0.279   4.966   9.633
 2792TIP3   OH219198   0.870   4.510   8.930
 2792TIP3    H119199   0.937   4.455   8.890
 2792TIP3    H219200   0.838   4.459   9.004
 2793TIP3   OH219201   0.317   4.104   8.635
 2793TIP3    H119202   0.288   4.014   8.652
 2793TIP3    H219203   0.361   4.099   8.551
 2794TIP3   OH219204   0.760   4.361   9.135
 2794TIP3    H119205   0.670   4.393   9.142
 2794TIP3    H219206   0.795   4.369   9.223
 2795TIP3   OH219207   0.828   4.918   8.344
 2795TIP3    H119208   0.763   4.859   8.306
 2795TIP3    H219209   0.777   4.983   8.392
 2796TIP3   OH219210   1.521   4.913   9.207
 2796TIP3    H119211   1.489   4.964   9.281
 2796TIP3    H219212   1.441   4.890   9.158
 2797TIP3   OH219213   1.128   4.177   8.279
 2797TIP3    H119214   1.044   4.178   8.232
 2797TIP3    H219215   1.148   4.269   8.295
 2798TIP3   OH219216   0.999   5.065   9.727
 2798TIP3    H119217   1.057   5.017   9.787
 2798TIP3    H219218   1.043   5.060   9.642
 2799TIP3   OH219219   1.257   4.398   8.426
 2799TIP3    H119220   1.326   4.380   8.490
 2799TIP3    H219221   1.302   4.441   8.353
 2800TIP3   OH219222   0.327   4.875   9.017
 2800TIP3    H119223   0.266   4.832   8.957
 2800TIP3    H219224   0.397   4.812   9.030
 2801TIP3   OH219225   1.068   5.066   8.367
 2801TIP3    H119226   1.137   5.060   8.302
 2801TIP3    H219227   0.996   5.013   8.330
 2802TIP3   OH219228   0.098   4.647   9.497
 2802TIP3    H119229   0.112   4.627   9.589
 2802TIP3    H219230   0.109   4.564   9.452
 2803TIP3   OH219231   1.136   5.126   9.496
 2803TIP3    H119232   1.115   0.027   9.485
 2803TIP3    H219233   1.220   5.126   9.543
 2804TIP3   OH219234   1.662   4.481   8.360
 2804TIP3    H119235   1.577   4.479   8.314
 2804TIP3    H219236   1.706   4.559   8.325
 2805TIP3   OH219237   1.301   4.839   9.030
 2805TIP3    H119238   1.206   4.834   9.035
 2805TIP3    H219239   1.329   4.751   9.005
 2806TIP3   OH219240   0.498   0.063   8.632
 2806TIP3    H119241   0.550   0.140   8.656
 2806TIP3    H219242   0.408   0.089   8.653
 2807TIP3   OH219243   0.166   4.734   8.291
 2807TIP3    H119244   0.233   4.799   8.311
 2807TIP3    H219245   0.083   4.780   8.304
 2808TIP3   OH219246   0.652   5.072   8.503
 2808TIP3    H119247   0.594   5.134   8.548
 2808TIP3    H219248   0.657   4.997   8.562
 2809TIP3   OH219249   1.075   5.087   9.225
 2809TIP3    H119250   1.090   5.087   9.320
 2809TIP3    H219251   1.151   5.134   9.189
 2810TIP3   OH219252   1.314   5.056   8.233
 2810TIP3    H119253   1.371   5.126   8.202
 2810TIP3    H219254   1.352   5.028   8.316
 2811TIP3   OH219255   0.068   4.159   9.426
 2811TIP3    H119256   0.004   4.216   9.470
 2811TIP3    H219257   0.104   4.105   9.497
 2812TIP3   OH219258   1.447   4.963   8.458
 2812TIP3    H119259   1.405   4.882   8.487
 2812TIP3    H219260   1.540   4.942   8.456
 2813TIP3   OH219261   0.601   0.097   8.324
 2813TIP3    H119262   0.625   0.021   8.377
 2813TIP3    H219263   0.676   0.156   8.331
 2814TIP3   OH219264   0.329   4.945   8.378
 2814TIP3    H119265   0.277   5.003   8.434
 2814TIP3    H219266   0.367   5.003   8.312
 2815TIP3   OH219267   1.079   4.177   9.226
 2815TIP3    H119268   1.113   4.216   9.306
 2815TIP3    H219269   1.009   4.118   9.256
 2816TIP3   OH219270   1.065   4.132   8.543
 2816TIP3    H119271   1.091   4.134   8.451
 2816TIP3    H219272   0.986   4.186   8.547
 2817TIP3   OH219273   0.829   4.277   8.564
 2817TIP3    H119274   0.879   4.359   8.567
 2817TIP3    H219275   0.806   4.260   8.655
 2818TIP3   OH219276   0.825   4.402   9.405
 2818TIP3    H119277   0.785   4.464   9.465
 2818TIP3    H219278   0.857   4.331   9.461
 2819TIP3   OH219279   0.856   3.963   8.642
 2819TIP3    H119280   0.830   4.024   8.711
 2819TIP3    H219281   0.947   3.986   8.624
 2820TIP3   OH219282   0.464   4.140   8.402
 2820TIP3    H119283   0.482   4.234   8.404
 2820TIP3    H219284   0.551   4.099   8.398
 2821TIP3   OH219285   1.516   4.164   9.423
 2821TIP3    H119286   1.494   4.104   9.352
 2821TIP3    H219287   1.602   4.199   9.398
 2822TIP3   OH219288   1.353   4.567   8.976
 2822TIP3    H119289   1.272   4.528   9.010
 2822TIP3    H219290   1.423   4.513   9.013
 2823TIP3   OH219291   0.416   5.124   8.189
 2823TIP3    H119292   0.473   0.001   8.223
 2823TIP3    H219293   0.474   5.066   8.140
 2824TIP3   OH219294   0.146   4.470   8.210
 2824TIP3    H119295   0.145   4.562   8.239
 2824TIP3    H219296   0.062   4.458   8.166
 2825TIP3   OH219297   0.262   3.873   8.969
 2825TIP3    H119298   0.257   3.865   8.873
 2825TIP3    H219299   0.229   3.789   9.001
 2826TIP3   OH219300   0.099   4.886   9.671
 2826TIP3    H119301   0.132   4.804   9.707
 2826TIP3    H219302   0.029   4.861   9.612
 2827TIP3   OH219303   0.588   4.938   8.089
 2827TIP3    H119304   0.600   4.862   8.146
 2827TIP3    H219305   0.663   4.935   8.029
 2828TIP3   OH219306   0.158   4.625   9.768
 2828TIP3    H119307   0.098   4.553   9.786
 2828TIP3    H219308   0.240   4.599   9.809
 2829TIP3   OH219309   0.641   4.730   8.263
 2829TIP3    H119310   0.583   4.724   8.339
 2829TIP3    H219311   0.686   4.645   8.261
 2830TIP3   OH219312   0.513   4.537   9.437
 2830TIP3    H119313   0.464   4.619   9.434
 2830TIP3    H219314   0.586   4.554   9.497
 2831TIP3   OH219315   0.767   4.483   8.257
 2831TIP3    H119316   0.741   4.415   8.195
 2831TIP3    H219317   0.862   4.489   8.247
 2832TIP3   OH219318   1.624   4.952   8.183
 2832TIP3    H119319   1.601   5.044   8.176
 2832TIP3    H219320   1.652   4.940   8.274
 2833TIP3   OH219321   0.391   4.324   9.558
 2833TIP3    H119322   0.447   4.250   9.538
 2833TIP3    H219323   0.441   4.401   9.529
 2834TIP3   OH219324   0.565   4.152   9.422
 2834TIP3    H119325   0.633   4.208   9.383
 2834TIP3    H219326   0.497   4.148   9.355
 2835TIP3   OH219327   0.761   4.679   9.238
 2835TIP3    H119328   0.845   4.634   9.248
 2835TIP3    H219329   0.763   4.748   9.304
 2836TIP3   OH219330   0.272   4.323   9.810
 2836TIP3    H119331   0.322   4.391   9.856
 2836TIP3    H219332   0.309   4.324   9.721
 2837TIP3   OH219333   0.653   3.901   9.488
 2837TIP3    H119334   0.620   3.990   9.482
 2837TIP3    H219335   0.590   3.848   9.438
 2838TIP3   OH219336   0.656   3.744   9.719
 2838TIP3    H119337   0.748   3.725   9.738
 2838TIP3    H219338   0.658   3.792   9.636
 2839TIP3   OH219339   0.135   5.141   8.177
 2839TIP3    H119340   0.229   5.127   8.166
 2839TIP3    H219341   0.099   5.055   8.199
 2840TIP3   OH219342   1.715   4.885   8.441
 2840TIP3    H119343   1.793   4.940   8.434
 2840TIP3    H219344   1.728   4.833   8.520
 2841TIP3   OH219345   1.738   4.712   8.652
 2841TIP3    H119346   1.659   4.689   8.701
 2841TIP3    H219347   1.802   4.735   8.720
 2842TIP3   OH219348   1.612   5.104   9.022
 2842TIP3    H119349   1.604   5.032   9.085
 2842TIP3    H219350   1.666   5.169   9.067
 2843TIP3   OH219351   1.776   4.704   8.240
 2843TIP3    H119352   1.745   4.756   8.166
 2843TIP3    H219353   1.764   4.762   8.316
 2844TIP3   OH219354   1.429   4.469   8.218
 2844TIP3    H119355   1.412   4.525   8.142
 2844TIP3    H219356   1.440   4.382   8.181
 2845TIP3   OH219357   1.489   4.596   8.734
 2845TIP3    H119358   1.489   4.504   8.707
 2845TIP3    H219359   1.443   4.596   8.818
 2846TIP3   OH219360   0.016   4.802   9.107
 2846TIP3    H119361   0.040   4.815   9.015
 2846TIP3    H219362   0.080   4.739   9.140
 2847TIP3   OH219363   1.526   4.777   9.543
 2847TIP3    H119364   1.582   4.703   9.565
 2847TIP3    H219365   1.486   4.803   9.626
 2848TIP3   OH219366   1.643   4.538   9.619
 2848TIP3    H119367   1.568   4.479   9.614
 2848TIP3    H219368   1.719   4.481   9.631
 2849TIP3   OH219369   1.479   4.210   8.156
 2849TIP3    H119370   1.560   4.166   8.129
 2849TIP3    H219371   1.427   4.141   8.198
 2850TIP3   OH219372   1.512   4.347   8.560
 2850TIP3    H119373   1.520   4.266   8.508
 2850TIP3    H219374   1.565   4.411   8.513
 2851TIP3   OH219375   1.543   4.386   9.059
 2851TIP3    H119376   1.621   4.432   9.026
 2851TIP3    H219377   1.545   4.402   9.154
 2852TIP3   OH219378   1.588   4.506   9.302
 2852TIP3    H119379   1.506   4.541   9.336
 2852TIP3    H219380   1.643   4.583   9.286
 2853TIP3   OH219381   5.188   4.402   9.801
 2853TIP3    H119382   0.073   4.352   9.827
 2853TIP3    H219383   5.124   4.387   9.871
 2854TIP3   OH219384   1.548   4.074   8.501
 2854TIP3    H119385   1.571   3.987   8.532
 2854TIP3    H219386   1.477   4.059   8.438
 2855TIP3   OH219387   0.134   4.116   8.991
 2855TIP3    H119388   0.182   4.033   8.996
 2855TIP3    H219389   0.201   4.183   9.004
 2856TIP3   OH219390   5.152   4.484   9.091
 2856TIP3    H119391   0.010   4.470   9.011
 2856TIP3    H219392   0.020   4.532   9.148
 2857TIP3   OH219393   1.612   4.140   9.688
 2857TIP3    H119394   1.542   4.137   9.753
 2857TIP3    H219395   1.568   4.129   9.604
 2858TIP3   OH219396   1.723   4.079   8.124
 2858TIP3    H119397   1.787   4.047   8.060
 2858TIP3    H219398   1.770   4.147   8.173
 2859TIP3   OH219399   5.117   4.003   8.430
 2859TIP3    H119400   5.030   4.038   8.452
 2859TIP3    H219401   5.162   4.075   8.387
 2860TIP3   OH219402   5.150   3.926   9.306
 2860TIP3    H119403   5.178   4.013   9.337
 2860TIP3    H219404   5.098   3.945   9.227
 2861TIP3   OH219405   1.631   3.787   9.469
 2861TIP3    H119406   1.552   3.791   9.415
 2861TIP3    H219407   1.650   3.693   9.476
 2862TIP3   OH219408   0.977   3.899   8.934
 2862TIP3    H119409   0.885   3.884   8.952
 2862TIP3    H219410   1.015   3.811   8.928
 2863TIP3   OH219411   1.509   3.831   8.898
 2863TIP3    H119412   1.571   3.898   8.870
 2863TIP3    H219413   1.424   3.874   8.893
 2864TIP3   OH219414   1.680   3.997   8.759
 2864TIP3    H119415   1.733   3.921   8.734
 2864TIP3    H219416   1.744   4.065   8.779
 2865TIP3   OH219417   0.225   3.846   8.696
 2865TIP3    H119418   0.130   3.849   8.680
 2865TIP3    H219419   0.247   3.753   8.692
 2866TIP3   OH219420   0.076   3.804   8.311
 2866TIP3    H119421   0.152   3.859   8.293
 2866TIP3    H219422   0.010   3.865   8.344
 2867TIP3   OH219423   0.656   3.792   8.733
 2867TIP3    H119424   0.725   3.844   8.692
 2867TIP3    H219425   0.676   3.796   8.827
 2868TIP3   OH219426   1.255   3.877   8.789
 2868TIP3    H119427   1.291   3.813   8.726
 2868TIP3    H219428   1.189   3.827   8.837
 2869TIP3   OH219429   1.348   4.014   8.313
 2869TIP3    H119430   1.269   4.065   8.297
 2869TIP3    H219431   1.318   3.933   8.353
 2870TIP3   OH219432   0.247   4.014   8.280
 2870TIP3    H119433   0.325   4.056   8.315
 2870TIP3    H219434   0.183   4.085   8.272
 2871TIP3   OH219435   0.733   4.066   8.415
 2871TIP3    H119436   0.763   4.004   8.481
 2871TIP3    H219437   0.755   4.152   8.452
 2872TIP3   OH219438   0.163   3.987   9.620
 2872TIP3    H119439   0.102   3.926   9.661
 2872TIP3    H219440   0.224   4.010   9.691
 2873TIP3   OH219441   0.581   3.965   9.880
 2873TIP3    H119442   0.589   3.882   9.833
 2873TIP3    H219443   0.489   3.990   9.870
 2874TIP3   OH219444   1.295   3.845   9.784
 2874TIP3    H119445   1.277   3.900   9.861
 2874TIP3    H219446   1.390   3.845   9.775
 2875TIP3   OH219447   3.038   4.896   8.634
 2875TIP3    H119448   3.011   4.988   8.641
 2875TIP3    H219449   2.960   4.852   8.601
 2876TIP3   OH219450   2.886   4.718   9.039
 2876TIP3    H119451   2.911   4.682   9.124
 2876TIP3    H219452   2.839   4.647   8.996
 2877TIP3   OH219453   3.214   5.043   8.876
 2877TIP3    H119454   3.186   4.954   8.895
 2877TIP3    H219455   3.269   5.068   8.951
 2878TIP3   OH219456   2.273   5.092   8.936
 2878TIP3    H119457   2.238   5.007   8.909
 2878TIP3    H219458   2.367   5.085   8.919
 2879TIP3   OH219459   1.828   4.455   8.592
 2879TIP3    H119460   1.812   4.545   8.620
 2879TIP3    H219461   1.791   4.450   8.504
 2880TIP3   OH219462   1.950   4.748   8.819
 2880TIP3    H119463   1.969   4.664   8.862
 2880TIP3    H219464   2.031   4.798   8.831
 2881TIP3   OH219465   2.729   4.950   9.063
 2881TIP3    H119466   2.786   4.876   9.043
 2881TIP3    H219467   2.774   4.997   9.134
 2882TIP3   OH219468   3.625   4.121   9.139
 2882TIP3    H119469   3.613   4.193   9.201
 2882TIP3    H219470   3.685   4.156   9.073
 2883TIP3   OH219471   3.038   4.375   9.074
 2883TIP3    H119472   3.062   4.293   9.117
 2883TIP3    H219473   3.004   4.348   8.989
 2884TIP3   OH219474   2.354   4.189   8.811
 2884TIP3    H119475   2.363   4.277   8.775
 2884TIP3    H219476   2.289   4.147   8.755
 2885TIP3   OH219477   3.188   4.247   8.695
 2885TIP3    H119478   3.251   4.223   8.763
 2885TIP3    H219479   3.239   4.294   8.629
 2886TIP3   OH219480   2.012   4.502   8.928
 2886TIP3    H119481   2.069   4.473   8.999
 2886TIP3    H219482   2.041   4.453   8.852
 2887TIP3   OH219483   2.538   4.599   8.816
 2887TIP3    H119484   2.618   4.559   8.850
 2887TIP3    H219485   2.486   4.526   8.783
 2888TIP3   OH219486   3.595   4.312   9.332
 2888TIP3    H119487   3.546   4.392   9.316
 2888TIP3    H219488   3.561   4.279   9.415
 2889TIP3   OH219489   2.260   4.115   9.216
 2889TIP3    H119490   2.222   4.176   9.153
 2889TIP3    H219491   2.205   4.123   9.294
 2890TIP3   OH219492   2.943   5.163   8.596
 2890TIP3    H119493   2.957   5.150   8.502
 2890TIP3    H219494   2.895   0.054   8.602
 2891TIP3   OH219495   2.497   4.875   9.194
 2891TIP3    H119496   2.436   4.949   9.201
 2891TIP3    H219497   2.574   4.912   9.151
 2892TIP3   OH219498   3.395   4.212   8.863
 2892TIP3    H119499   3.484   4.211   8.829
 2892TIP3    H219500   3.400   4.264   8.943
 2893TIP3   OH219501   2.199   4.296   9.015
 2893TIP3    H119502   2.259   4.354   9.062
 2893TIP3    H219503   2.254   4.254   8.948
 2894TIP3   OH219504   2.275   5.051   9.210
 2894TIP3    H119505   2.270   5.085   9.120
 2894TIP3    H219506   2.197   4.998   9.220
 2895TIP3   OH219507   1.929   5.031   8.348
 2895TIP3    H119508   1.939   5.042   8.254
 2895TIP3    H219509   1.945   5.118   8.385
 2896TIP3   OH219510   3.355   5.136   9.095
 2896TIP3    H119511   3.356   5.151   9.190
 2896TIP3    H219512   3.339   0.031   9.057
 2897TIP3   OH219513   3.355   4.019   9.184
 2897TIP3    H119514   3.285   4.085   9.181
 2897TIP3    H219515   3.434   4.066   9.156
 2898TIP3   OH219516   2.554   3.774   9.052
 2898TIP3    H119517   2.533   3.681   9.056
 2898TIP3    H219518   2.469   3.818   9.065
 2899TIP3   OH219519   3.279   5.156   8.630
 2899TIP3    H119520   3.314   5.081   8.581
 2899TIP3    H219521   3.255   5.119   8.715
 2900TIP3   OH219522   3.345   5.131   9.374
 2900TIP3    H119523   3.335   5.037   9.389
 2900TIP3    H219524   3.263   5.169   9.407
 2901TIP3   OH219525   2.882   4.735   8.456
 2901TIP3    H119526   2.827   4.809   8.430
 2901TIP3    H219527   2.944   4.724   8.383
 2902TIP3   OH219528   2.871   4.506   8.197
 2902TIP3    H119529   2.952   4.547   8.226
 2902TIP3    H219530   2.880   4.414   8.225
 2903TIP3   OH219531   3.608   4.726   9.197
 2903TIP3    H119532   3.529   4.773   9.168
 2903TIP3    H219533   3.679   4.788   9.182
 2904TIP3   OH219534   3.218   4.722   8.529
 2904TIP3    H119535   3.159   4.779   8.578
 2904TIP3    H219536   3.271   4.678   8.596
 2905TIP3   OH219537   3.198   4.642   9.412
 2905TIP3    H119538   3.198   4.733   9.440
 2905TIP3    H219539   3.120   4.633   9.358
 2906TIP3   OH219540   2.404   4.786   8.668
 2906TIP3    H119541   2.384   4.744   8.585
 2906TIP3    H219542   2.457   4.723   8.716
 2907TIP3   OH219543   2.539   5.048   8.885
 2907TIP3    H119544   2.576   5.034   8.798
 2907TIP3    H219545   2.609   5.024   8.946
 2908TIP3   OH219546   2.385   4.690   9.027
 2908TIP3    H119547   2.449   4.671   8.958
 2908TIP3    H219548   2.429   4.751   9.085
 2909TIP3   OH219549   2.441   5.163   9.400
 2909TIP3    H119550   2.394   5.188   9.480
 2909TIP3    H219551   2.372   5.132   9.341
 2910TIP3   OH219552   3.103   4.656   8.290
 2910TIP3    H119553   3.145   4.682   8.372
 2910TIP3    H219554   3.153   4.701   8.222
 2911TIP3   OH219555   3.519   3.846   8.265
 2911TIP3    H119556   3.431   3.881   8.276
 2911TIP3    H219557   3.571   3.919   8.233
 2912TIP3   OH219558   2.335   4.697   8.417
 2912TIP3    H119559   2.273   4.765   8.393
 2912TIP3    H219560   2.289   4.615   8.397
 2913TIP3   OH219561   2.297   3.877   9.091
 2913TIP3    H119562   2.227   3.883   9.026
 2913TIP3    H219563   2.293   3.960   9.138
 2914TIP3   OH219564   2.833   3.956   9.395
 2914TIP3    H119565   2.874   4.038   9.424
 2914TIP3    H219566   2.739   3.970   9.410
 2915TIP3   OH219567   3.224   4.387   9.551
 2915TIP3    H119568   3.227   4.400   9.645
 2915TIP3    H219569   3.216   4.475   9.514
 2916TIP3   OH219570   3.270   4.817   8.143
 2916TIP3    H119571   3.227   4.896   8.177
 2916TIP3    H219572   3.361   4.844   8.128
 2917TIP3   OH219573   2.826   4.218   8.226
 2917TIP3    H119574   2.760   4.180   8.284
 2917TIP3    H219575   2.792   4.204   8.138
 2918TIP3   OH219576   2.387   4.442   9.162
 2918TIP3    H119577   2.328   4.443   9.237
 2918TIP3    H219578   2.374   4.527   9.120
 2919TIP3   OH219579   2.346   4.435   8.696
 2919TIP3    H119580   2.250   4.436   8.698
 2919TIP3    H219581   2.368   4.427   8.604
 2920TIP3   OH219582   2.907   4.479   8.564
 2920TIP3    H119583   2.892   4.570   8.539
 2920TIP3    H219584   2.986   4.454   8.516
 2921TIP3   OH219585   2.983   4.403   9.772
 2921TIP3    H119586   2.953   4.342   9.840
 2921TIP3    H219587   3.077   4.414   9.789
 2922TIP3   OH219588   2.960   4.355   8.806
 2922TIP3    H119589   2.932   4.406   8.730
 2922TIP3    H219590   3.039   4.311   8.777
 2923TIP3   OH219591   2.307   4.223   8.142
 2923TIP3    H119592   2.333   4.194   8.229
 2923TIP3    H219593   2.328   4.317   8.141
 2924TIP3   OH219594   1.739   4.268   8.782
 2924TIP3    H119595   1.805   4.260   8.851
 2924TIP3    H219596   1.774   4.337   8.724
 2925TIP3   OH219597   1.838   4.286   8.268
 2925TIP3    H119598   1.910   4.344   8.243
 2925TIP3    H219599   1.768   4.345   8.295
 2926TIP3   OH219600   2.968   4.567   9.259
 2926TIP3    H119601   2.996   4.498   9.199
 2926TIP3    H219602   2.932   4.520   9.334
 2927TIP3   OH219603   2.630   4.177   8.779
 2927TIP3    H119604   2.539   4.177   8.807
 2927TIP3    H219605   2.670   4.104   8.826
 2928TIP3   OH219606   2.077   4.369   8.690
 2928TIP3    H119607   1.997   4.394   8.644
 2928TIP3    H219608   2.093   4.278   8.662
 2929TIP3   OH219609   2.425   4.386   8.438
 2929TIP3    H119610   2.517   4.387   8.465
 2929TIP3    H219611   2.425   4.428   8.352
 2930TIP3   OH219612   3.092   4.146   9.221
 2930TIP3    H119613   3.084   4.165   9.315
 2930TIP3    H219614   3.042   4.065   9.209
 2931TIP3   OH219615   2.389   4.490   8.184
 2931TIP3    H119616   2.323   4.555   8.158
 2931TIP3    H219617   2.470   4.523   8.146
 2932TIP3   OH219618   2.754   4.484   8.943
 2932TIP3    H119619   2.821   4.431   8.900
 2932TIP3    H219620   2.726   4.432   9.018
 2933TIP3   OH219621   2.172   4.112   8.616
 2933TIP3    H119622   2.130   4.027   8.626
 2933TIP3    H219623   2.224   4.104   8.536
 2934TIP3   OH219624   2.650   4.376   9.181
 2934TIP3    H119625   2.559   4.404   9.174
 2934TIP3    H219626   2.689   4.437   9.244
 2935TIP3   OH219627   2.727   4.956   8.388
 2935TIP3    H119628   2.661   4.908   8.338
 2935TIP3    H219629   2.682   4.982   8.469
 2936TIP3   OH219630   3.387   4.860   9.115
 2936TIP3    H119631   3.386   4.956   9.112
 2936TIP3    H219632   3.303   4.833   9.076
 2937TIP3   OH219633   3.065   4.152   8.350
 2937TIP3    H119634   2.986   4.165   8.297
 2937TIP3    H219635   3.093   4.241   8.372
 2938TIP3   OH219636   2.658   5.029   9.505
 2938TIP3    H119637   2.579   5.060   9.462
 2938TIP3    H219638   2.685   5.101   9.562
 2939TIP3   OH219639   3.136   4.410   8.412
 2939TIP3    H119640   3.226   4.400   8.442
 2939TIP3    H219641   3.136   4.488   8.357
 2940TIP3   OH219642   2.214   4.832   8.862
 2940TIP3    H119643   2.269   4.825   8.785
 2940TIP3    H219644   2.258   4.779   8.928
 2941TIP3   OH219645   2.927   5.133   8.319
 2941TIP3    H119646   2.881   0.012   8.272
 2941TIP3    H219647   2.859   5.068   8.337
 2942TIP3   OH219648   3.109   0.010   9.487
 2942TIP3    H119649   3.028   0.048   9.453
 2942TIP3    H219650   3.131   0.065   9.563
 2943TIP3   OH219651   3.589   4.486   8.341
 2943TIP3    H119652   3.513   4.471   8.285
 2943TIP3    H219653   3.614   4.577   8.324
 2944TIP3   OH219654   3.472   5.083   9.653
 2944TIP3    H119655   3.383   5.056   9.677
 2944TIP3    H219656   3.460   5.136   9.575
 2945TIP3   OH219657   3.153   4.792   8.977
 2945TIP3    H119658   3.059   4.784   8.994
 2945TIP3    H219659   3.180   4.703   8.954
 2946TIP3   OH219660   2.373   0.009   8.623
 2946TIP3    H119661   2.434   0.061   8.676
 2946TIP3    H219662   2.290   0.014   8.670
 2947TIP3   OH219663   2.195   4.686   8.129
 2947TIP3    H119664   2.185   4.758   8.191
 2947TIP3    H219665   2.188   4.727   8.043
 2948TIP3   OH219666   2.559   5.000   8.600
 2948TIP3    H119667   2.495   5.072   8.598
 2948TIP3    H219668   2.508   4.924   8.626
 2949TIP3   OH219669   2.837   5.057   9.291
 2949TIP3    H119670   2.783   5.031   9.366
 2949TIP3    H219671   2.875   5.141   9.316
 2950TIP3   OH219672   3.187   5.047   8.265
 2950TIP3    H119673   3.238   5.125   8.243
 2950TIP3    H219674   3.099   5.081   8.285
 2951TIP3   OH219675   2.095   4.181   9.420
 2951TIP3    H119676   2.112   4.275   9.415
 2951TIP3    H219677   2.075   4.165   9.513
 2952TIP3   OH219678   3.360   4.948   8.460
 2952TIP3    H119679   3.317   4.865   8.481
 2952TIP3    H219680   3.308   4.985   8.389
 2953TIP3   OH219681   2.417   0.116   8.374
 2953TIP3    H119682   2.403   0.075   8.459
 2953TIP3    H219683   2.504   0.155   8.381
 2954TIP3   OH219684   2.168   4.890   8.313
 2954TIP3    H119685   2.082   4.920   8.342
 2954TIP3    H219686   2.213   4.970   8.285
 2955TIP3   OH219687   3.042   4.185   9.493
 2955TIP3    H119688   3.112   4.243   9.521
 2955TIP3    H219689   3.005   4.150   9.574
 2956TIP3   OH219690   3.022   4.049   8.604
 2956TIP3    H119691   3.035   4.065   8.510
 2956TIP3    H219692   3.073   4.118   8.647
 2957TIP3   OH219693   2.670   4.337   8.557
 2957TIP3    H119694   2.750   4.389   8.561
 2957TIP3    H219695   2.665   4.294   8.642
 2958TIP3   OH219696   2.878   4.409   9.471
 2958TIP3    H119697   2.883   4.442   9.561
 2958TIP3    H219698   2.937   4.333   9.471
 2959TIP3   OH219699   2.769   3.943   8.600
 2959TIP3    H119700   2.747   3.939   8.693
 2959TIP3    H219701   2.857   3.981   8.598
 2960TIP3   OH219702   2.360   4.123   8.403
 2960TIP3    H119703   2.371   4.215   8.427
 2960TIP3    H219704   2.448   4.087   8.403
 2961TIP3   OH219705   3.472   4.253   9.567
 2961TIP3    H119706   3.468   4.240   9.662
 2961TIP3    H219707   3.388   4.292   9.544
 2962TIP3   OH219708   3.229   4.526   8.940
 2962TIP3    H119709   3.152   4.486   8.979
 2962TIP3    H219710   3.303   4.483   8.982
 2963TIP3   OH219711   2.276   5.128   8.215
 2963TIP3    H119712   2.318   0.005   8.266
 2963TIP3    H219713   2.346   5.092   8.160
 2964TIP3   OH219714   1.983   4.517   8.216
 2964TIP3    H119715   2.060   4.562   8.182
 2964TIP3    H219716   1.916   4.586   8.220
 2965TIP3   OH219717   2.070   3.924   8.928
 2965TIP3    H119718   2.076   3.908   8.833
 2965TIP3    H219719   2.037   3.841   8.963
 2966TIP3   OH219720   2.479   5.000   8.086
 2966TIP3    H119721   2.502   4.930   8.147
 2966TIP3    H219722   2.560   5.019   8.039
 2967TIP3   OH219723   3.186   4.914   9.486
 2967TIP3    H119724   3.206   4.925   9.579
 2967TIP3    H219725   3.132   4.990   9.464
 2968TIP3   OH219726   2.543   4.797   8.260
 2968TIP3    H119727   2.478   4.761   8.321
 2968TIP3    H219728   2.575   4.722   8.211
 2969TIP3   OH219729   2.632   4.591   8.100
 2969TIP3    H119730   2.656   4.604   8.008
 2969TIP3    H219731   2.713   4.560   8.141
 2970TIP3   OH219732   3.509   4.974   8.156
 2970TIP3    H119733   3.597   5.008   8.139
 2970TIP3    H219734   3.459   5.050   8.184
 2971TIP3   OH219735   2.686   4.202   9.452
 2971TIP3    H119736   2.634   4.189   9.373
 2971TIP3    H219737   2.734   4.283   9.437
 2972TIP3   OH219738   2.535   4.118   9.233
 2972TIP3    H119739   2.570   4.192   9.184
 2972TIP3    H219740   2.440   4.127   9.225
 2973TIP3   OH219741   2.557   4.772   9.445
 2973TIP3    H119742   2.599   4.851   9.480
 2973TIP3    H219743   2.537   4.794   9.354
 2974TIP3   OH219744   2.548   3.880   9.381
 2974TIP3    H119745   2.538   3.962   9.332
 2974TIP3    H219746   2.465   3.834   9.368
 2975TIP3   OH219747   2.641   4.178   9.717
 2975TIP3    H119748   2.579   4.246   9.743
 2975TIP3    H219749   2.649   4.188   9.622
 2976TIP3   OH219750   2.897   4.071   9.701
 2976TIP3    H119751   2.811   4.112   9.707
 2976TIP3    H219752   2.923   4.057   9.792
 2977TIP3   OH219753   2.048   4.162   9.693
 2977TIP3    H119754   2.011   4.078   9.721
 2977TIP3    H219755   2.105   4.189   9.765
 2978TIP3   OH219756   2.596   3.777   9.635
 2978TIP3    H119757   2.654   3.702   9.629
 2978TIP3    H219758   2.586   3.808   9.545
 2979TIP3   OH219759   2.469   3.971   9.775
 2979TIP3    H119760   2.518   3.900   9.733
 2979TIP3    H219761   2.524   4.049   9.763
 2980TIP3   OH219762   2.024   5.115   8.104
 2980TIP3    H119763   2.112   5.124   8.140
 2980TIP3    H219764   2.016   5.186   8.040
 2981TIP3   OH219765   3.631   4.910   8.500
 2981TIP3    H119766   3.539   4.935   8.490
 2981TIP3    H219767   3.629   4.837   8.562
 2982TIP3   OH219768   3.626   4.687   8.664
 2982TIP3    H119769   3.540   4.663   8.698
 2982TIP3    H219770   3.676   4.712   8.741
 2983TIP3   OH219771   3.750   5.057   9.294
 2983TIP3    H119772   3.768   5.015   9.210
 2983TIP3    H219773   3.754   5.151   9.275
 2984TIP3   OH219774   3.651   4.752   8.276
 2984TIP3    H119775   3.600   4.805   8.213
 2984TIP3    H219776   3.652   4.805   8.356
 2985TIP3   OH219777   3.368   4.436   8.194
 2985TIP3    H119778   3.319   4.477   8.122
 2985TIP3    H219779   3.366   4.342   8.173
 2986TIP3   OH219780   3.372   4.579   8.710
 2986TIP3    H119781   3.376   4.494   8.667
 2986TIP3    H219782   3.321   4.563   8.789
 2987TIP3   OH219783   3.384   4.168   8.148
 2987TIP3    H119784   3.472   4.133   8.133
 2987TIP3    H219785   3.338   4.100   8.197
 2988TIP3   OH219786   3.389   4.362   8.522
 2988TIP3    H119787   3.421   4.272   8.517
 2988TIP3    H219788   3.451   4.413   8.470
 2989TIP3   OH219789   3.427   4.388   9.069
 2989TIP3    H119790   3.517   4.416   9.051
 2989TIP3    H219791   3.409   4.421   9.157
 2990TIP3   OH219792   3.430   4.534   9.302
 2990TIP3    H119793   3.352   4.568   9.346
 2990TIP3    H219794   3.475   4.612   9.269
 2991TIP3   OH219795   1.819   4.315   9.629
 2991TIP3    H119796   1.902   4.276   9.658
 2991TIP3    H219797   1.752   4.257   9.664
 2992TIP3   OH219798   3.463   4.097   8.498
 2992TIP3    H119799   3.470   4.048   8.579
 2992TIP3    H219800   3.399   4.049   8.446
 2993TIP3   OH219801   1.949   4.174   8.955
 2993TIP3    H119802   1.988   4.087   8.947
 2993TIP3    H219803   2.023   4.231   8.978
 2994TIP3   OH219804   1.756   4.553   9.025
 2994TIP3    H119805   1.846   4.540   8.996
 2994TIP3    H219806   1.762   4.622   9.092
 2995TIP3   OH219807   3.643   4.065   8.142
 2995TIP3    H119808   3.701   4.051   8.067
 2995TIP3    H219809   3.685   4.135   8.193
 2996TIP3   OH219810   1.822   4.059   8.428
 2996TIP3    H119811   1.732   4.076   8.454
 2996TIP3    H219812   1.848   4.139   8.381
 2997TIP3   OH219813   1.837   3.860   9.298
 2997TIP3    H119814   1.770   3.858   9.366
 2997TIP3    H219815   1.827   3.946   9.256
 2998TIP3   OH219816   3.551   3.823   9.434
 2998TIP3    H119817   3.468   3.834   9.388
 2998TIP3    H219818   3.545   3.734   9.471
 2999TIP3   OH219819   2.710   3.921   8.872
 2999TIP3    H119820   2.646   3.884   8.933
 2999TIP3    H219821   2.789   3.869   8.885
 3000TIP3   OH219822   3.368   3.847   8.890
 3000TIP3    H119823   3.424   3.909   8.844
 3000TIP3    H219824   3.283   3.890   8.894
 3001TIP3   OH219825   3.552   3.973   8.729
 3001TIP3    H119826   3.620   3.908   8.710
 3001TIP3    H219827   3.599   4.055   8.742
 3002TIP3   OH219828   2.072   3.859   8.659
 3002TIP3    H119829   1.979   3.837   8.652
 3002TIP3    H219830   2.117   3.774   8.657
 3003TIP3   OH219831   1.939   3.849   8.291
 3003TIP3    H119832   2.020   3.892   8.262
 3003TIP3    H219833   1.894   3.915   8.344
 3004TIP3   OH219834   2.503   3.849   8.635
 3004TIP3    H119835   2.590   3.874   8.604
 3004TIP3    H219836   2.483   3.913   8.703
 3005TIP3   OH219837   3.107   3.922   8.845
 3005TIP3    H119838   3.078   3.957   8.761
 3005TIP3    H219839   3.035   3.865   8.873
 3006TIP3   OH219840   3.275   3.977   8.326
 3006TIP3    H119841   3.201   4.038   8.329
 3006TIP3    H219842   3.236   3.892   8.349
 3007TIP3   OH219843   2.163   3.998   8.233
 3007TIP3    H119844   2.185   4.063   8.166
 3007TIP3    H219845   2.224   4.016   8.305
 3008TIP3   OH219846   2.645   4.108   8.411
 3008TIP3    H119847   2.685   4.042   8.468
 3008TIP3    H219848   2.651   4.189   8.460
 3009TIP3   OH219849   1.986   3.842   9.695
 3009TIP3    H119850   1.932   3.773   9.733
 3009TIP3    H219851   2.073   3.828   9.733
 3010TIP3   OH219852   2.254   3.802   9.765
 3010TIP3    H119853   2.315   3.874   9.750
 3010TIP3    H219854   2.282   3.765   9.849
 3011TIP3   OH219855   4.918   4.805   8.712
 3011TIP3    H119856   4.871   4.790   8.794
 3011TIP3    H219857   4.849   4.821   8.647
 3012TIP3   OH219858   4.781   4.710   8.935
 3012TIP3    H119859   4.690   4.698   8.961
 3012TIP3    H219860   4.811   4.623   8.909
 3013TIP3   OH219861   3.998   4.699   9.181
 3013TIP3    H119862   4.017   4.684   9.274
 3013TIP3    H219863   4.084   4.705   9.139
 3014TIP3   OH219864   3.991   5.095   9.033
 3014TIP3    H119865   3.930   5.022   9.045
 3014TIP3    H219866   4.065   5.057   8.986
 3015TIP3   OH219867   3.719   4.436   8.584
 3015TIP3    H119868   3.699   4.522   8.620
 3015TIP3    H219869   3.683   4.437   8.496
 3016TIP3   OH219870   3.825   4.739   8.850
 3016TIP3    H119871   3.852   4.649   8.865
 3016TIP3    H219872   3.906   4.786   8.834
 3017TIP3   OH219873   4.582   5.071   9.008
 3017TIP3    H119874   4.623   5.024   8.935
 3017TIP3    H219875   4.642   5.060   9.081
 3018TIP3   OH219876   4.886   4.415   9.108
 3018TIP3    H119877   4.979   4.435   9.116
 3018TIP3    H219878   4.868   4.422   9.014
 3019TIP3   OH219879   4.264   4.172   8.826
 3019TIP3    H119880   4.275   4.257   8.783
 3019TIP3    H219881   4.209   4.122   8.766
 3020TIP3   OH219882   5.002   4.296   8.684
 3020TIP3    H119883   5.049   4.226   8.730
 3020TIP3    H219884   5.071   4.353   8.650
 3021TIP3   OH219885   3.913   4.484   8.890
 3021TIP3    H119886   3.978   4.443   8.948
 3021TIP3    H219887   3.929   4.446   8.804
 3022TIP3   OH219888   4.366   4.593   8.840
 3022TIP3    H119889   4.444   4.547   8.870
 3022TIP3    H219890   4.318   4.529   8.789
 3023TIP3   OH219891   4.076   4.150   9.238
 3023TIP3    H119892   4.071   4.189   9.151
 3023TIP3    H219893   4.068   4.225   9.298
 3024TIP3   OH219894   4.675   5.169   8.537
 3024TIP3    H119895   4.703   5.110   8.467
 3024TIP3    H219896   4.597   5.127   8.574
 3025TIP3   OH219897   4.410   4.903   9.161
 3025TIP3    H119898   4.336   4.952   9.196
 3025TIP3    H219899   4.459   4.968   9.109
 3026TIP3   OH219900   4.093   4.302   9.006
 3026TIP3    H119901   4.151   4.357   9.058
 3026TIP3    H219902   4.150   4.259   8.942
 3027TIP3   OH219903   4.180   5.024   9.248
 3027TIP3    H119904   4.111   5.070   9.199
 3027TIP3    H219905   4.136   4.994   9.327
 3028TIP3   OH219906   3.843   5.082   8.474
 3028TIP3    H119907   3.770   5.023   8.491
 3028TIP3    H219908   3.810   5.141   8.406
 3029TIP3   OH219909   4.457   3.807   8.944
 3029TIP3    H119910   4.439   3.718   8.974
 3029TIP3    H219911   4.396   3.861   8.993
 3030TIP3   OH219912   4.723   4.806   8.512
 3030TIP3    H119913   4.649   4.852   8.474
 3030TIP3    H219914   4.785   4.796   8.439
 3031TIP3   OH219915   4.759   4.559   8.148
 3031TIP3    H119916   4.800   4.638   8.184
 3031TIP3    H219917   4.832   4.507   8.116
 3032TIP3   OH219918   5.171   4.749   8.624
 3032TIP3    H119919   5.085   4.769   8.662
 3032TIP3    H219920   5.177   4.806   8.547
 3033TIP3   OH219921   4.934   4.591   9.547
 3033TIP3    H119922   4.883   4.567   9.624
 3033TIP3    H219923   4.961   4.682   9.562
 3034TIP3   OH219924   4.328   4.799   8.657
 3034TIP3    H119925   4.271   4.758   8.592
 3034TIP3    H219926   4.340   4.731   8.724
 3035TIP3   OH219927   4.238   5.074   8.906
 3035TIP3    H119928   4.238   5.116   8.819
 3035TIP3    H219929   4.262   5.145   8.966
 3036TIP3   OH219930   4.244   4.713   9.052
 3036TIP3    H119931   4.291   4.680   8.976
 3036TIP3    H219932   4.301   4.780   9.090
 3037TIP3   OH219933   4.516   5.142   9.478
 3037TIP3    H119934   4.531   0.007   9.554
 3037TIP3    H219935   4.425   5.113   9.488
 3038TIP3   OH219936   4.900   4.750   8.311
 3038TIP3    H119937   4.933   4.663   8.336
 3038TIP3    H219938   4.976   4.808   8.318
 3039TIP3   OH219939   4.074   4.658   9.444
 3039TIP3    H119940   4.102   4.622   9.528
 3039TIP3    H219941   4.072   4.753   9.457
 3040TIP3   OH219942   4.176   4.706   8.439
 3040TIP3    H119943   4.134   4.790   8.420
 3040TIP3    H219944   4.106   4.642   8.429
 3041TIP3   OH219945   3.783   4.900   9.515
 3041TIP3    H119946   3.754   4.953   9.441
 3041TIP3    H219947   3.751   4.812   9.495
 3042TIP3   OH219948   4.051   4.935   9.477
 3042TIP3    H119949   4.080   4.974   9.559
 3042TIP3    H219950   3.956   4.927   9.486
 3043TIP3   OH219951   4.295   4.004   9.059
 3043TIP3    H119952   4.289   4.065   8.985
 3043TIP3    H219953   4.353   4.049   9.121
 3044TIP3   OH219954   4.795   4.006   9.539
 3044TIP3    H119955   4.832   3.932   9.587
 3044TIP3    H219956   4.713   3.973   9.503
 3045TIP3   OH219957   5.089   4.353   9.545
 3045TIP3    H119958   5.121   4.358   9.635
 3045TIP3    H219959   5.044   4.436   9.531
 3046TIP3   OH219960   4.611   4.073   8.175
 3046TIP3    H119961   4.583   4.078   8.267
 3046TIP3    H219962   4.546   4.125   8.127
 3047TIP3   OH219963   4.259   4.456   9.157
 3047TIP3    H119964   4.245   4.461   9.251
 3047TIP3    H219965   4.255   4.548   9.128
 3048TIP3   OH219966   4.243   4.407   8.682
 3048TIP3    H119967   4.148   4.401   8.671
 3048TIP3    H219968   4.277   4.415   8.593
 3049TIP3   OH219969   4.755   4.545   8.589
 3049TIP3    H119970   4.728   4.635   8.573
 3049TIP3    H219971   4.830   4.531   8.531
 3050TIP3   OH219972   4.793   4.503   9.767
 3050TIP3    H119973   4.719   4.501   9.828
 3050TIP3    H219974   4.813   4.411   9.750
 3051TIP3   OH219975   4.838   4.458   8.832
 3051TIP3    H119976   4.808   4.499   8.751
 3051TIP3    H219977   4.903   4.393   8.803
 3052TIP3   OH219978   4.011   4.398   9.347
 3052TIP3    H119979   4.041   4.478   9.391
 3052TIP3    H219980   3.925   4.422   9.311
 3053TIP3   OH219981   4.381   4.234   8.138
 3053TIP3    H119982   4.339   4.198   8.216
 3053TIP3    H219983   4.318   4.298   8.104
 3054TIP3   OH219984   3.656   4.225   8.765
 3054TIP3    H119985   3.723   4.226   8.833
 3054TIP3    H219986   3.679   4.298   8.707
 3055TIP3   OH219987   3.763   4.275   8.278
 3055TIP3    H119988   3.848   4.318   8.266
 3055TIP3    H219989   3.702   4.346   8.292
 3056TIP3   OH219990   4.780   4.631   9.320
 3056TIP3    H119991   4.834   4.686   9.263
 3056TIP3    H219992   4.829   4.628   9.403
 3057TIP3   OH219993   4.547   4.185   8.820
 3057TIP3    H119994   4.457   4.153   8.820
 3057TIP3    H219995   4.600   4.109   8.844
 3058TIP3   OH219996   3.975   4.352   8.655
 3058TIP3    H119997   3.892   4.371   8.612
 3058TIP3    H219998   3.993   4.260   8.635
 3059TIP3   OH219999   4.372   4.397   8.437
 3059TIP3    H120000   4.449   4.376   8.488
 3059TIP3    H220001   4.406   4.443   8.360
 3060TIP3   OH220002   4.982   3.984   9.090
 3060TIP3    H120003   4.992   4.078   9.076
 3060TIP3    H220004   4.981   3.946   9.001
 3061TIP3   OH220005   4.230   4.470   8.102
 3061TIP3    H120006   4.197   4.536   8.041
 3061TIP3    H220007   4.315   4.505   8.131
 3062TIP3   OH220008   4.103   5.045   9.726
 3062TIP3    H120009   4.182   5.093   9.751
 3062TIP3    H220010   4.123   4.953   9.747
 3063TIP3   OH220011   4.577   4.439   8.916
 3063TIP3    H120012   4.671   4.446   8.898
 3063TIP3    H220013   4.556   4.348   8.896
 3064TIP3   OH220014   4.091   4.098   8.620
 3064TIP3    H120015   4.043   4.018   8.640
 3064TIP3    H220016   4.129   4.082   8.534
 3065TIP3   OH220017   4.529   4.382   9.230
 3065TIP3    H120018   4.472   4.412   9.159
 3065TIP3    H220019   4.495   4.424   9.308
 3066TIP3   OH220020   4.530   4.941   8.365
 3066TIP3    H120021   4.471   4.880   8.321
 3066TIP3    H220022   4.478   4.979   8.435
 3067TIP3   OH220023   4.820   4.240   8.281
 3067TIP3    H120024   4.763   4.187   8.224
 3067TIP3    H220025   4.884   4.278   8.221
 3068TIP3   OH220026   4.772   5.036   9.488
 3068TIP3    H120027   4.677   5.043   9.485
 3068TIP3    H220028   4.804   5.124   9.472
 3069TIP3   OH220029   4.946   4.476   8.399
 3069TIP3    H120030   4.880   4.407   8.392
 3069TIP3    H220031   4.996   4.470   8.318
 3070TIP3   OH220032   4.079   4.840   8.860
 3070TIP3    H120033   4.143   4.905   8.829
 3070TIP3    H220034   4.124   4.794   8.931
 3071TIP3   OH220035   4.775   5.047   8.300
 3071TIP3    H120036   4.837   4.981   8.268
 3071TIP3    H220037   4.689   5.004   8.294
 3072TIP3   OH220038   3.699   4.641   9.469
 3072TIP3    H120039   3.704   4.548   9.492
 3072TIP3    H220040   3.659   4.642   9.382
 3073TIP3   OH220041   5.049   0.143   9.565
 3073TIP3    H120042   5.110   0.159   9.494
 3073TIP3    H220043   4.964   0.132   9.523
 3074TIP3   OH220044   4.934   4.788   9.153
 3074TIP3    H120045   4.896   4.765   9.068
 3074TIP3    H220046   5.029   4.791   9.137
 3075TIP3   OH220047   4.217   0.014   8.666
 3075TIP3    H120048   4.274   0.090   8.651
 3075TIP3    H220049   4.130   0.045   8.642
 3076TIP3   OH220050   3.923   4.689   8.275
 3076TIP3    H120051   3.961   4.776   8.290
 3076TIP3    H220052   3.829   4.705   8.267
 3077TIP3   OH220053   4.436   5.040   8.605
 3077TIP3    H120054   4.363   5.099   8.625
 3077TIP3    H220055   4.406   4.954   8.635
 3078TIP3   OH220056   4.756   4.993   9.205
 3078TIP3    H120057   4.762   5.006   9.300
 3078TIP3    H220058   4.824   4.927   9.186
 3079TIP3   OH220059   4.966   0.005   8.432
 3079TIP3    H120060   5.029   5.124   8.437
 3079TIP3    H220061   4.898   5.165   8.373
 3080TIP3   OH220062   4.411   0.052   8.373
 3080TIP3    H120063   4.503   0.028   8.359
 3080TIP3    H220064   4.410   0.090   8.461
 3081TIP3   OH220065   4.041   4.931   8.355
 3081TIP3    H120066   3.976   4.979   8.406
 3081TIP3    H220067   4.095   4.999   8.314
 3082TIP3   OH220068   4.881   4.233   9.399
 3082TIP3    H120069   4.958   4.262   9.448
 3082TIP3    H220070   4.858   4.149   9.438
 3083TIP3   OH220071   4.878   4.116   8.515
 3083TIP3    H120072   4.854   4.164   8.436
 3083TIP3    H220073   4.912   4.183   8.574
 3084TIP3   OH220074   4.590   4.323   8.581
 3084TIP3    H120075   4.650   4.398   8.589
 3084TIP3    H220076   4.588   4.285   8.669
 3085TIP3   OH220077   4.637   4.395   9.504
 3085TIP3    H120078   4.560   4.420   9.554
 3085TIP3    H220079   4.689   4.342   9.564
 3086TIP3   OH220080   4.686   3.943   8.603
 3086TIP3    H120081   4.696   3.948   8.698
 3086TIP3    H220082   4.760   3.994   8.568
 3087TIP3   OH220083   4.265   4.146   8.380
 3087TIP3    H120084   4.274   4.237   8.409
 3087TIP3    H220085   4.347   4.104   8.406
 3088TIP3   OH220086   4.201   5.129   8.242
 3088TIP3    H120087   4.276   5.167   8.288
 3088TIP3    H220088   4.240   5.074   8.174
 3089TIP3   OH220089   3.992   4.424   8.245
 3089TIP3    H120090   4.076   4.430   8.201
 3089TIP3    H220091   3.964   4.515   8.256
 3090TIP3   OH220092   3.982   3.944   8.975
 3090TIP3    H120093   3.986   3.932   8.880
 3090TIP3    H220094   3.959   3.858   9.009
 3091TIP3   OH220095   4.327   4.949   8.079
 3091TIP3    H120096   4.342   4.872   8.134
 3091TIP3    H220097   4.385   4.937   8.005
 3092TIP3   OH220098   4.988   4.865   9.552
 3092TIP3    H120099   5.050   4.883   9.482
 3092TIP3    H220100   4.912   4.920   9.533
 3093TIP3   OH220101   4.378   4.739   8.252
 3093TIP3    H120102   4.312   4.719   8.319
 3093TIP3    H220103   4.428   4.658   8.243
 3094TIP3   OH220104   4.339   4.501   9.442
 3094TIP3    H120105   4.294   4.530   9.522
 3094TIP3    H220106   4.385   4.579   9.411
 3095TIP3   OH220107   4.498   4.491   8.200
 3095TIP3    H120108   4.496   4.400   8.171
 3095TIP3    H220109   4.588   4.520   8.183
 3096TIP3   OH220110   4.353   4.236   9.489
 3096TIP3    H120111   4.404   4.238   9.569
 3096TIP3    H220112   4.347   4.327   9.461
 3097TIP3   OH220113   4.447   4.115   9.264
 3097TIP3    H120114   4.494   4.194   9.235
 3097TIP3    H220115   4.401   4.142   9.343
 3098TIP3   OH220116   4.498   4.686   9.318
 3098TIP3    H120117   4.593   4.684   9.319
 3098TIP3    H220118   4.476   4.766   9.270
 3099TIP3   OH220119   4.116   4.284   9.627
 3099TIP3    H120120   4.191   4.270   9.569
 3099TIP3    H220121   4.121   4.378   9.648
 3100TIP3   OH220122   4.554   3.908   9.425
 3100TIP3    H120123   4.531   3.980   9.367
 3100TIP3    H220124   4.572   3.834   9.367
 3101TIP3   OH220125   4.450   4.362   9.720
 3101TIP3    H120126   4.495   4.414   9.786
 3101TIP3    H220127   4.388   4.308   9.770
 3102TIP3   OH220128   4.752   4.233   9.696
 3102TIP3    H120129   4.681   4.199   9.750
 3102TIP3    H220130   4.786   4.155   9.651
 3103TIP3   OH220131   5.050   4.056  10.026
 3103TIP3    H120132   4.955   4.064  10.034
 3103TIP3    H220133   5.082   4.146  10.023
 3104TIP3   OH220134   4.553   3.840   9.709
 3104TIP3    H120135   4.596   3.754   9.711
 3104TIP3    H220136   4.546   3.861   9.616
 3105TIP3   OH220137   4.558   4.096   9.838
 3105TIP3    H120138   4.563   4.006   9.807
 3105TIP3    H220139   4.465   4.112   9.852
 3106TIP3   OH220140   3.759   5.086   8.136
 3106TIP3    H120141   3.773   5.166   8.188
 3106TIP3    H220142   3.842   5.073   8.090
 3107TIP3   OH220143   3.820   4.880   9.087
 3107TIP3    H120144   3.801   4.843   9.000
 3107TIP3    H220145   3.883   4.819   9.126
 3108TIP3   OH220146   3.737   4.364   9.608
 3108TIP3    H120147   3.776   4.341   9.693
 3108TIP3    H220148   3.644   4.344   9.619
 3109TIP3   OH220149   3.840   4.181   8.968
 3109TIP3    H120150   3.880   4.094   8.971
 3109TIP3    H220151   3.912   4.242   8.981
 3110TIP3   OH220152   3.674   4.494   9.039
 3110TIP3    H120153   3.757   4.498   8.992
 3110TIP3    H220154   3.669   4.577   9.087
 3111TIP3   OH220155   3.740   4.055   8.446
 3111TIP3    H120156   3.648   4.065   8.470
 3111TIP3    H220157   3.760   4.135   8.396
 3112TIP3   OH220158   3.728   3.889   9.242
 3112TIP3    H120159   3.667   3.865   9.311
 3112TIP3    H220160   3.694   3.971   9.206
 3113TIP3   OH220161   4.683   3.952   8.875
 3113TIP3    H120162   4.624   3.889   8.916
 3113TIP3    H220163   4.770   3.914   8.886
 3114TIP3   OH220164   3.969   3.868   8.708
 3114TIP3    H120165   3.878   3.849   8.686
 3114TIP3    H220166   4.013   3.784   8.700
 3115TIP3   OH220167   3.904   3.856   8.342
 3115TIP3    H120168   3.961   3.917   8.296
 3115TIP3    H220169   3.842   3.913   8.388
 3116TIP3   OH220170   4.424   3.860   8.676
 3116TIP3    H120171   4.510   3.886   8.645
 3116TIP3    H220172   4.436   3.841   8.769
 3117TIP3   OH220173   4.936   3.839   8.858
 3117TIP3    H120174   5.001   3.839   8.788
 3117TIP3    H220175   4.931   3.747   8.886
 3118TIP3   OH220176   4.081   4.023   8.218
 3118TIP3    H120177   4.077   4.084   8.144
 3118TIP3    H220178   4.144   4.062   8.278
 3119TIP3   OH220179   4.530   4.098   8.435
 3119TIP3    H120180   4.573   4.030   8.487
 3119TIP3    H220181   4.557   4.180   8.476
 3120TIP3   OH220182   5.001   3.795   9.921
 3120TIP3    H120183   4.946   3.747   9.982
 3120TIP3    H220184   5.017   3.879   9.964
 3121TIP3   OH220185   1.431   1.052   9.917
 3121TIP3    H120186   1.341   1.048   9.951
 3121TIP3    H220187   1.435   1.136   9.871
 3122TIP3   OH220188   0.456   1.224   9.887
 3122TIP3    H120189   0.470   1.222   9.982
 3122TIP3    H220190   0.498   1.305   9.858
 3123TIP3   OH220191   0.263   1.824  10.010
 3123TIP3    H120192   0.207   1.830  10.087
 3123TIP3    H220193   0.350   1.804  10.044
 3124TIP3   OH220194   2.590   0.334  10.021
 3124TIP3    H120195   2.549   0.386  10.090
 3124TIP3    H220196   2.684   0.349  10.032
 3125TIP3   OH220197   3.461   0.434   9.833
 3125TIP3    H120198   3.495   0.396   9.915
 3125TIP3    H220199   3.375   0.394   9.822
 3126TIP3   OH220200   4.834   1.757   9.907
 3126TIP3    H120201   4.774   1.727   9.975
 3126TIP3    H220202   4.888   1.681   9.887
 3127TIP3   OH220203   4.306   0.802   9.846
 3127TIP3    H120204   4.308   0.873   9.782
 3127TIP3    H220205   4.240   0.829   9.910
 3128TIP3   OH220206   0.205   3.612   9.829
 3128TIP3    H120207   0.194   3.519   9.844
 3128TIP3    H220208   0.218   3.649   9.917
 3129TIP3   OH220209   3.401   2.963   9.879
 3129TIP3    H120210   3.345   2.900   9.924
 3129TIP3    H220211   3.490   2.937   9.900
 3130TIP3   OH220212   4.180   3.742   9.810
 3130TIP3    H120213   4.128   3.820   9.828
 3130TIP3    H220214   4.259   3.752   9.863
 3131TIP3   OH220215   0.640   0.014   9.881
 3131TIP3    H120216   0.688   0.010   9.798
 3131TIP3    H220217   0.666   0.098   9.919
 3132TIP3   OH220218   1.341   4.401   9.821
 3132TIP3    H120219   1.367   4.397   9.729
 3132TIP3    H220220   1.358   4.313   9.855
 3133TIP3   OH220221   1.410   4.144   9.884
 3133TIP3    H120222   1.485   4.144   9.944
 3133TIP3    H220223   1.344   4.091   9.929
 3134TIP3   OH220224   2.495   5.035   9.866
 3134TIP3    H120225   2.417   5.022   9.811
 3134TIP3    H220226   2.460   5.036   9.955
 3135TIP3   OH220227   2.144   4.652  10.045
 3135TIP3    H120228   2.141   4.746  10.028
 3135TIP3    H220229   2.083   4.614   9.981
 3136TIP3   OH220230   4.271   4.182   9.839
 3136TIP3    H120231   4.217   4.170   9.917
 3136TIP3    H220232   4.209   4.194   9.768
 3137TIP3   OH220233   4.339   5.175   9.802
 3137TIP3    H120234   4.419   0.019   9.762
 3137TIP3    H220235   4.340   0.019   9.891
 3138TIP3   OH220236   4.773   5.112   9.765
 3138TIP3    H120237   4.704   5.177   9.754
 3138TIP3    H220238   4.778   5.067   9.680
   5.19134   5.19134  24.00000
