;;
;; Generated by CHARMM-GUI (http://www.charmm-gui.org) v1.7
;;
;; psf2itp_mol.py
;;
;; Correspondance:
;; jul316@lehigh.edu or wonpil@lehigh.edu
;;
;; GROMACS topology file for LIG
;;


[ moleculetype ]
; name	nrexcl
LIG	     3

[ atoms ]
; nr	type	resnr	residu	atom	cgnr	charge	mass
     1      OG301      1      LIG     O1      1     -0.377    15.9994   ; qtot -0.377
     2      OG301      1      LIG     O2      2     -0.377    15.9994   ; qtot -0.754
     3      OG2D3      1      LIG     O3      3     -0.449    15.9994   ; qtot -1.203
     4      OG311      1      LIG     O4      4     -0.545    15.9994   ; qtot -1.748
     5      NG3P0      1      LIG      N      5     -0.453    14.0070   ; qtot -2.201
     6      CG324      1      LIG     C1      6     -0.230    12.0110   ; qtot -2.431
     7      CG324      1      LIG     C2      7     -0.133    12.0110   ; qtot -2.564
     8      CG334      1      LIG     C3      8     -0.418    12.0110   ; qtot -2.982
     9      CG334      1      LIG     C4      9     -0.418    12.0110   ; qtot -3.400
    10      CG311      1      LIG     C5     10      0.345    12.0110   ; qtot -3.055
    11     CG2R61      1      LIG     C6     11      0.093    12.0110   ; qtot -2.962
    12     CG2R61      1      LIG     C7     12     -0.115    12.0110   ; qtot -3.077
    13     CG2R61      1      LIG     C8     13     -0.115    12.0110   ; qtot -3.192
    14     CG2R61      1      LIG     C9     14     -0.108    12.0110   ; qtot -3.300
    15     CG2R61      1      LIG    C10     15     -0.108    12.0110   ; qtot -3.408
    16      CG321      1      LIG    C11     16      0.010    12.0110   ; qtot -3.398
    17      CG321      1      LIG    C12     17      0.010    12.0110   ; qtot -3.388
    18     CG2R61      1      LIG    C13     18      0.124    12.0110   ; qtot -3.264
    19      CG331      1      LIG    C14     19     -0.272    12.0110   ; qtot -3.536
    20      CG331      1      LIG    C15     20     -0.272    12.0110   ; qtot -3.808
    21      CG2O5      1      LIG    C16     21      0.184    12.0110   ; qtot -3.624
    22     CG2R61      1      LIG    C17     22      0.248    12.0110   ; qtot -3.376
    23     CG2R61      1      LIG    C18     23     -0.021    12.0110   ; qtot -3.397
    24     CG2R61      1      LIG    C19     24     -0.125    12.0110   ; qtot -3.522
    25     CG2R61      1      LIG    C20     25     -0.113    12.0110   ; qtot -3.635
    26     CG2R61      1      LIG    C21     26      0.029    12.0110   ; qtot -3.606
    27     CG2R61      1      LIG    C22     27     -0.115    12.0110   ; qtot -3.721
    28      CG331      1      LIG    C23     28     -0.264    12.0110   ; qtot -3.985
    29       HGP5      1      LIG     H1     29      0.250     1.0080   ; qtot -3.735
    30       HGP5      1      LIG     H2     30      0.250     1.0080   ; qtot -3.485
    31       HGP5      1      LIG     H3     31      0.250     1.0080   ; qtot -3.235
    32       HGP5      1      LIG     H4     32      0.250     1.0080   ; qtot -2.985
    33       HGP5      1      LIG     H5     33      0.250     1.0080   ; qtot -2.735
    34       HGP5      1      LIG     H6     34      0.250     1.0080   ; qtot -2.485
    35       HGP5      1      LIG     H7     35      0.250     1.0080   ; qtot -2.235
    36       HGP5      1      LIG     H8     36      0.250     1.0080   ; qtot -1.985
    37       HGP5      1      LIG     H9     37      0.250     1.0080   ; qtot -1.735
    38       HGP5      1      LIG    H10     38      0.250     1.0080   ; qtot -1.485
    39       HGA1      1      LIG    H11     39      0.090     1.0080   ; qtot -1.395
    40      HGR61      1      LIG    H12     40      0.115     1.0080   ; qtot -1.280
    41      HGR61      1      LIG    H13     41      0.115     1.0080   ; qtot -1.165
    42      HGR61      1      LIG    H14     42      0.115     1.0080   ; qtot -1.050
    43      HGR61      1      LIG    H15     43      0.115     1.0080   ; qtot -0.935
    44       HGA2      1      LIG    H16     44      0.090     1.0080   ; qtot -0.845
    45       HGA2      1      LIG    H17     45      0.090     1.0080   ; qtot -0.755
    46       HGA2      1      LIG    H18     46      0.090     1.0080   ; qtot -0.665
    47       HGA2      1      LIG    H19     47      0.090     1.0080   ; qtot -0.575
    48       HGA3      1      LIG    H20     48      0.090     1.0080   ; qtot -0.485
    49       HGA3      1      LIG    H21     49      0.090     1.0080   ; qtot -0.395
    50       HGA3      1      LIG    H22     50      0.090     1.0080   ; qtot -0.305
    51       HGA3      1      LIG    H23     51      0.090     1.0080   ; qtot -0.215
    52       HGA3      1      LIG    H24     52      0.090     1.0080   ; qtot -0.125
    53       HGA3      1      LIG    H25     53      0.090     1.0080   ; qtot -0.035
    54      HGR61      1      LIG    H26     54      0.115     1.0080   ; qtot  0.080
    55      HGR61      1      LIG    H27     55      0.115     1.0080   ; qtot  0.195
    56      HGR61      1      LIG    H28     56      0.115     1.0080   ; qtot  0.310
    57       HGA3      1      LIG    H29     57      0.090     1.0080   ; qtot  0.400
    58       HGA3      1      LIG    H30     58      0.090     1.0080   ; qtot  0.490
    59       HGA3      1      LIG    H31     59      0.090     1.0080   ; qtot  0.580
    60       HGP1      1      LIG    H32     60      0.420     1.0080   ; qtot  1.000

[ bonds ]
; ai	aj	funct	b0	Kb
    1    10     1
    1    16     1
    2    10     1
    2    17     1
    3    21     1
    4    23     1
    4    60     1
    5     6     1
    5     7     1
    5     8     1
    5     9     1
    6    10     1
    6    29     1
    6    30     1
    7    11     1
    7    31     1
    7    32     1
    8    33     1
    8    34     1
    8    35     1
    9    36     1
    9    37     1
    9    38     1
   10    39     1
   11    12     1
   11    13     1
   12    14     1
   12    40     1
   13    15     1
   13    41     1
   14    18     1
   14    42     1
   15    18     1
   15    43     1
   16    19     1
   16    44     1
   16    45     1
   17    20     1
   17    46     1
   17    47     1
   18    21     1
   19    48     1
   19    49     1
   19    50     1
   20    51     1
   20    52     1
   20    53     1
   21    22     1
   22    23     1
   22    24     1
   23    25     1
   24    27     1
   24    54     1
   25    26     1
   25    55     1
   26    27     1
   26    28     1
   27    56     1
   28    57     1
   28    58     1
   28    59     1

[ pairs ]
; ai	aj	funct	c6	c12
    1     5     1 
    1    17     1 
    1    29     1 
    1    30     1 
    1    48     1 
    1    49     1 
    1    50     1 
    2     5     1 
    2    16     1 
    2    29     1 
    2    30     1 
    2    51     1 
    2    52     1 
    2    53     1 
    3    14     1 
    3    15     1 
    3    23     1 
    3    24     1 
    4    21     1 
    4    24     1 
    4    26     1 
    4    55     1 
    5    12     1 
    5    13     1 
    5    39     1 
    6    11     1 
    6    16     1 
    6    17     1 
    6    31     1 
    6    32     1 
    6    33     1 
    6    34     1 
    6    35     1 
    6    36     1 
    6    37     1 
    6    38     1 
    7    10     1 
    7    14     1 
    7    15     1 
    7    29     1 
    7    30     1 
    7    33     1 
    7    34     1 
    7    35     1 
    7    36     1 
    7    37     1 
    7    38     1 
    7    40     1 
    7    41     1 
    8    10     1 
    8    11     1 
    8    29     1 
    8    30     1 
    8    31     1 
    8    32     1 
    8    36     1 
    8    37     1 
    8    38     1 
    9    10     1 
    9    11     1 
    9    29     1 
    9    30     1 
    9    31     1 
    9    32     1 
    9    33     1 
    9    34     1 
    9    35     1 
   10    19     1 
   10    20     1 
   10    44     1 
   10    45     1 
   10    46     1 
   10    47     1 
   11    18     1 
   11    42     1 
   11    43     1 
   12    15     1 
   12    21     1 
   12    31     1 
   12    32     1 
   12    41     1 
   13    14     1 
   13    21     1 
   13    31     1 
   13    32     1 
   13    40     1 
   14    22     1 
   14    43     1 
   15    22     1 
   15    42     1 
   16    39     1 
   17    39     1 
   18    23     1 
   18    24     1 
   18    40     1 
   18    41     1 
   21    25     1 
   21    27     1 
   21    42     1 
   21    43     1 
   21    54     1 
   22    26     1 
   22    55     1 
   22    56     1 
   22    60     1 
   23    27     1 
   23    28     1 
   23    54     1 
   24    25     1 
   24    28     1 
   25    56     1 
   25    57     1 
   25    58     1 
   25    59     1 
   25    60     1 
   26    54     1 
   27    55     1 
   27    57     1 
   27    58     1 
   27    59     1 
   28    55     1 
   28    56     1 
   29    39     1 
   30    39     1 
   40    42     1 
   41    43     1 
   44    48     1 
   44    49     1 
   44    50     1 
   45    48     1 
   45    49     1 
   45    50     1 
   46    51     1 
   46    52     1 
   46    53     1 
   47    51     1 
   47    52     1 
   47    53     1 
   54    56     1 

[ angles ] 
; ai	aj	ak	funct	th0	cth	S0	Kub
   10     1    16     5
   10     2    17     5
   23     4    60     5
    6     5     7     5
    6     5     8     5
    6     5     9     5
    7     5     8     5
    7     5     9     5
    8     5     9     5
    5     6    10     5
    5     6    29     5
    5     6    30     5
   10     6    29     5
   10     6    30     5
   29     6    30     5
    5     7    11     5
    5     7    31     5
    5     7    32     5
   11     7    31     5
   11     7    32     5
   31     7    32     5
    5     8    33     5
    5     8    34     5
    5     8    35     5
   33     8    34     5
   33     8    35     5
   34     8    35     5
    5     9    36     5
    5     9    37     5
    5     9    38     5
   36     9    37     5
   36     9    38     5
   37     9    38     5
    1    10     2     5
    1    10     6     5
    1    10    39     5
    2    10     6     5
    2    10    39     5
    6    10    39     5
    7    11    12     5
    7    11    13     5
   12    11    13     5
   11    12    14     5
   11    12    40     5
   14    12    40     5
   11    13    15     5
   11    13    41     5
   15    13    41     5
   12    14    18     5
   12    14    42     5
   18    14    42     5
   13    15    18     5
   13    15    43     5
   18    15    43     5
    1    16    19     5
    1    16    44     5
    1    16    45     5
   19    16    44     5
   19    16    45     5
   44    16    45     5
    2    17    20     5
    2    17    46     5
    2    17    47     5
   20    17    46     5
   20    17    47     5
   46    17    47     5
   14    18    15     5
   14    18    21     5
   15    18    21     5
   16    19    48     5
   16    19    49     5
   16    19    50     5
   48    19    49     5
   48    19    50     5
   49    19    50     5
   17    20    51     5
   17    20    52     5
   17    20    53     5
   51    20    52     5
   51    20    53     5
   52    20    53     5
    3    21    18     5
    3    21    22     5
   18    21    22     5
   21    22    23     5
   21    22    24     5
   23    22    24     5
    4    23    22     5
    4    23    25     5
   22    23    25     5
   22    24    27     5
   22    24    54     5
   27    24    54     5
   23    25    26     5
   23    25    55     5
   26    25    55     5
   25    26    27     5
   25    26    28     5
   27    26    28     5
   24    27    26     5
   24    27    56     5
   26    27    56     5
   26    28    57     5
   26    28    58     5
   26    28    59     5
   57    28    58     5
   57    28    59     5
   58    28    59     5

[ dihedrals ]
; ai	aj	ak	al	funct	phi0	cp	mult
   16     1    10    39     9
   10     1    16    19     9
   10     1    16    44     9
   10     1    16    45     9
   17     2    10    39     9
   10     2    17    20     9
   10     2    17    46     9
   10     2    17    47     9
    7     5     6    10     9
    7     5     6    29     9
    7     5     6    30     9
    8     5     6    10     9
    8     5     6    29     9
    8     5     6    30     9
    9     5     6    10     9
    9     5     6    29     9
    9     5     6    30     9
    6     5     7    11     9
    6     5     7    31     9
    6     5     7    32     9
    8     5     7    11     9
    8     5     7    31     9
    8     5     7    32     9
    9     5     7    11     9
    9     5     7    31     9
    9     5     7    32     9
    6     5     8    33     9
    6     5     8    34     9
    6     5     8    35     9
    7     5     8    33     9
    7     5     8    34     9
    7     5     8    35     9
    9     5     8    33     9
    9     5     8    34     9
    9     5     8    35     9
    6     5     9    36     9
    6     5     9    37     9
    6     5     9    38     9
    7     5     9    36     9
    7     5     9    37     9
    7     5     9    38     9
    8     5     9    36     9
    8     5     9    37     9
    8     5     9    38     9
    5     6    10    39     9
   29     6    10    39     9
   30     6    10    39     9
    5     7    11    12     9
    5     7    11    13     9
    2    10     1    16     9
    6    10     1    16     9
    1    10     2    17     9
    6    10     2    17     9
    1    10     6     5     9
    1    10     6    29     9
    1    10     6    30     9
    2    10     6     5     9
    2    10     6    29     9
    2    10     6    30     9
   12    11     7    31     9
   12    11     7    32     9
   13    11     7    31     9
   13    11     7    32     9
    7    11    12    14     9
    7    11    12    40     9
   13    11    12    14     9
   13    11    12    40     9
    7    11    13    15     9
    7    11    13    41     9
   12    11    13    15     9
   12    11    13    41     9
   11    12    14    18     9
   11    12    14    42     9
   40    12    14    42     9
   11    13    15    18     9
   11    13    15    43     9
   41    13    15    43     9
   18    14    12    40     9
   12    14    18    15     9
   12    14    18    21     9
   18    15    13    41     9
   13    15    18    14     9
   13    15    18    21     9
    1    16    19    48     9
    1    16    19    49     9
    1    16    19    50     9
   44    16    19    48     9
   44    16    19    49     9
   44    16    19    50     9
   45    16    19    48     9
   45    16    19    49     9
   45    16    19    50     9
    2    17    20    51     9
    2    17    20    52     9
    2    17    20    53     9
   46    17    20    51     9
   46    17    20    52     9
   46    17    20    53     9
   47    17    20    51     9
   47    17    20    52     9
   47    17    20    53     9
   15    18    14    42     9
   21    18    14    42     9
   14    18    15    43     9
   21    18    15    43     9
   14    18    21    22     9
   15    18    21    22     9
    3    21    18    14     9
    3    21    18    15     9
    3    21    22    23     9
    3    21    22    24     9
   18    21    22    23     9
   18    21    22    24     9
   21    22    23    25     9
   24    22    23    25     9
   21    22    24    27     9
   21    22    24    54     9
   23    22    24    27     9
   23    22    24    54     9
   22    23     4    60     9
   25    23     4    60     9
    4    23    22    21     9
    4    23    22    24     9
    4    23    25    26     9
    4    23    25    55     9
   22    23    25    26     9
   22    23    25    55     9
   22    24    27    26     9
   22    24    27    56     9
   54    24    27    56     9
   23    25    26    27     9
   23    25    26    28     9
   27    26    25    55     9
   28    26    25    55     9
   25    26    27    56     9
   28    26    27    56     9
   25    26    28    57     9
   25    26    28    58     9
   25    26    28    59     9
   27    26    28    57     9
   27    26    28    58     9
   27    26    28    59     9
   26    27    24    54     9
   24    27    26    25     9
   24    27    26    28     9

[ dihedrals ]
; ai	aj	ak	al	funct	q0	cq
   21    18    22     3     2
